<event>
 4    1  0.4039863E+006  0.6902770E+01  0.7546771E-02  0.2310909E+00
         21   -1    0    0  501  502  0.00000000000E+00  0.00000000000E+00  0.33974101155E+01  0.33974101155E+01  0.00000000000E+00 0.  1.
         21   -1    0    0  502  503 -0.00000000000E+00 -0.00000000000E+00 -0.14896388246E+02  0.14896388246E+02  0.00000000000E+00 0. -1.
          5    1    1    2  501    0 -0.80862957084E+00  0.49904264423E+01 -0.35370493380E+01  0.77562204634E+01  0.47000000000E+01 0.  1.
         -5    1    1    2    0  503  0.80862957084E+00 -0.49904264423E+01 -0.79619287924E+01  0.10537577898E+02  0.47000000000E+01 0. -1.
<mgrwt>
<rscale>  2 0.69027703E+01</rscale>
<asrwt>0</asrwt>
<pdfrwt beam="1">  1       21 0.52267847E-03 0.69027703E+01</pdfrwt>
<pdfrwt beam="2">  1       21 0.22917521E-02 0.69027703E+01</pdfrwt>
<totfact> 0.26984981E+09</totfact>
</mgrwt>
</event>
<event>
 4    1  0.4039863E+006  0.8216018E+01  0.7546771E-02  0.2193457E+00
         21   -1    0    0  501  502  0.00000000000E+00  0.00000000000E+00  0.20741263383E+01  0.20741263383E+01  0.00000000000E+00 0. -1.
         21   -1    0    0  502  503 -0.00000000000E+00 -0.00000000000E+00 -0.54563011411E+02  0.54563011411E+02  0.00000000000E+00 0.  1.
          5    1    1    2  501    0 -0.39557219635E+01  0.54557500434E+01 -0.82553692968E+01  0.11647062592E+02  0.47000000000E+01 0. -1.
         -5    1    1    2    0  503  0.39557219635E+01 -0.54557500434E+01 -0.44233515776E+02  0.44990075157E+02  0.47000000000E+01 0.  1.
<mgrwt>
<rscale>  2 0.82160176E+01</rscale>
<asrwt>0</asrwt>
<pdfrwt beam="1">  1       21 0.31909640E-03 0.82160176E+01</pdfrwt>
<pdfrwt beam="2">  1       21 0.83943083E-02 0.82160176E+01</pdfrwt>
<totfact> 0.87150318E+08</totfact>
</mgrwt>
</event>
<event>
 4    1  0.4039863E+006  0.7982359E+01  0.7546771E-02  0.2212049E+00
         21   -1    0    0  501  502  0.00000000000E+00  0.00000000000E+00  0.94780337056E-01  0.94780337056E-01  0.00000000000E+00 0. -1.
         21   -1    0    0  502  503 -0.00000000000E+00 -0.00000000000E+00 -0.75822394253E+03  0.75822394253E+03  0.00000000000E+00 0.  1.
          5    1    1    2  501    0 -0.63508267698E+01  0.11380059722E+01 -0.25140489378E+03  0.25153158584E+03  0.47000000000E+01 0. -1.
         -5    1    1    2    0  503  0.63508267698E+01 -0.11380059722E+01 -0.50672426841E+03  0.50678713702E+03  0.47000000000E+01 0.  1.
<mgrwt>
<rscale>  2 0.79823592E+01</rscale>
<asrwt>0</asrwt>
<pdfrwt beam="1">  1       21 0.14581481E-04 0.79823592E+01</pdfrwt>
<pdfrwt beam="2">  1       21 0.11665071E+00 0.79823592E+01</pdfrwt>
<totfact> 0.55283053E+08</totfact>
</mgrwt>
</event>
<event>
 4    1  0.4039863E+006  0.6901576E+01  0.7546771E-02  0.2311032E+00
         21   -1    0    0  503  502  0.00000000000E+00  0.00000000000E+00  0.58318493880E+01  0.58318493880E+01  0.00000000000E+00 0.  1.
         21   -1    0    0  501  503 -0.00000000000E+00 -0.00000000000E+00 -0.14146819755E+02  0.14146819755E+02  0.00000000000E+00 0.  1.
          5    1    1    2  501    0 -0.10485011506E+01  0.49439249407E+01 -0.10651784482E+02  0.12692212618E+02  0.47000000000E+01 0.  1.
         -5    1    1    2    0  502  0.10485011506E+01 -0.49439249407E+01  0.23368141152E+01  0.72864565250E+01  0.47000000000E+01 0.  1.
<mgrwt>
<rscale>  2 0.69015758E+01</rscale>
<asrwt>0</asrwt>
<pdfrwt beam="1">  1       21 0.89720760E-03 0.69015758E+01</pdfrwt>
<pdfrwt beam="2">  1       21 0.21764338E-02 0.69015758E+01</pdfrwt>
<totfact> 0.13573634E+09</totfact>
</mgrwt>
</event>
<event>
 4    1  0.4039863E+006  0.6963268E+01  0.7546771E-02  0.2304713E+00
         21   -1    0    0  503  502  0.00000000000E+00  0.00000000000E+00  0.58408215668E+00  0.58408215668E+00  0.00000000000E+00 0. -1.
         21   -1    0    0  501  503 -0.00000000000E+00 -0.00000000000E+00 -0.83383998495E+02  0.83383998495E+02  0.00000000000E+00 0. -1.
          5    1    1    2  501    0 -0.24194005453E+01 -0.45325057788E+01 -0.38603999110E+02  0.39226978661E+02  0.47000000000E+01 0. -1.
         -5    1    1    2    0  502  0.24194005453E+01  0.45325057788E+01 -0.44195917229E+02  0.44741101991E+02  0.47000000000E+01 0. -1.
<mgrwt>
<rscale>  2 0.69632685E+01</rscale>
<asrwt>0</asrwt>
<pdfrwt beam="1">  1       21 0.89858841E-04 0.69632685E+01</pdfrwt>
<pdfrwt beam="2">  1       21 0.12828301E-01 0.69632685E+01</pdfrwt>
<totfact> 0.22842924E+09</totfact>
</mgrwt>
</event>
<event>
 4    1  0.4039863E+006  0.5117687E+01  0.7546771E-02  0.2546690E+00
         21   -1    0    0  503  502  0.00000000000E+00  0.00000000000E+00  0.12271953735E+01  0.12271953735E+01  0.00000000000E+00 0.  1.
         21   -1    0    0  501  503 -0.00000000000E+00 -0.00000000000E+00 -0.53016115725E+02  0.53016115725E+02  0.00000000000E+00 0.  1.
          5    1    1    2  501    0 -0.18735715373E+01 -0.76840753425E+00 -0.46858016406E+02  0.47136656881E+02  0.47000000000E+01 0.  1.
         -5    1    1    2    0  502  0.18735715373E+01  0.76840753425E+00 -0.49309039456E+01  0.71066542174E+01  0.47000000000E+01 0.  1.
<mgrwt>
<rscale>  2 0.51176870E+01</rscale>
<asrwt>0</asrwt>
<pdfrwt beam="1">  1       21 0.18879931E-03 0.51176870E+01</pdfrwt>
<pdfrwt beam="2">  1       21 0.81563245E-02 0.51176870E+01</pdfrwt>
<totfact> 0.13021836E+09</totfact>
</mgrwt>
</event>
<event>
 4    1  0.4039863E+006  0.6927520E+01  0.7546771E-02  0.2308363E+00
         21   -1    0    0  501  502  0.00000000000E+00  0.00000000000E+00  0.26346907825E+01  0.26346907825E+01  0.00000000000E+00 0.  1.
         21   -1    0    0  502  503 -0.00000000000E+00 -0.00000000000E+00 -0.49559125949E+02  0.49559125949E+02  0.00000000000E+00 0. -1.
          5    1    1    2  501    0 -0.17753389382E+01  0.47695599892E+01 -0.27080043433E+01  0.74379982764E+01  0.47000000000E+01 0.  1.
         -5    1    1    2    0  503  0.17753389382E+01 -0.47695599892E+01 -0.44216430824E+02  0.44755818456E+02  0.47000000000E+01 0. -1.
<mgrwt>
<rscale>  2 0.69275198E+01</rscale>
<asrwt>0</asrwt>
<pdfrwt beam="1">  1       21 0.40533706E-03 0.69275198E+01</pdfrwt>
<pdfrwt beam="2">  1       21 0.76244806E-02 0.69275198E+01</pdfrwt>
<totfact> 0.64564048E+08</totfact>
</mgrwt>
</event>
<event>
 4    1  0.4039863E+006  0.9508130E+01  0.7546771E-02  0.2104111E+00
         21   -1    0    0  501  502  0.00000000000E+00  0.00000000000E+00  0.46966317176E+02  0.46966317176E+02  0.00000000000E+00 0.  1.
         21   -1    0    0  502  503 -0.00000000000E+00 -0.00000000000E+00 -0.27065560418E+02  0.27065560418E+02  0.00000000000E+00 0. -1.
          5    1    1    2  501    0  0.69220390721E+01  0.45166256467E+01  0.45625771605E+02  0.46605960635E+02  0.47000000000E+01 0.  1.
         -5    1    1    2    0  503 -0.69220390721E+01 -0.45166256467E+01 -0.25725014847E+02  0.27425916959E+02  0.47000000000E+01 0. -1.
<mgrwt>
<rscale>  2 0.95081298E+01</rscale>
<asrwt>0</asrwt>
<pdfrwt beam="1">  1       21 0.72255872E-02 0.95081298E+01</pdfrwt>
<pdfrwt beam="2">  1       21 0.41639324E-02 0.95081298E+01</pdfrwt>
<totfact> 0.28634025E+07</totfact>
</mgrwt>
</event>
<event>
 4    1  0.4039863E+006  0.8322108E+01  0.7546771E-02  0.2185294E+00
         21   -1    0    0  503  502  0.00000000000E+00  0.00000000000E+00  0.18718535637E+01  0.18718535637E+01  0.00000000000E+00 0. -1.
         21   -1    0    0  501  503 -0.00000000000E+00 -0.00000000000E+00 -0.47157320168E+02  0.47157320168E+02  0.00000000000E+00 0. -1.
          5    1    1    2  501    0 -0.68678531219E+01  0.86912713084E-02 -0.34020372345E+02  0.35023466655E+02  0.47000000000E+01 0. -1.
         -5    1    1    2    0  502  0.68678531219E+01 -0.86912713084E-02 -0.11265094259E+02  0.14005707076E+02  0.47000000000E+01 0. -1.
<mgrwt>
<rscale>  2 0.83221080E+01</rscale>
<asrwt>0</asrwt>
<pdfrwt beam="1">  1       21 0.28797751E-03 0.83221080E+01</pdfrwt>
<pdfrwt beam="2">  1       21 0.72549715E-02 0.83221080E+01</pdfrwt>
<totfact> 0.12710170E+09</totfact>
</mgrwt>
</event>
<event>
 4    1  0.4039863E+006  0.5500147E+01  0.7546771E-02  0.2485407E+00
         21   -1    0    0  501  502  0.00000000000E+00  0.00000000000E+00  0.13710782542E+00  0.13710782542E+00  0.00000000000E+00 0. -1.
         21   -1    0    0  502  503 -0.00000000000E+00 -0.00000000000E+00 -0.22446242808E+03  0.22446242808E+03  0.00000000000E+00 0.  1.
          5    1    1    2  501    0 -0.27381974208E+01  0.81479670727E+00 -0.12681527999E+03  0.12693449830E+03  0.47000000000E+01 0. -1.
         -5    1    1    2    0  503  0.27381974208E+01 -0.81479670727E+00 -0.97510040259E+02  0.97665037604E+02  0.47000000000E+01 0.  1.
<mgrwt>
<rscale>  2 0.55001472E+01</rscale>
<asrwt>0</asrwt>
<pdfrwt beam="1">  1       21 0.21093583E-04 0.55001472E+01</pdfrwt>
<pdfrwt beam="2">  1       21 0.34532564E-01 0.55001472E+01</pdfrwt>
<totfact> 0.26204748E+09</totfact>
</mgrwt>
</event>
<event>
 4    1  0.4039863E+006  0.1043325E+02  0.7546771E-02  0.2051138E+00
         21   -1    0    0  503  502  0.00000000000E+00  0.00000000000E+00  0.58424771094E+01  0.58424771094E+01  0.00000000000E+00 0.  1.
         21   -1    0    0  501  503 -0.00000000000E+00 -0.00000000000E+00 -0.43913862506E+02  0.43913862506E+02  0.00000000000E+00 0. -1.
          5    1    1    2  501    0 -0.83898959158E+01 -0.40462824396E+01 -0.37912495161E+02  0.39321877427E+02  0.47000000000E+01 0. -1.
         -5    1    1    2    0  502  0.83898959158E+01  0.40462824396E+01 -0.15889023598E+00  0.10434462189E+02  0.47000000000E+01 0.  1.
<mgrwt>
<rscale>  2 0.10433252E+02</rscale>
<asrwt>0</asrwt>
<pdfrwt beam="1">  1       21 0.89884264E-03 0.10433252E+02</pdfrwt>
<pdfrwt beam="2">  1       21 0.67559788E-02 0.10433252E+02</pdfrwt>
<totfact> 0.32027757E+08</totfact>
</mgrwt>
</event>
<event>
 4    1  0.4039863E+006  0.7105882E+01  0.7546771E-02  0.2290450E+00
         21   -1    0    0  501  502  0.00000000000E+00  0.00000000000E+00  0.29308362410E+02  0.29308362410E+02  0.00000000000E+00 0.  1.
         21   -1    0    0  502  503 -0.00000000000E+00 -0.00000000000E+00 -0.56230987345E+01  0.56230987345E+01  0.00000000000E+00 0.  1.
          5    1    1    2  501    0 -0.29197319458E+00  0.53214947387E+01  0.26388703853E+02  0.27328689058E+02  0.47000000000E+01 0.  1.
         -5    1    1    2    0  503  0.29197319458E+00 -0.53214947387E+01 -0.27034401777E+01  0.76027720862E+01  0.47000000000E+01 0.  1.
<mgrwt>
<rscale>  2 0.71058817E+01</rscale>
<asrwt>0</asrwt>
<pdfrwt beam="1">  1       21 0.45089788E-02 0.71058817E+01</pdfrwt>
<pdfrwt beam="2">  1       21 0.86509213E-03 0.71058817E+01</pdfrwt>
<totfact> 0.49965798E+08</totfact>
</mgrwt>
</event>
<event>
 4    1  0.4039863E+006  0.4856318E+01  0.7546771E-02  0.2593292E+00
         21   -1    0    0  503  502  0.00000000000E+00  0.00000000000E+00  0.51786636187E-01  0.51786636187E-01  0.00000000000E+00 0.  1.
         21   -1    0    0  501  503 -0.00000000000E+00 -0.00000000000E+00 -0.65941445280E+03  0.65941445280E+03  0.00000000000E+00 0.  1.
          5    1    1    2  501    0 -0.14594467152E+00  0.12134776635E+01 -0.51308576483E+03  0.51310874666E+03  0.47000000000E+01 0.  1.
         -5    1    1    2    0  502  0.14594467152E+00 -0.12134776635E+01 -0.14627690133E+03  0.14635749277E+03  0.47000000000E+01 0.  1.
<mgrwt>
<rscale>  2 0.48563183E+01</rscale>
<asrwt>0</asrwt>
<pdfrwt beam="1">  1       21 0.79670708E-05 0.48563183E+01</pdfrwt>
<pdfrwt beam="2">  1       21 0.10144970E+00 0.48563183E+01</pdfrwt>
<totfact> 0.11901310E+09</totfact>
</mgrwt>
</event>
<event>
 4    1  0.4039863E+006  0.9532790E+01  0.7546771E-02  0.2102595E+00
         21   -1    0    0  503  502  0.00000000000E+00  0.00000000000E+00  0.73380664327E+02  0.73380664327E+02  0.00000000000E+00 0. -1.
         21   -1    0    0  501  503 -0.00000000000E+00 -0.00000000000E+00 -0.12563925257E+01  0.12563925257E+01  0.00000000000E+00 0.  1.
          5    1    1    2  501    0 -0.27401550441E+01  0.78278754879E+01  0.40528921602E+02  0.41634932095E+02  0.47000000000E+01 0.  1.
         -5    1    1    2    0  502  0.27401550441E+01 -0.78278754879E+01  0.31595350200E+02  0.33002124759E+02  0.47000000000E+01 0. -1.
<mgrwt>
<rscale>  2 0.95327900E+01</rscale>
<asrwt>0</asrwt>
<pdfrwt beam="1">  1       21 0.11289330E-01 0.95327900E+01</pdfrwt>
<pdfrwt beam="2">  1       21 0.19329121E-03 0.95327900E+01</pdfrwt>
<totfact> 0.12064621E+09</totfact>
</mgrwt>
</event>
<event>
 4    1  0.4039863E+006  0.6136236E+01  0.7546771E-02  0.2398023E+00
         21   -1    0    0  501  502  0.00000000000E+00  0.00000000000E+00  0.62563099830E+00  0.62563099830E+00  0.00000000000E+00 0.  1.
         21   -1    0    0  502  503 -0.00000000000E+00 -0.00000000000E+00 -0.64148222815E+02  0.64148222815E+02  0.00000000000E+00 0.  1.
          5    1    1    2  501    0 -0.32998345702E+01 -0.21620550340E+01 -0.23710845289E+02  0.24491990006E+02  0.47000000000E+01 0.  1.
         -5    1    1    2    0  503  0.32998345702E+01  0.21620550340E+01 -0.39811746528E+02  0.40281863807E+02  0.47000000000E+01 0.  1.
<mgrwt>
<rscale>  2 0.61362358E+01</rscale>
<asrwt>0</asrwt>
<pdfrwt beam="1">  1       21 0.96251013E-04 0.61362358E+01</pdfrwt>
<pdfrwt beam="2">  1       21 0.98689482E-02 0.61362358E+01</pdfrwt>
<totfact> 0.28314319E+09</totfact>
</mgrwt>
</event>
<event>
 4    1  0.4039863E+006  0.5273773E+01  0.7546771E-02  0.2520764E+00
         21   -1    0    0  503  502  0.00000000000E+00  0.00000000000E+00  0.66323569666E+00  0.66323569666E+00  0.00000000000E+00 0.  1.
         21   -1    0    0  501  503 -0.00000000000E+00 -0.00000000000E+00 -0.10323107253E+03  0.10323107253E+03  0.00000000000E+00 0.  1.
          5    1    1    2  501    0  0.14821682042E+01 -0.18777262308E+01 -0.91312799921E+02  0.91464966560E+02  0.47000000000E+01 0.  1.
         -5    1    1    2    0  502 -0.14821682042E+01  0.18777262308E+01 -0.11255036917E+02  0.12429341672E+02  0.47000000000E+01 0.  1.
<mgrwt>
<rscale>  2 0.52737727E+01</rscale>
<asrwt>0</asrwt>
<pdfrwt beam="1">  1       21 0.10203622E-03 0.52737727E+01</pdfrwt>
<pdfrwt beam="2">  1       21 0.15881710E-01 0.52737727E+01</pdfrwt>
<totfact> 0.10999621E+09</totfact>
</mgrwt>
</event>
<event>
 4    1  0.4039863E+006  0.8405502E+01  0.7546771E-02  0.2178993E+00
         21   -1    0    0  503  502  0.00000000000E+00  0.00000000000E+00  0.63304735294E+02  0.63304735294E+02  0.00000000000E+00 0. -1.
         21   -1    0    0  501  503 -0.00000000000E+00 -0.00000000000E+00 -0.13202216814E+01  0.13202216814E+01  0.00000000000E+00 0.  1.
          5    1    1    2  501    0  0.61006442116E+01  0.33681754370E+01  0.18285808688E+02  0.20125189812E+02  0.47000000000E+01 0.  1.
         -5    1    1    2    0  502 -0.61006442116E+01 -0.33681754370E+01  0.43698704924E+02  0.44499767163E+02  0.47000000000E+01 0. -1.
<mgrwt>
<rscale>  2 0.84055021E+01</rscale>
<asrwt>0</asrwt>
<pdfrwt beam="1">  1       21 0.97391877E-02 0.84055021E+01</pdfrwt>
<pdfrwt beam="2">  1       21 0.20311108E-03 0.84055021E+01</pdfrwt>
<totfact> 0.13155856E+09</totfact>
</mgrwt>
</event>
<event>
 4    1  0.4039863E+006  0.5983749E+01  0.7546771E-02  0.2417544E+00
         21   -1    0    0  503  502  0.00000000000E+00  0.00000000000E+00  0.19706552313E+02  0.19706552313E+02  0.00000000000E+00 0. -1.
         21   -1    0    0  501  503 -0.00000000000E+00 -0.00000000000E+00 -0.38791155224E+01  0.38791155224E+01  0.00000000000E+00 0. -1.
          5    1    1    2  501    0 -0.12272520343E+01 -0.34941522508E+01 -0.68466184341E+00  0.60227908271E+01  0.47000000000E+01 0. -1.
         -5    1    1    2    0  502  0.12272520343E+01  0.34941522508E+01  0.16512098634E+02  0.17562877008E+02  0.47000000000E+01 0. -1.
<mgrwt>
<rscale>  2 0.59837486E+01</rscale>
<asrwt>0</asrwt>
<pdfrwt beam="1">  1       21 0.30317772E-02 0.59837486E+01</pdfrwt>
<pdfrwt beam="2">  1       21 0.59678702E-03 0.59837486E+01</pdfrwt>
<totfact> 0.13277868E+09</totfact>
</mgrwt>
</event>
<event>
 4    1  0.4039863E+006  0.7627937E+01  0.7546771E-02  0.2241988E+00
         21   -1    0    0  501  502  0.00000000000E+00  0.00000000000E+00  0.22917041045E+03  0.22917041045E+03  0.00000000000E+00 0.  1.
         21   -1    0    0  502  503 -0.00000000000E+00 -0.00000000000E+00 -0.30259351763E+00  0.30259351763E+00  0.00000000000E+00 0. -1.
          5    1    1    2  501    0 -0.58894819205E+01  0.11871917282E+01  0.16046229717E+03  0.16064350044E+03  0.47000000000E+01 0.  1.
         -5    1    1    2    0  503  0.58894819205E+01 -0.11871917282E+01  0.68405519759E+02  0.68829503522E+02  0.47000000000E+01 0. -1.
<mgrwt>
<rscale>  2 0.76279369E+01</rscale>
<asrwt>0</asrwt>
<pdfrwt beam="1">  1       21 0.35256847E-01 0.76279369E+01</pdfrwt>
<pdfrwt beam="2">  1       21 0.46553032E-04 0.76279369E+01</pdfrwt>
<totfact> 0.11142205E+09</totfact>
</mgrwt>
</event>
<event>
 4    1  0.4039863E+006  0.5212931E+01  0.7546771E-02  0.2530712E+00
         21   -1    0    0  501  502  0.00000000000E+00  0.00000000000E+00  0.15316529575E+03  0.15316529575E+03  0.00000000000E+00 0. -1.
         21   -1    0    0  502  503 -0.00000000000E+00 -0.00000000000E+00 -0.70285201500E+00  0.70285201500E+00  0.00000000000E+00 0. -1.
          5    1    1    2  501    0 -0.25758309240E+00 -0.22401553167E+01  0.14275009629E+03  0.14284524716E+03  0.47000000000E+01 0. -1.
         -5    1    1    2    0  503  0.25758309240E+00  0.22401553167E+01  0.97123474443E+01  0.11022900606E+02  0.47000000000E+01 0. -1.
<mgrwt>
<rscale>  2 0.52129305E+01</rscale>
<asrwt>0</asrwt>
<pdfrwt beam="1">  1       21 0.23563865E-01 0.52129305E+01</pdfrwt>
<pdfrwt beam="2">  1       21 0.10813120E-03 0.52129305E+01</pdfrwt>
<totfact> 0.53747550E+08</totfact>
</mgrwt>
</event>
<event>
 4    1  0.4039863E+006  0.5033158E+01  0.7546771E-02  0.2561305E+00
         21   -1    0    0  503  502  0.00000000000E+00  0.00000000000E+00  0.80716479029E+02  0.80716479029E+02  0.00000000000E+00 0. -1.
         21   -1    0    0  501  503 -0.00000000000E+00 -0.00000000000E+00 -0.60841928748E+00  0.60841928748E+00  0.00000000000E+00 0. -1.
          5    1    1    2  501    0  0.99652844660E+00  0.14998688549E+01  0.11760474329E+02  0.12792241085E+02  0.47000000000E+01 0. -1.
         -5    1    1    2    0  502 -0.99652844660E+00 -0.14998688549E+01  0.68347585412E+02  0.68532657231E+02  0.47000000000E+01 0. -1.
<mgrwt>
<rscale>  2 0.50331576E+01</rscale>
<asrwt>0</asrwt>
<pdfrwt beam="1">  1       21 0.12417911E-01 0.50331576E+01</pdfrwt>
<pdfrwt beam="2">  1       21 0.93603031E-04 0.50331576E+01</pdfrwt>
<totfact> 0.17313317E+09</totfact>
</mgrwt>
</event>
<event>
 4    1  0.4039863E+006  0.7317027E+01  0.7546771E-02  0.2270172E+00
         21   -1    0    0  503  502  0.00000000000E+00  0.00000000000E+00  0.28157185823E+01  0.28157185823E+01  0.00000000000E+00 0.  1.
         21   -1    0    0  501  503 -0.00000000000E+00 -0.00000000000E+00 -0.26568142022E+02  0.26568142022E+02  0.00000000000E+00 0. -1.
          5    1    1    2  501    0 -0.55049094138E+00  0.55808457922E+01 -0.19710194314E+02  0.21024524726E+02  0.47000000000E+01 0. -1.
         -5    1    1    2    0  502  0.55049094138E+00 -0.55808457922E+01 -0.40422291257E+01  0.83593358790E+01  0.47000000000E+01 0.  1.
<mgrwt>
<rscale>  2 0.73170267E+01</rscale>
<asrwt>0</asrwt>
<pdfrwt beam="1">  1       21 0.43318746E-03 0.73170267E+01</pdfrwt>
<pdfrwt beam="2">  1       21 0.40874066E-02 0.73170267E+01</pdfrwt>
<totfact> 0.15663183E+09</totfact>
</mgrwt>
</event>
<event>
 4    1  0.4039863E+006  0.1168299E+02  0.7546771E-02  0.1990215E+00
         21   -1    0    0  501  502  0.00000000000E+00  0.00000000000E+00  0.10240708638E+03  0.10240708638E+03  0.00000000000E+00 0. -1.
         21   -1    0    0  502  503 -0.00000000000E+00 -0.00000000000E+00 -0.15399599307E+01  0.15399599307E+01  0.00000000000E+00 0.  1.
          5    1    1    2  501    0  0.57275269903E+01  0.90331380011E+01  0.69494294327E+02  0.70469490501E+02  0.47000000000E+01 0.  1.
         -5    1    1    2    0  503 -0.57275269903E+01 -0.90331380011E+01  0.31372832123E+02  0.33477555809E+02  0.47000000000E+01 0.  1.
<mgrwt>
<rscale>  2 0.11682985E+02</rscale>
<asrwt>0</asrwt>
<pdfrwt beam="1">  1       21 0.15754931E-01 0.11682985E+02</pdfrwt>
<pdfrwt beam="2">  1       21 0.23691699E-03 0.11682985E+02</pdfrwt>
<totfact> 0.58857853E+08</totfact>
</mgrwt>
</event>
<event>
 4    1  0.4039863E+006  0.6246537E+01  0.7546771E-02  0.2384400E+00
         21   -1    0    0  503  502  0.00000000000E+00  0.00000000000E+00  0.46478953999E+00  0.46478953999E+00  0.00000000000E+00 0. -1.
         21   -1    0    0  501  503 -0.00000000000E+00 -0.00000000000E+00 -0.84220014349E+02  0.84220014349E+02  0.00000000000E+00 0.  1.
          5    1    1    2  501    0 -0.37073161838E+01  0.17846652830E+01 -0.44273774285E+02  0.44712261326E+02  0.47000000000E+01 0.  1.
         -5    1    1    2    0  502  0.37073161838E+01 -0.17846652830E+01 -0.39481450525E+02  0.39972542564E+02  0.47000000000E+01 0. -1.
<mgrwt>
<rscale>  2 0.62465369E+01</rscale>
<asrwt>0</asrwt>
<pdfrwt beam="1">  1       21 0.71506121E-04 0.62465369E+01</pdfrwt>
<pdfrwt beam="2">  1       21 0.12956918E-01 0.62465369E+01</pdfrwt>
<totfact> 0.28089002E+09</totfact>
</mgrwt>
</event>
<event>
 4    1  0.4039863E+006  0.7121920E+01  0.7546771E-02  0.2288875E+00
         21   -1    0    0  503  502  0.00000000000E+00  0.00000000000E+00  0.12593993002E+02  0.12593993002E+02  0.00000000000E+00 0.  1.
         21   -1    0    0  501  503 -0.00000000000E+00 -0.00000000000E+00 -0.74506888690E+01  0.74506888690E+01  0.00000000000E+00 0.  1.
          5    1    1    2  501    0 -0.35002647802E+01 -0.40472079125E+01 -0.42217796814E+01  0.82792009939E+01  0.47000000000E+01 0.  1.
         -5    1    1    2    0  502  0.35002647802E+01  0.40472079125E+01  0.93650838143E+01  0.11765480877E+02  0.47000000000E+01 0.  1.
<mgrwt>
<rscale>  2 0.71219201E+01</rscale>
<asrwt>0</asrwt>
<pdfrwt beam="1">  1       21 0.19375374E-02 0.71219201E+01</pdfrwt>
<pdfrwt beam="2">  1       21 0.11462598E-02 0.71219201E+01</pdfrwt>
<totfact> 0.11602904E+09</totfact>
</mgrwt>
</event>
<event>
 4    1  0.4039863E+006  0.5654499E+01  0.7546771E-02  0.2462684E+00
         21   -1    0    0  503  502  0.00000000000E+00  0.00000000000E+00  0.33271792379E+00  0.33271792379E+00  0.00000000000E+00 0.  1.
         21   -1    0    0  501  503 -0.00000000000E+00 -0.00000000000E+00 -0.10728698457E+03  0.10728698457E+03  0.00000000000E+00 0. -1.
          5    1    1    2  501    0  0.25692893090E+00 -0.31332640151E+01 -0.70854885267E+02  0.71080152800E+02  0.47000000000E+01 0. -1.
         -5    1    1    2    0  502 -0.25692893090E+00  0.31332640151E+01 -0.36099381376E+02  0.36539549690E+02  0.47000000000E+01 0.  1.
<mgrwt>
<rscale>  2 0.56544987E+01</rscale>
<asrwt>0</asrwt>
<pdfrwt beam="1">  1       21 0.51187293E-04 0.56544987E+01</pdfrwt>
<pdfrwt beam="2">  1       21 0.16505716E-01 0.56544987E+01</pdfrwt>
<totfact> 0.27586729E+09</totfact>
</mgrwt>
</event>
<event>
 4    1  0.4039863E+006  0.4778422E+01  0.7546771E-02  0.2608029E+00
         21   -1    0    0  501  502  0.00000000000E+00  0.00000000000E+00  0.23015553265E+02  0.23015553265E+02  0.00000000000E+00 0. -1.
         21   -1    0    0  502  503 -0.00000000000E+00 -0.00000000000E+00 -0.85425957323E+01  0.85425957323E+01  0.00000000000E+00 0. -1.
          5    1    1    2  501    0  0.84490599194E+00 -0.17160698391E+00  0.22071044988E+02  0.22582390085E+02  0.47000000000E+01 0. -1.
         -5    1    1    2    0  503 -0.84490599194E+00  0.17160698391E+00 -0.75980874547E+01  0.89757589128E+01  0.47000000000E+01 0. -1.
<mgrwt>
<rscale>  2 0.47784218E+01</rscale>
<asrwt>0</asrwt>
<pdfrwt beam="1">  1       21 0.35408543E-02 0.47784218E+01</pdfrwt>
<pdfrwt beam="2">  1       21 0.13142455E-02 0.47784218E+01</pdfrwt>
<totfact> 0.29001615E+08</totfact>
</mgrwt>
</event>
<event>
 4    1  0.4039863E+006  0.1143108E+02  0.7546771E-02  0.2001659E+00
         21   -1    0    0  503  502  0.00000000000E+00  0.00000000000E+00  0.10480360509E+03  0.10480360509E+03  0.00000000000E+00 0.  1.
         21   -1    0    0  501  503 -0.00000000000E+00 -0.00000000000E+00 -0.17009125719E+01  0.17009125719E+01  0.00000000000E+00 0. -1.
          5    1    1    2  501    0  0.49169539853E+01  0.91871141803E+01  0.24035864610E+02  0.26615639969E+02  0.47000000000E+01 0. -1.
         -5    1    1    2    0  502 -0.49169539853E+01 -0.91871141803E+01  0.79066827914E+02  0.79888877697E+02  0.47000000000E+01 0.  1.
<mgrwt>
<rscale>  2 0.11431076E+02</rscale>
<asrwt>0</asrwt>
<pdfrwt beam="1">  1       21 0.16123627E-01 0.11431076E+02</pdfrwt>
<pdfrwt beam="2">  1       21 0.26167894E-03 0.11431076E+02</pdfrwt>
<totfact> 0.48706219E+08</totfact>
</mgrwt>
</event>
<event>
 4    1  0.4039863E+006  0.4855796E+01  0.7546771E-02  0.2593389E+00
         21   -1    0    0  501  502  0.00000000000E+00  0.00000000000E+00  0.11499356872E+01  0.11499356872E+01  0.00000000000E+00 0.  1.
         21   -1    0    0  502  503 -0.00000000000E+00 -0.00000000000E+00 -0.32730408614E+02  0.32730408614E+02  0.00000000000E+00 0.  1.
          5    1    1    2  501    0 -0.11373227267E+01 -0.44186950755E+00 -0.54368054316E+01  0.72895545095E+01  0.47000000000E+01 0.  1.
         -5    1    1    2    0  503  0.11373227267E+01  0.44186950755E+00 -0.26143667495E+02  0.26590789792E+02  0.47000000000E+01 0.  1.
<mgrwt>
<rscale>  2 0.48557957E+01</rscale>
<asrwt>0</asrwt>
<pdfrwt beam="1">  1       21 0.17691322E-03 0.48557957E+01</pdfrwt>
<pdfrwt beam="2">  1       21 0.50354466E-02 0.48557957E+01</pdfrwt>
<totfact> 0.27529653E+09</totfact>
</mgrwt>
</event>
<event>
 4    1  0.4039863E+006  0.5682798E+01  0.7546771E-02  0.2458632E+00
         21   -1    0    0  501  502  0.00000000000E+00  0.00000000000E+00  0.18995963446E+03  0.18995963446E+03  0.00000000000E+00 0. -1.
         21   -1    0    0  502  503 -0.00000000000E+00 -0.00000000000E+00 -0.17232960548E+00  0.17232960548E+00  0.00000000000E+00 0.  1.
          5    1    1    2  501    0  0.24268987384E+01  0.20771015188E+01  0.10593368538E+03  0.10608600231E+03  0.47000000000E+01 0. -1.
         -5    1    1    2    0  503 -0.24268987384E+01 -0.20771015188E+01  0.83853619476E+02  0.84045961756E+02  0.47000000000E+01 0.  1.
<mgrwt>
<rscale>  2 0.56827976E+01</rscale>
<asrwt>0</asrwt>
<pdfrwt beam="1">  1       21 0.29224392E-01 0.56827976E+01</pdfrwt>
<pdfrwt beam="2">  1       21 0.26512399E-04 0.56827976E+01</pdfrwt>
<totfact> 0.26326861E+09</totfact>
</mgrwt>
</event>
<event>
 4    1  0.4039863E+006  0.7989387E+01  0.7546771E-02  0.2211477E+00
         21   -1    0    0  503  502  0.00000000000E+00  0.00000000000E+00  0.13910472339E+02  0.13910472339E+02  0.00000000000E+00 0.  1.
         21   -1    0    0  501  503 -0.00000000000E+00 -0.00000000000E+00 -0.51432475740E+01  0.51432475740E+01  0.00000000000E+00 0.  1.
          5    1    1    2  501    0  0.63557176335E+01 -0.11598105218E+01  0.12552321201E+01  0.80873923337E+01  0.47000000000E+01 0.  1.
         -5    1    1    2    0  502 -0.63557176335E+01  0.11598105218E+01  0.75119926453E+01  0.10966327580E+02  0.47000000000E+01 0.  1.
<mgrwt>
<rscale>  2 0.79893872E+01</rscale>
<asrwt>0</asrwt>
<pdfrwt beam="1">  1       21 0.21400727E-02 0.79893872E+01</pdfrwt>
<pdfrwt beam="2">  1       21 0.79126886E-03 0.79893872E+01</pdfrwt>
<totfact> 0.18527511E+09</totfact>
</mgrwt>
</event>
<event>
 4    1  0.4039863E+006  0.7816600E+01  0.7546771E-02  0.2225778E+00
         21   -1    0    0  501  502  0.00000000000E+00  0.00000000000E+00  0.21491607627E+02  0.21491607627E+02  0.00000000000E+00 0. -1.
         21   -1    0    0  502  503 -0.00000000000E+00 -0.00000000000E+00 -0.35304391757E+01  0.35304391757E+01  0.00000000000E+00 0. -1.
          5    1    1    2  501    0  0.57807137568E+01 -0.23648650509E+01  0.14501564778E+02  0.16474058980E+02  0.47000000000E+01 0. -1.
         -5    1    1    2    0  503 -0.57807137568E+01  0.23648650509E+01  0.34596036728E+01  0.85479878229E+01  0.47000000000E+01 0. -1.
<mgrwt>
<rscale>  2 0.78166002E+01</rscale>
<asrwt>0</asrwt>
<pdfrwt beam="1">  1       21 0.33064011E-02 0.78166002E+01</pdfrwt>
<pdfrwt beam="2">  1       21 0.54314450E-03 0.78166002E+01</pdfrwt>
<totfact> 0.16387980E+09</totfact>
</mgrwt>
</event>
<event>
 4    1  0.4039863E+006  0.5040800E+01  0.7546771E-02  0.2559966E+00
         21   -1    0    0  501  502  0.00000000000E+00  0.00000000000E+00  0.57481573542E+01  0.57481573542E+01  0.00000000000E+00 0.  1.
         21   -1    0    0  502  503 -0.00000000000E+00 -0.00000000000E+00 -0.78811561467E+01  0.78811561467E+01  0.00000000000E+00 0.  1.
          5    1    1    2  501    0  0.15454153304E+01  0.96506752453E+00  0.34492409451E+01  0.61079396664E+01  0.47000000000E+01 0.  1.
         -5    1    1    2    0  503 -0.15454153304E+01 -0.96506752453E+00 -0.55822397376E+01  0.75213738345E+01  0.47000000000E+01 0.  1.
<mgrwt>
<rscale>  2 0.50407999E+01</rscale>
<asrwt>0</asrwt>
<pdfrwt beam="1">  1       21 0.88433189E-03 0.50407999E+01</pdfrwt>
<pdfrwt beam="2">  1       21 0.12124856E-02 0.50407999E+01</pdfrwt>
<totfact> 0.24245145E+09</totfact>
</mgrwt>
</event>
<event>
 4    1  0.4039863E+006  0.4911319E+01  0.7546771E-02  0.2583130E+00
         21   -1    0    0  503  502  0.00000000000E+00  0.00000000000E+00  0.14758433709E+02  0.14758433709E+02  0.00000000000E+00 0.  1.
         21   -1    0    0  501  503 -0.00000000000E+00 -0.00000000000E+00 -0.16471457483E+01  0.16471457483E+01  0.00000000000E+00 0. -1.
          5    1    1    2  501    0 -0.83276371230E+00 -0.11565270708E+01  0.72774701462E+01  0.87796709502E+01  0.47000000000E+01 0.  1.
         -5    1    1    2    0  502  0.83276371230E+00  0.11565270708E+01  0.58338178150E+01  0.76259085075E+01  0.47000000000E+01 0. -1.
<mgrwt>
<rscale>  2 0.49113186E+01</rscale>
<asrwt>0</asrwt>
<pdfrwt beam="1">  1       21 0.22705282E-02 0.49113186E+01</pdfrwt>
<pdfrwt beam="2">  1       21 0.25340705E-03 0.49113186E+01</pdfrwt>
<totfact> 0.54044384E+09</totfact>
</mgrwt>
</event>
<event>
 4    1  0.4039863E+006  0.8142601E+01  0.7546771E-02  0.2199206E+00
         21   -1    0    0  501  502  0.00000000000E+00  0.00000000000E+00  0.12697155424E+02  0.12697155424E+02  0.00000000000E+00 0.  1.
         21   -1    0    0  502  503 -0.00000000000E+00 -0.00000000000E+00 -0.14625757741E+02  0.14625757741E+02  0.00000000000E+00 0.  1.
          5    1    1    2  501    0  0.66129663838E+01  0.69326915927E+00  0.99902165411E+01  0.12888226141E+02  0.47000000000E+01 0.  1.
         -5    1    1    2    0  503 -0.66129663838E+01 -0.69326915927E+00 -0.11918818858E+02  0.14434687025E+02  0.47000000000E+01 0.  1.
<mgrwt>
<rscale>  2 0.81426007E+01</rscale>
<asrwt>0</asrwt>
<pdfrwt beam="1">  1       21 0.19534085E-02 0.81426007E+01</pdfrwt>
<pdfrwt beam="2">  1       21 0.22501166E-02 0.81426007E+01</pdfrwt>
<totfact> 0.47284344E+08</totfact>
</mgrwt>
</event>
<event>
 4    1  0.4039863E+006  0.5831246E+01  0.7546771E-02  0.2437919E+00
         21   -1    0    0  503  502  0.00000000000E+00  0.00000000000E+00  0.41793303743E+00  0.41793303743E+00  0.00000000000E+00 0. -1.
         21   -1    0    0  501  503 -0.00000000000E+00 -0.00000000000E+00 -0.87518580606E+02  0.87518580606E+02  0.00000000000E+00 0.  1.
          5    1    1    2  501    0 -0.32414219968E+01  0.11860056119E+01 -0.55212945568E+02  0.55520021471E+02  0.47000000000E+01 0.  1.
         -5    1    1    2    0  502  0.32414219968E+01 -0.11860056119E+01 -0.31887702001E+02  0.32416492173E+02  0.47000000000E+01 0. -1.
<mgrwt>
<rscale>  2 0.58312457E+01</rscale>
<asrwt>0</asrwt>
<pdfrwt beam="1">  1       21 0.64297342E-04 0.58312457E+01</pdfrwt>
<pdfrwt beam="2">  1       21 0.13464407E-01 0.58312457E+01</pdfrwt>
<totfact> 0.28778972E+09</totfact>
</mgrwt>
</event>
<event>
 4    1  0.4039863E+006  0.4795830E+01  0.7546771E-02  0.2604700E+00
         21   -1    0    0  501  502  0.00000000000E+00  0.00000000000E+00  0.55365914319E+00  0.55365914319E+00  0.00000000000E+00 0. -1.
         21   -1    0    0  502  503 -0.00000000000E+00 -0.00000000000E+00 -0.82036059784E+02  0.82036059784E+02  0.00000000000E+00 0. -1.
          5    1    1    2  501    0 -0.89673324279E+00 -0.32534775326E+00 -0.11728344443E+02  0.12670992268E+02  0.47000000000E+01 0. -1.
         -5    1    1    2    0  503  0.89673324279E+00  0.32534775326E+00 -0.69754056197E+02  0.69918726659E+02  0.47000000000E+01 0. -1.
<mgrwt>
<rscale>  2 0.47958296E+01</rscale>
<asrwt>0</asrwt>
<pdfrwt beam="1">  1       21 0.85178328E-04 0.47958296E+01</pdfrwt>
<pdfrwt beam="2">  1       21 0.12620932E-01 0.47958296E+01</pdfrwt>
<totfact> 0.18266400E+09</totfact>
</mgrwt>
</event>
<event>
 4    1  0.4039863E+006  0.5058333E+01  0.7546771E-02  0.2556908E+00
         21   -1    0    0  503  502  0.00000000000E+00  0.00000000000E+00  0.31076474334E+02  0.31076474334E+02  0.00000000000E+00 0. -1.
         21   -1    0    0  501  503 -0.00000000000E+00 -0.00000000000E+00 -0.30638177650E+01  0.30638177650E+01  0.00000000000E+00 0. -1.
          5    1    1    2  501    0 -0.13094693801E+01 -0.13349253243E+01 -0.59106703813E+00  0.50927493481E+01  0.47000000000E+01 0. -1.
         -5    1    1    2    0  502  0.13094693801E+01  0.13349253243E+01  0.28603723607E+02  0.29047542751E+02  0.47000000000E+01 0. -1.
<mgrwt>
<rscale>  2 0.50583333E+01</rscale>
<asrwt>0</asrwt>
<pdfrwt beam="1">  1       21 0.47809958E-02 0.50583333E+01</pdfrwt>
<pdfrwt beam="2">  1       21 0.47135660E-03 0.50583333E+01</pdfrwt>
<totfact> 0.81824614E+08</totfact>
</mgrwt>
</event>
<event>
 4    1  0.4039863E+006  0.6828062E+01  0.7546771E-02  0.2318685E+00
         21   -1    0    0  501  502  0.00000000000E+00  0.00000000000E+00  0.10734556522E+02  0.10734556522E+02  0.00000000000E+00 0. -1.
         21   -1    0    0  502  503 -0.00000000000E+00 -0.00000000000E+00 -0.69288843565E+01  0.69288843565E+01  0.00000000000E+00 0. -1.
          5    1    1    2  501    0  0.49175270301E+01  0.59191301789E+00  0.72979494132E+01  0.99941232107E+01  0.47000000000E+01 0. -1.
         -5    1    1    2    0  503 -0.49175270301E+01 -0.59191301789E+00 -0.34922772478E+01  0.76693176677E+01  0.47000000000E+01 0. -1.
<mgrwt>
<rscale>  2 0.68280622E+01</rscale>
<asrwt>0</asrwt>
<pdfrwt beam="1">  1       21 0.16514702E-02 0.68280622E+01</pdfrwt>
<pdfrwt beam="2">  1       21 0.10659822E-02 0.68280622E+01</pdfrwt>
<totfact> 0.15708018E+09</totfact>
</mgrwt>
</event>
<event>
 4    1  0.4039863E+006  0.6682816E+01  0.7546771E-02  0.2334210E+00
         21   -1    0    0  503  502  0.00000000000E+00  0.00000000000E+00  0.67019972742E+02  0.67019972742E+02  0.00000000000E+00 0.  1.
         21   -1    0    0  501  503 -0.00000000000E+00 -0.00000000000E+00 -0.91120461375E+00  0.91120461375E+00  0.00000000000E+00 0. -1.
          5    1    1    2  501    0  0.27495289777E+01 -0.38742901423E+01  0.15448069112E+02  0.16831603399E+02  0.47000000000E+01 0. -1.
         -5    1    1    2    0  502 -0.27495289777E+01  0.38742901423E+01  0.50660699016E+02  0.51099573956E+02  0.47000000000E+01 0.  1.
<mgrwt>
<rscale>  2 0.66828163E+01</rscale>
<asrwt>0</asrwt>
<pdfrwt beam="1">  1       21 0.10310761E-01 0.66828163E+01</pdfrwt>
<pdfrwt beam="2">  1       21 0.14018538E-03 0.66828163E+01</pdfrwt>
<totfact> 0.17048517E+09</totfact>
</mgrwt>
</event>
<event>
 4    1  0.4039863E+006  0.6432621E+01  0.7546771E-02  0.2362303E+00
         21   -1    0    0  501  502  0.00000000000E+00  0.00000000000E+00  0.37384914258E+01  0.37384914258E+01  0.00000000000E+00 0. -1.
         21   -1    0    0  502  503 -0.00000000000E+00 -0.00000000000E+00 -0.17461946574E+02  0.17461946574E+02  0.00000000000E+00 0. -1.
          5    1    1    2  501    0  0.40738087965E+01  0.16409416476E+01 -0.44750437521E+00  0.64481677837E+01  0.47000000000E+01 0. -1.
         -5    1    1    2    0  503 -0.40738087965E+01 -0.16409416476E+01 -0.13275950773E+02  0.14752270216E+02  0.47000000000E+01 0. -1.
<mgrwt>
<rscale>  2 0.64326206E+01</rscale>
<asrwt>0</asrwt>
<pdfrwt beam="1">  1       21 0.57515252E-03 0.64326206E+01</pdfrwt>
<pdfrwt beam="2">  1       21 0.26864533E-02 0.64326206E+01</pdfrwt>
<totfact> 0.17700769E+09</totfact>
</mgrwt>
</event>
<event>
 4    1  0.4039863E+006  0.7080832E+01  0.7546771E-02  0.2292921E+00
         21   -1    0    0  503  502  0.00000000000E+00  0.00000000000E+00  0.19355505243E+01  0.19355505243E+01  0.00000000000E+00 0.  1.
         21   -1    0    0  501  503 -0.00000000000E+00 -0.00000000000E+00 -0.41614956734E+02  0.41614956734E+02  0.00000000000E+00 0. -1.
          5    1    1    2  501    0  0.58006367022E+00  0.52641911912E+01 -0.33219270938E+02  0.33965543488E+02  0.47000000000E+01 0. -1.
         -5    1    1    2    0  502 -0.58006367022E+00 -0.52641911912E+01 -0.64601352719E+01  0.95849637710E+01  0.47000000000E+01 0.  1.
<mgrwt>
<rscale>  2 0.70808321E+01</rscale>
<asrwt>0</asrwt>
<pdfrwt beam="1">  1       21 0.29777703E-03 0.70808321E+01</pdfrwt>
<pdfrwt beam="2">  1       21 0.64023006E-02 0.70808321E+01</pdfrwt>
<totfact> 0.13133846E+09</totfact>
</mgrwt>
</event>
<event>
 4    1  0.4039863E+006  0.1178734E+02  0.7546771E-02  0.1985585E+00
         21   -1    0    0  501  502  0.00000000000E+00  0.00000000000E+00  0.71860082079E+02  0.71860082079E+02  0.00000000000E+00 0. -1.
         21   -1    0    0  502  503 -0.00000000000E+00 -0.00000000000E+00 -0.20689829234E+01  0.20689829234E+01  0.00000000000E+00 0.  1.
          5    1    1    2  501    0 -0.31796764452E+01 -0.10331553134E+02  0.44354698939E+02  0.45894233303E+02  0.47000000000E+01 0.  1.
         -5    1    1    2    0  503  0.31796764452E+01  0.10331553134E+02  0.25436400217E+02  0.28034831700E+02  0.47000000000E+01 0. -1.
<mgrwt>
<rscale>  2 0.11787338E+02</rscale>
<asrwt>0</asrwt>
<pdfrwt beam="1">  1       21 0.11055395E-01 0.11787338E+02</pdfrwt>
<pdfrwt beam="2">  1       21 0.31830512E-03 0.11787338E+02</pdfrwt>
<totfact> 0.69348112E+08</totfact>
</mgrwt>
</event>
<event>
 4    1  0.4039863E+006  0.5240780E+01  0.7546771E-02  0.2526134E+00
         21   -1    0    0  503  502  0.00000000000E+00  0.00000000000E+00  0.17013873751E+00  0.17013873751E+00  0.00000000000E+00 0.  1.
         21   -1    0    0  501  503 -0.00000000000E+00 -0.00000000000E+00 -0.86518412164E+03  0.86518412164E+03  0.00000000000E+00 0.  1.
          5    1    1    2  501    0  0.37708371921E+00  0.22877032558E+01 -0.82273607565E+03  0.82275276721E+03  0.47000000000E+01 0.  1.
         -5    1    1    2    0  502 -0.37708371921E+00 -0.22877032558E+01 -0.42277907251E+02  0.42601493164E+02  0.47000000000E+01 0.  1.
<mgrwt>
<rscale>  2 0.52407803E+01</rscale>
<asrwt>0</asrwt>
<pdfrwt beam="1">  1       21 0.26174333E-04 0.52407803E+01</pdfrwt>
<pdfrwt beam="2">  1       21 0.13310961E+00 0.52407803E+01</pdfrwt>
<totfact> 0.14922867E+08</totfact>
</mgrwt>
</event>
<event>
 4    1  0.4039863E+006  0.1622495E+02  0.7546771E-02  0.1832838E+00
         21   -1    0    0  503  502  0.00000000000E+00  0.00000000000E+00  0.76607153787E+01  0.76607153787E+01  0.00000000000E+00 0.  1.
         21   -1    0    0  501  503 -0.00000000000E+00 -0.00000000000E+00 -0.42811206849E+02  0.42811206849E+02  0.00000000000E+00 0. -1.
          5    1    1    2  501    0  0.70852779131E+01 -0.13818751936E+02 -0.28785366184E+02  0.33043098742E+02  0.47000000000E+01 0. -1.
         -5    1    1    2    0  502 -0.70852779131E+01  0.13818751936E+02 -0.63651252864E+01  0.17428823485E+02  0.47000000000E+01 0.  1.
<mgrwt>
<rscale>  2 0.16224952E+02</rscale>
<asrwt>0</asrwt>
<pdfrwt beam="1">  1       21 0.11785716E-02 0.16224952E+02</pdfrwt>
<pdfrwt beam="2">  1       21 0.65863395E-02 0.16224952E+02</pdfrwt>
<totfact> 0.27241139E+08</totfact>
</mgrwt>
</event>
<event>
 4    1  0.4039863E+006  0.8671320E+01  0.7546771E-02  0.2159560E+00
         21   -1    0    0  501  502  0.00000000000E+00  0.00000000000E+00  0.44591728660E+01  0.44591728660E+01  0.00000000000E+00 0.  1.
         21   -1    0    0  502  503 -0.00000000000E+00 -0.00000000000E+00 -0.19551626405E+02  0.19551626405E+02  0.00000000000E+00 0. -1.
          5    1    1    2  501    0 -0.11988752919E+01 -0.71878011619E+01 -0.30936730942E+01  0.92066606716E+01  0.47000000000E+01 0. -1.
         -5    1    1    2    0  503  0.11988752919E+01  0.71878011619E+01 -0.11998780445E+02  0.14804138600E+02  0.47000000000E+01 0.  1.
<mgrwt>
<rscale>  2 0.86713198E+01</rscale>
<asrwt>0</asrwt>
<pdfrwt beam="1">  1       21 0.68602659E-03 0.86713198E+01</pdfrwt>
<pdfrwt beam="2">  1       21 0.30079425E-02 0.86713198E+01</pdfrwt>
<totfact> 0.14523076E+09</totfact>
</mgrwt>
</event>
<event>
 4    1  0.4039863E+006  0.6774397E+01  0.7546771E-02  0.2324357E+00
         21   -1    0    0  501  502  0.00000000000E+00  0.00000000000E+00  0.27994819599E+02  0.27994819599E+02  0.00000000000E+00 0. -1.
         21   -1    0    0  502  503 -0.00000000000E+00 -0.00000000000E+00 -0.25823383105E+01  0.25823383105E+01  0.00000000000E+00 0. -1.
          5    1    1    2  501    0 -0.44990391297E+01 -0.18870874799E+01  0.21945150736E+02  0.22966978318E+02  0.47000000000E+01 0. -1.
         -5    1    1    2    0  503  0.44990391297E+01  0.18870874799E+01  0.34673305524E+01  0.76101795910E+01  0.47000000000E+01 0. -1.
<mgrwt>
<rscale>  2 0.67743968E+01</rscale>
<asrwt>0</asrwt>
<pdfrwt beam="1">  1       21 0.43068951E-02 0.67743968E+01</pdfrwt>
<pdfrwt beam="2">  1       21 0.39728284E-03 0.67743968E+01</pdfrwt>
<totfact> 0.15436220E+09</totfact>
</mgrwt>
</event>
<event>
 4    1  0.4039863E+006  0.4983023E+01  0.7546771E-02  0.2570174E+00
         21   -1    0    0  501  502  0.00000000000E+00  0.00000000000E+00  0.13824269987E+03  0.13824269987E+03  0.00000000000E+00 0.  1.
         21   -1    0    0  502  503 -0.00000000000E+00 -0.00000000000E+00 -0.38287376363E+00  0.38287376363E+00  0.00000000000E+00 0.  1.
          5    1    1    2  501    0 -0.10599710470E+01 -0.12716061413E+01  0.18427777129E+02  0.19089617354E+02  0.47000000000E+01 0.  1.
         -5    1    1    2    0  503  0.10599710470E+01  0.12716061413E+01  0.11943204898E+03  0.11953595628E+03  0.47000000000E+01 0.  1.
<mgrwt>
<rscale>  2 0.49830233E+01</rscale>
<asrwt>0</asrwt>
<pdfrwt beam="1">  1       21 0.21268068E-01 0.49830233E+01</pdfrwt>
<pdfrwt beam="2">  1       21 0.58903766E-04 0.49830233E+01</pdfrwt>
<totfact> 0.13657084E+09</totfact>
</mgrwt>
</event>
<event>
 4    1  0.4039863E+006  0.5729707E+01  0.7546771E-02  0.2451989E+00
         21   -1    0    0  503  502  0.00000000000E+00  0.00000000000E+00  0.54332152466E+03  0.54332152466E+03  0.00000000000E+00 0. -1.
         21   -1    0    0  501  503 -0.00000000000E+00 -0.00000000000E+00 -0.65650506709E-01  0.65650506709E-01  0.00000000000E+00 0. -1.
          5    1    1    2  501    0  0.55629287380E+00  0.32295626372E+01  0.19496675255E+03  0.19505092704E+03  0.47000000000E+01 0. -1.
         -5    1    1    2    0  502 -0.55629287380E+00 -0.32295626372E+01  0.34828912160E+03  0.34833624813E+03  0.47000000000E+01 0. -1.
<mgrwt>
<rscale>  2 0.57297065E+01</rscale>
<asrwt>0</asrwt>
<pdfrwt beam="1">  1       21 0.83584326E-01 0.57297065E+01</pdfrwt>
<pdfrwt beam="2">  1       21 0.10100513E-04 0.57297065E+01</pdfrwt>
<totfact> 0.14452457E+09</totfact>
</mgrwt>
</event>
<event>
 4    1  0.4039863E+006  0.4824021E+01  0.7546771E-02  0.2599352E+00
         21   -1    0    0  503  502  0.00000000000E+00  0.00000000000E+00  0.60061605557E+00  0.60061605557E+00  0.00000000000E+00 0.  1.
         21   -1    0    0  501  503 -0.00000000000E+00 -0.00000000000E+00 -0.65226120051E+02  0.65226120051E+02  0.00000000000E+00 0.  1.
          5    1    1    2  501    0  0.10866487472E+01 -0.19275041589E-01 -0.53284060264E+02  0.53501983657E+02  0.47000000000E+01 0.  1.
         -5    1    1    2    0  502 -0.10866487472E+01  0.19275041589E-01 -0.11341443731E+02  0.12324752449E+02  0.47000000000E+01 0.  1.
<mgrwt>
<rscale>  2 0.48240208E+01</rscale>
<asrwt>0</asrwt>
<pdfrwt beam="1">  1       21 0.92402419E-04 0.48240208E+01</pdfrwt>
<pdfrwt beam="2">  1       21 0.10034793E-01 0.48240208E+01</pdfrwt>
<totfact> 0.23367377E+09</totfact>
</mgrwt>
</event>
<event>
 4    1  0.4039863E+006  0.6754522E+01  0.7546771E-02  0.2326477E+00
         21   -1    0    0  501  502  0.00000000000E+00  0.00000000000E+00  0.28681988488E+03  0.28681988488E+03  0.00000000000E+00 0.  1.
         21   -1    0    0  502  503 -0.00000000000E+00 -0.00000000000E+00 -0.17062373847E+00  0.17062373847E+00  0.00000000000E+00 0.  1.
          5    1    1    2  501    0  0.24946192096E+01 -0.41605815330E+01  0.18066997184E+03  0.18079618991E+03  0.47000000000E+01 0.  1.
         -5    1    1    2    0  503 -0.24946192096E+01  0.41605815330E+01  0.10597928930E+03  0.10619431870E+03  0.47000000000E+01 0.  1.
<mgrwt>
<rscale>  2 0.67545217E+01</rscale>
<asrwt>0</asrwt>
<pdfrwt beam="1">  1       21 0.44125750E-01 0.67545217E+01</pdfrwt>
<pdfrwt beam="2">  1       21 0.26250035E-04 0.67545217E+01</pdfrwt>
<totfact> 0.14948202E+09</totfact>
</mgrwt>
</event>
<event>
 4    1  0.4039863E+006  0.1181014E+02  0.7546771E-02  0.1984582E+00
         21   -1    0    0  501  502  0.00000000000E+00  0.00000000000E+00  0.13016766107E+03  0.13016766107E+03  0.00000000000E+00 0. -1.
         21   -1    0    0  502  503 -0.00000000000E+00 -0.00000000000E+00 -0.10715361107E+01  0.10715361107E+01  0.00000000000E+00 0. -1.
          5    1    1    2  501    0 -0.10825222345E+02 -0.45155631673E+00  0.64563143773E+02  0.65634433613E+02  0.47000000000E+01 0. -1.
         -5    1    1    2    0  503  0.10825222345E+02  0.45155631673E+00  0.64532981188E+02  0.65604763569E+02  0.47000000000E+01 0. -1.
<mgrwt>
<rscale>  2 0.11810137E+02</rscale>
<asrwt>0</asrwt>
<pdfrwt beam="1">  1       21 0.20025781E-01 0.11810137E+02</pdfrwt>
<pdfrwt beam="2">  1       21 0.16485181E-03 0.11810137E+02</pdfrwt>
<totfact> 0.66018165E+08</totfact>
</mgrwt>
</event>
<event>
 4    1  0.4039863E+006  0.7191604E+01  0.7546771E-02  0.2282100E+00
         21   -1    0    0  503  502  0.00000000000E+00  0.00000000000E+00  0.20362772046E+03  0.20362772046E+03  0.00000000000E+00 0.  1.
         21   -1    0    0  501  503 -0.00000000000E+00 -0.00000000000E+00 -0.25411292610E+00  0.25411292610E+00  0.00000000000E+00 0. -1.
          5    1    1    2  501    0  0.29453074306E+01  0.45775896604E+01  0.10393971683E+03  0.10418821382E+03  0.47000000000E+01 0.  1.
         -5    1    1    2    0  502 -0.29453074306E+01 -0.45775896604E+01  0.99433890703E+02  0.99693619572E+02  0.47000000000E+01 0.  1.
<mgrwt>
<rscale>  2 0.71916036E+01</rscale>
<asrwt>0</asrwt>
<pdfrwt beam="1">  1       21 0.31327211E-01 0.71916036E+01</pdfrwt>
<pdfrwt beam="2">  1       21 0.39094459E-04 0.71916036E+01</pdfrwt>
<totfact> 0.16636662E+09</totfact>
</mgrwt>
</event>
<event>
 4    1  0.4039863E+006  0.6061871E+01  0.7546771E-02  0.2407440E+00
         21   -1    0    0  501  502  0.00000000000E+00  0.00000000000E+00  0.10188936552E+01  0.10188936552E+01  0.00000000000E+00 0. -1.
         21   -1    0    0  502  503 -0.00000000000E+00 -0.00000000000E+00 -0.51142979315E+02  0.51142979315E+02  0.00000000000E+00 0.  1.
          5    1    1    2  501    0  0.16804327135E+01 -0.34398298244E+01 -0.10900734274E+02  0.12472862183E+02  0.47000000000E+01 0. -1.
         -5    1    1    2    0  503 -0.16804327135E+01  0.34398298244E+01 -0.39223351386E+02  0.39689010788E+02  0.47000000000E+01 0.  1.
<mgrwt>
<rscale>  2 0.60618713E+01</rscale>
<asrwt>0</asrwt>
<pdfrwt beam="1">  1       21 0.15675285E-03 0.60618713E+01</pdfrwt>
<pdfrwt beam="2">  1       21 0.78681517E-02 0.60618713E+01</pdfrwt>
<totfact> 0.20502986E+09</totfact>
</mgrwt>
</event>
<event>
 4    1  0.4039863E+006  0.7118027E+01  0.7546771E-02  0.2289257E+00
         21   -1    0    0  501  502  0.00000000000E+00  0.00000000000E+00  0.27285704246E+02  0.27285704246E+02  0.00000000000E+00 0.  1.
         21   -1    0    0  502  503 -0.00000000000E+00 -0.00000000000E+00 -0.19304377660E+01  0.19304377660E+01  0.00000000000E+00 0.  1.
          5    1    1    2  501    0 -0.53297636415E+01  0.41221839899E+00  0.15529153246E+02  0.17082766317E+02  0.47000000000E+01 0.  1.
         -5    1    1    2    0  503  0.53297636415E+01 -0.41221839899E+00  0.98261132335E+01  0.12133375695E+02  0.47000000000E+01 0.  1.
<mgrwt>
<rscale>  2 0.71180267E+01</rscale>
<asrwt>0</asrwt>
<pdfrwt beam="1">  1       21 0.41978004E-02 0.71180267E+01</pdfrwt>
<pdfrwt beam="2">  1       21 0.29699045E-03 0.71180267E+01</pdfrwt>
<totfact> 0.24949427E+09</totfact>
</mgrwt>
</event>
<event>
 4    1  0.4039863E+006  0.7870185E+01  0.7546771E-02  0.2221289E+00
         21   -1    0    0  503  502  0.00000000000E+00  0.00000000000E+00  0.91458651997E+01  0.91458651997E+01  0.00000000000E+00 0.  1.
         21   -1    0    0  501  503 -0.00000000000E+00 -0.00000000000E+00 -0.10037795275E+02  0.10037795275E+02  0.00000000000E+00 0. -1.
          5    1    1    2  501    0 -0.63113903695E+01  0.12711271318E+00 -0.59167250315E+01  0.98461891682E+01  0.47000000000E+01 0. -1.
         -5    1    1    2    0  502  0.63113903695E+01 -0.12711271318E+00  0.50247949565E+01  0.93374713061E+01  0.47000000000E+01 0.  1.
<mgrwt>
<rscale>  2 0.78701846E+01</rscale>
<asrwt>0</asrwt>
<pdfrwt beam="1">  1       21 0.14070562E-02 0.78701846E+01</pdfrwt>
<pdfrwt beam="2">  1       21 0.15442762E-02 0.78701846E+01</pdfrwt>
<totfact> 0.12904998E+09</totfact>
</mgrwt>
</event>
<event>
 4    1  0.4039863E+006  0.4835766E+01  0.7546771E-02  0.2597140E+00
         21   -1    0    0  501  502  0.00000000000E+00  0.00000000000E+00  0.27130934077E+03  0.27130934077E+03  0.00000000000E+00 0.  1.
         21   -1    0    0  502  503 -0.00000000000E+00 -0.00000000000E+00 -0.11199231121E+00  0.11199231121E+00  0.00000000000E+00 0.  1.
          5    1    1    2  501    0  0.93555317962E+00 -0.64758730310E+00  0.20073666948E+03  0.20079490806E+03  0.47000000000E+01 0.  1.
         -5    1    1    2    0  503 -0.93555317962E+00  0.64758730310E+00  0.70460678985E+02  0.70626425027E+02  0.47000000000E+01 0.  1.
<mgrwt>
<rscale>  2 0.48357656E+01</rscale>
<asrwt>0</asrwt>
<pdfrwt beam="1">  1       21 0.41739372E-01 0.48357656E+01</pdfrwt>
<pdfrwt beam="2">  1       21 0.17229804E-04 0.48357656E+01</pdfrwt>
<totfact> 0.22112091E+09</totfact>
</mgrwt>
</event>
<event>
 4    1  0.4039863E+006  0.7360568E+01  0.7546771E-02  0.2266109E+00
         21   -1    0    0  503  502  0.00000000000E+00  0.00000000000E+00  0.46155833059E+02  0.46155833059E+02  0.00000000000E+00 0. -1.
         21   -1    0    0  501  503 -0.00000000000E+00 -0.00000000000E+00 -0.34830900883E+01  0.34830900883E+01  0.00000000000E+00 0. -1.
          5    1    1    2  501    0  0.98349433345E+00 -0.55785926480E+01  0.11271883943E+01  0.74463756763E+01  0.47000000000E+01 0. -1.
         -5    1    1    2    0  502 -0.98349433345E+00  0.55785926480E+01  0.41545554577E+02  0.42192547471E+02  0.47000000000E+01 0. -1.
<mgrwt>
<rscale>  2 0.73605677E+01</rscale>
<asrwt>0</asrwt>
<pdfrwt beam="1">  1       21 0.71008970E-02 0.73605677E+01</pdfrwt>
<pdfrwt beam="2">  1       21 0.53586005E-03 0.73605677E+01</pdfrwt>
<totfact> 0.50725764E+08</totfact>
</mgrwt>
</event>
<event>
 4    1  0.4039863E+006  0.5753556E+01  0.7546771E-02  0.2448646E+00
         21   -1    0    0  503  502  0.00000000000E+00  0.00000000000E+00  0.23050245345E+01  0.23050245345E+01  0.00000000000E+00 0. -1.
         21   -1    0    0  501  503 -0.00000000000E+00 -0.00000000000E+00 -0.38260526091E+02  0.38260526091E+02  0.00000000000E+00 0. -1.
          5    1    1    2  501    0 -0.52489873208E+00  0.32768720967E+01 -0.34008093325E+02  0.34491358643E+02  0.47000000000E+01 0. -1.
         -5    1    1    2    0  502  0.52489873208E+00 -0.32768720967E+01 -0.19474082305E+01  0.60741919819E+01  0.47000000000E+01 0. -1.
<mgrwt>
<rscale>  2 0.57535562E+01</rscale>
<asrwt>0</asrwt>
<pdfrwt beam="1">  1       21 0.35461917E-03 0.57535562E+01</pdfrwt>
<pdfrwt beam="2">  1       21 0.58862346E-02 0.57535562E+01</pdfrwt>
<totfact> 0.99625919E+08</totfact>
</mgrwt>
</event>
<event>
 4    1  0.4039863E+006  0.5528888E+01  0.7546771E-02  0.2481094E+00
         21   -1    0    0  503  502  0.00000000000E+00  0.00000000000E+00  0.40752869420E+02  0.40752869420E+02  0.00000000000E+00 0.  1.
         21   -1    0    0  501  503 -0.00000000000E+00 -0.00000000000E+00 -0.78039042451E+00  0.78039042451E+00  0.00000000000E+00 0. -1.
          5    1    1    2  501    0 -0.23332233209E+01  0.17420311735E+01  0.15894721250E+02  0.16828867083E+02  0.47000000000E+01 0.  1.
         -5    1    1    2    0  502  0.23332233209E+01 -0.17420311735E+01  0.24077757746E+02  0.24704392762E+02  0.47000000000E+01 0.  1.
<mgrwt>
<rscale>  2 0.55288881E+01</rscale>
<asrwt>0</asrwt>
<pdfrwt beam="1">  1       21 0.62696706E-02 0.55288881E+01</pdfrwt>
<pdfrwt beam="2">  1       21 0.12006010E-03 0.55288881E+01</pdfrwt>
<totfact> 0.38090886E+09</totfact>
</mgrwt>
</event>
<event>
 4    1  0.4039863E+006  0.5581894E+01  0.7546771E-02  0.2473240E+00
         21   -1    0    0  503  502  0.00000000000E+00  0.00000000000E+00  0.48353426324E+00  0.48353426324E+00  0.00000000000E+00 0. -1.
         21   -1    0    0  501  503 -0.00000000000E+00 -0.00000000000E+00 -0.17642392705E+03  0.17642392705E+03  0.00000000000E+00 0. -1.
          5    1    1    2  501    0  0.29779615524E+01 -0.44641995911E+00 -0.15844289165E+03  0.15854118538E+03  0.47000000000E+01 0. -1.
         -5    1    1    2    0  502 -0.29779615524E+01  0.44641995911E+00 -0.17497501131E+02  0.18366275932E+02  0.47000000000E+01 0. -1.
<mgrwt>
<rscale>  2 0.55818945E+01</rscale>
<asrwt>0</asrwt>
<pdfrwt beam="1">  1       21 0.74389902E-04 0.55818945E+01</pdfrwt>
<pdfrwt beam="2">  1       21 0.27142137E-01 0.55818945E+01</pdfrwt>
<totfact> 0.74206397E+08</totfact>
</mgrwt>
</event>
<event>
 4    1  0.4039863E+006  0.4843681E+01  0.7546771E-02  0.2595655E+00
         21   -1    0    0  501  502  0.00000000000E+00  0.00000000000E+00  0.26586209994E+01  0.26586209994E+01  0.00000000000E+00 0. -1.
         21   -1    0    0  502  503 -0.00000000000E+00 -0.00000000000E+00 -0.23492037802E+02  0.23492037802E+02  0.00000000000E+00 0. -1.
          5    1    1    2  501    0 -0.45153130596E+00  0.10804476815E+01 -0.85062158125E-01  0.48444280657E+01  0.47000000000E+01 0. -1.
         -5    1    1    2    0  503  0.45153130596E+00 -0.10804476815E+01 -0.20748354645E+02  0.21306230736E+02  0.47000000000E+01 0. -1.
<mgrwt>
<rscale>  2 0.48436812E+01</rscale>
<asrwt>0</asrwt>
<pdfrwt beam="1">  1       21 0.40901860E-03 0.48436812E+01</pdfrwt>
<pdfrwt beam="2">  1       21 0.36141598E-02 0.48436812E+01</pdfrwt>
<totfact> 0.14303227E+09</totfact>
</mgrwt>
</event>
<event>
 4    1  0.4039863E+006  0.5882798E+01  0.7546771E-02  0.2430932E+00
         21   -1    0    0  501  502  0.00000000000E+00  0.00000000000E+00  0.11743241378E+01  0.11743241378E+01  0.00000000000E+00 0. -1.
         21   -1    0    0  502  503 -0.00000000000E+00 -0.00000000000E+00 -0.31710428493E+02  0.31710428493E+02  0.00000000000E+00 0.  1.
          5    1    1    2  501    0 -0.10438190420E+01  0.33804958754E+01 -0.10897554739E+02  0.12384022361E+02  0.47000000000E+01 0. -1.
         -5    1    1    2    0  503  0.10438190420E+01 -0.33804958754E+01 -0.19638549616E+02  0.20500730269E+02  0.47000000000E+01 0.  1.
<mgrwt>
<rscale>  2 0.58827979E+01</rscale>
<asrwt>0</asrwt>
<pdfrwt beam="1">  1       21 0.18066526E-03 0.58827979E+01</pdfrwt>
<pdfrwt beam="2">  1       21 0.48785272E-02 0.58827979E+01</pdfrwt>
<totfact> 0.33697744E+09</totfact>
</mgrwt>
</event>
<event>
 4    1  0.4039863E+006  0.8462259E+01  0.7546771E-02  0.2174762E+00
         21   -1    0    0  503  502  0.00000000000E+00  0.00000000000E+00  0.20868333245E+00  0.20868333245E+00  0.00000000000E+00 0.  1.
         21   -1    0    0  501  503 -0.00000000000E+00 -0.00000000000E+00 -0.92073185956E+03  0.92073185956E+03  0.00000000000E+00 0. -1.
          5    1    1    2  501    0  0.17290748873E+00  0.70349074890E+01 -0.82496643971E+03  0.82500984023E+03  0.47000000000E+01 0. -1.
         -5    1    1    2    0  502 -0.17290748873E+00 -0.70349074890E+01 -0.95556736520E+02  0.95930702670E+02  0.47000000000E+01 0.  1.
<mgrwt>
<rscale>  2 0.84622586E+01</rscale>
<asrwt>0</asrwt>
<pdfrwt beam="1">  1       21 0.32104853E-04 0.84622586E+01</pdfrwt>
<pdfrwt beam="2">  1       21 0.14165227E+00 0.84622586E+01</pdfrwt>
<totfact> 0.12904520E+08</totfact>
</mgrwt>
</event>
<event>
 4    1  0.4039863E+006  0.9703544E+01  0.7546771E-02  0.2092263E+00
         21   -1    0    0  503  502  0.00000000000E+00  0.00000000000E+00  0.32097846198E+01  0.32097846198E+01  0.00000000000E+00 0. -1.
         21   -1    0    0  501  503 -0.00000000000E+00 -0.00000000000E+00 -0.29959556040E+02  0.29959556040E+02  0.00000000000E+00 0.  1.
          5    1    1    2  501    0  0.62653912552E+01 -0.57283187127E+01 -0.15769601594E+02  0.18515914703E+02  0.47000000000E+01 0. -1.
         -5    1    1    2    0  502 -0.62653912552E+01  0.57283187127E+01 -0.10980169826E+02  0.14653425956E+02  0.47000000000E+01 0. -1.
<mgrwt>
<rscale>  2 0.97035438E+01</rscale>
<asrwt>0</asrwt>
<pdfrwt beam="1">  1       21 0.49381303E-03 0.97035438E+01</pdfrwt>
<pdfrwt beam="2">  1       21 0.46091624E-02 0.97035438E+01</pdfrwt>
<totfact> 0.13112113E+09</totfact>
</mgrwt>
</event>
<event>
 4    1  0.4039863E+006  0.8274123E+01  0.7546771E-02  0.2188965E+00
         21   -1    0    0  503  502  0.00000000000E+00  0.00000000000E+00  0.16372362983E+02  0.16372362983E+02  0.00000000000E+00 0.  1.
         21   -1    0    0  501  503 -0.00000000000E+00 -0.00000000000E+00 -0.79505909176E+01  0.79505909176E+01  0.00000000000E+00 0. -1.
          5    1    1    2  501    0  0.18838846402E+01  0.65438588253E+01 -0.41625684489E+01  0.92621857979E+01  0.47000000000E+01 0. -1.
         -5    1    1    2    0  502 -0.18838846402E+01 -0.65438588253E+01  0.12584340514E+02  0.15060768102E+02  0.47000000000E+01 0.  1.
<mgrwt>
<rscale>  2 0.82741229E+01</rscale>
<asrwt>0</asrwt>
<pdfrwt beam="1">  1       21 0.25188251E-02 0.82741229E+01</pdfrwt>
<pdfrwt beam="2">  1       21 0.12231678E-02 0.82741229E+01</pdfrwt>
<totfact> 0.79874416E+08</totfact>
</mgrwt>
</event>
<event>
 4    1  0.4039863E+006  0.4915544E+01  0.7546771E-02  0.2582358E+00
         21   -1    0    0  501  502  0.00000000000E+00  0.00000000000E+00  0.35145723950E+01  0.35145723950E+01  0.00000000000E+00 0. -1.
         21   -1    0    0  502  503 -0.00000000000E+00 -0.00000000000E+00 -0.16146727564E+02  0.16146727564E+02  0.00000000000E+00 0. -1.
          5    1    1    2  501    0  0.48963078130E+00 -0.13538210031E+01  0.11333186633E+01  0.50445000548E+01  0.47000000000E+01 0. -1.
         -5    1    1    2    0  503 -0.48963078130E+00  0.13538210031E+01 -0.13765473832E+02  0.14616799904E+02  0.47000000000E+01 0. -1.
<mgrwt>
<rscale>  2 0.49155437E+01</rscale>
<asrwt>0</asrwt>
<pdfrwt beam="1">  1       21 0.54070344E-03 0.49155437E+01</pdfrwt>
<pdfrwt beam="2">  1       21 0.24841120E-02 0.49155437E+01</pdfrwt>
<totfact> 0.16944986E+09</totfact>
</mgrwt>
</event>
<event>
 4    1  0.4039863E+006  0.8979835E+01  0.7546771E-02  0.2138164E+00
         21   -1    0    0  503  502  0.00000000000E+00  0.00000000000E+00  0.67397423366E+01  0.67397423366E+01  0.00000000000E+00 0. -1.
         21   -1    0    0  501  503 -0.00000000000E+00 -0.00000000000E+00 -0.13779155142E+02  0.13779155142E+02  0.00000000000E+00 0.  1.
          5    1    1    2  501    0  0.60463130433E+01 -0.46893010307E+01 -0.72428806521E+01  0.11536757158E+02  0.47000000000E+01 0.  1.
         -5    1    1    2    0  502 -0.60463130433E+01  0.46893010307E+01  0.20346784700E+00  0.89821403206E+01  0.47000000000E+01 0.  1.
<mgrwt>
<rscale>  2 0.89798355E+01</rscale>
<asrwt>0</asrwt>
<pdfrwt beam="1">  1       21 0.10368834E-02 0.89798355E+01</pdfrwt>
<pdfrwt beam="2">  1       21 0.21198700E-02 0.89798355E+01</pdfrwt>
<totfact> 0.13784056E+09</totfact>
</mgrwt>
</event>
<event>
 4    1  0.4039863E+006  0.4746642E+01  0.7546771E-02  0.2614162E+00
         21   -1    0    0  501  502  0.00000000000E+00  0.00000000000E+00  0.85869472856E-01  0.85869472856E-01  0.00000000000E+00 0. -1.
         21   -1    0    0  502  503 -0.00000000000E+00 -0.00000000000E+00 -0.51315195135E+03  0.51315195135E+03  0.00000000000E+00 0. -1.
          5    1    1    2  501    0 -0.42921988456E-01 -0.66239853185E+00 -0.77140942341E+02  0.77286839755E+02  0.47000000000E+01 0. -1.
         -5    1    1    2    0  503  0.42921988456E-01  0.66239853185E+00 -0.43592513953E+03  0.43595098106E+03  0.47000000000E+01 0. -1.
<mgrwt>
<rscale>  2 0.47466424E+01</rscale>
<asrwt>0</asrwt>
<pdfrwt beam="1">  1       21 0.13210620E-04 0.47466424E+01</pdfrwt>
<pdfrwt beam="2">  1       21 0.78946859E-01 0.47466424E+01</pdfrwt>
<totfact> 0.97457306E+08</totfact>
</mgrwt>
</event>
<event>
 4    1  0.4039863E+006  0.7559337E+01  0.7546771E-02  0.2248045E+00
         21   -1    0    0  501  502  0.00000000000E+00  0.00000000000E+00  0.94327667246E+01  0.94327667246E+01  0.00000000000E+00 0. -1.
         21   -1    0    0  502  503 -0.00000000000E+00 -0.00000000000E+00 -0.62136741950E+01  0.62136741950E+01  0.00000000000E+00 0.  1.
          5    1    1    2  501    0  0.15958289526E+01 -0.57014824682E+01  0.28478826572E+01  0.80779952965E+01  0.47000000000E+01 0. -1.
         -5    1    1    2    0  503 -0.15958289526E+01  0.57014824682E+01  0.37120987236E+00  0.75684456231E+01  0.47000000000E+01 0.  1.
<mgrwt>
<rscale>  2 0.75593368E+01</rscale>
<asrwt>0</asrwt>
<pdfrwt beam="1">  1       21 0.14511949E-02 0.75593368E+01</pdfrwt>
<pdfrwt beam="2">  1       21 0.95594987E-03 0.75593368E+01</pdfrwt>
<totfact> 0.23891892E+09</totfact>
</mgrwt>
</event>
<event>
 4    1  0.4039863E+006  0.7576974E+01  0.7546771E-02  0.2246479E+00
         21   -1    0    0  503  502  0.00000000000E+00  0.00000000000E+00  0.25232485642E+01  0.25232485642E+01  0.00000000000E+00 0.  1.
         21   -1    0    0  501  503 -0.00000000000E+00 -0.00000000000E+00 -0.68582136011E+02  0.68582136011E+02  0.00000000000E+00 0. -1.
          5    1    1    2  501    0  0.43350130661E+01  0.40654877186E+01 -0.62092387486E+02  0.62552978446E+02  0.47000000000E+01 0. -1.
         -5    1    1    2    0  502 -0.43350130661E+01 -0.40654877186E+01 -0.39664999610E+01  0.85524061300E+01  0.47000000000E+01 0.  1.
<mgrwt>
<rscale>  2 0.75769736E+01</rscale>
<asrwt>0</asrwt>
<pdfrwt beam="1">  1       21 0.38819210E-03 0.75769736E+01</pdfrwt>
<pdfrwt beam="2">  1       21 0.10551098E-01 0.75769736E+01</pdfrwt>
<totfact> 0.44052474E+08</totfact>
</mgrwt>
</event>
<event>
 4    1  0.4039863E+006  0.6720862E+01  0.7546771E-02  0.2330090E+00
         21   -1    0    0  501  502  0.00000000000E+00  0.00000000000E+00  0.26892874254E+02  0.26892874254E+02  0.00000000000E+00 0.  1.
         21   -1    0    0  502  503 -0.00000000000E+00 -0.00000000000E+00 -0.26141337276E+01  0.26141337276E+01  0.00000000000E+00 0. -1.
          5    1    1    2  501    0 -0.38458384581E+01  0.28791513635E+01  0.20960467215E+02  0.22011614477E+02  0.47000000000E+01 0.  1.
         -5    1    1    2    0  503  0.38458384581E+01 -0.28791513635E+01  0.33182733118E+01  0.74953935048E+01  0.47000000000E+01 0. -1.
<mgrwt>
<rscale>  2 0.67208620E+01</rscale>
<asrwt>0</asrwt>
<pdfrwt beam="1">  1       21 0.41373651E-02 0.67208620E+01</pdfrwt>
<pdfrwt beam="2">  1       21 0.40217444E-03 0.67208620E+01</pdfrwt>
<totfact> 0.16010392E+09</totfact>
</mgrwt>
</event>
<event>
 4    1  0.4039863E+006  0.5801148E+01  0.7546771E-02  0.2442046E+00
         21   -1    0    0  503  502  0.00000000000E+00  0.00000000000E+00  0.97129932350E+01  0.97129932350E+01  0.00000000000E+00 0. -1.
         21   -1    0    0  501  503 -0.00000000000E+00 -0.00000000000E+00 -0.62500802562E+01  0.62500802562E+01  0.00000000000E+00 0. -1.
          5    1    1    2  501    0  0.15982290177E+01  0.30014968085E+01 -0.35967403009E+01  0.68256765142E+01  0.47000000000E+01 0. -1.
         -5    1    1    2    0  502 -0.15982290177E+01 -0.30014968085E+01  0.70596532798E+01  0.91373969770E+01  0.47000000000E+01 0. -1.
<mgrwt>
<rscale>  2 0.58011481E+01</rscale>
<asrwt>0</asrwt>
<pdfrwt beam="1">  1       21 0.14943067E-02 0.58011481E+01</pdfrwt>
<pdfrwt beam="2">  1       21 0.96155081E-03 0.58011481E+01</pdfrwt>
<totfact> 0.18328799E+09</totfact>
</mgrwt>
</event>
<event>
 4    1  0.4039863E+006  0.5367847E+01  0.7546771E-02  0.2505762E+00
         21   -1    0    0  503  502  0.00000000000E+00  0.00000000000E+00  0.18043107620E+03  0.18043107620E+03  0.00000000000E+00 0. -1.
         21   -1    0    0  501  503 -0.00000000000E+00 -0.00000000000E+00 -0.16559832091E+00  0.16559832091E+00  0.00000000000E+00 0.  1.
          5    1    1    2  501    0 -0.10667902548E+00 -0.25908302873E+01  0.73082426537E+02  0.73279293463E+02  0.47000000000E+01 0.  1.
         -5    1    1    2    0  502  0.10667902548E+00  0.25908302873E+01  0.10718305134E+03  0.10731738106E+03  0.47000000000E+01 0. -1.
<mgrwt>
<rscale>  2 0.53678471E+01</rscale>
<asrwt>0</asrwt>
<pdfrwt beam="1">  1       21 0.27758470E-01 0.53678471E+01</pdfrwt>
<pdfrwt beam="2">  1       21 0.25476809E-04 0.53678471E+01</pdfrwt>
<totfact> 0.28796636E+09</totfact>
</mgrwt>
</event>
<event>
 4    1  0.4039863E+006  0.5615399E+01  0.7546771E-02  0.2468340E+00
         21   -1    0    0  503  502  0.00000000000E+00  0.00000000000E+00  0.16689897018E+01  0.16689897018E+01  0.00000000000E+00 0.  1.
         21   -1    0    0  501  503 -0.00000000000E+00 -0.00000000000E+00 -0.16565575555E+03  0.16565575555E+03  0.00000000000E+00 0. -1.
          5    1    1    2  501    0 -0.20428663584E+01 -0.22955178165E+01 -0.16074045459E+03  0.16083851046E+03  0.47000000000E+01 0. -1.
         -5    1    1    2    0  502  0.20428663584E+01  0.22955178165E+01 -0.32463112592E+01  0.64862347935E+01  0.47000000000E+01 0.  1.
<mgrwt>
<rscale>  2 0.56153989E+01</rscale>
<asrwt>0</asrwt>
<pdfrwt beam="1">  1       21 0.25676765E-03 0.56153989E+01</pdfrwt>
<pdfrwt beam="2">  1       21 0.25485501E-01 0.56153989E+01</pdfrwt>
<totfact> 0.15599813E+08</totfact>
</mgrwt>
</event>
<event>
 4    1  0.4039863E+006  0.1027086E+02  0.7546771E-02  0.2059893E+00
         21   -1    0    0  503  502  0.00000000000E+00  0.00000000000E+00  0.33618758080E+02  0.33618758080E+02  0.00000000000E+00 0.  1.
         21   -1    0    0  501  503 -0.00000000000E+00 -0.00000000000E+00 -0.68745790045E+01  0.68745790045E+01  0.00000000000E+00 0. -1.
          5    1    1    2  501    0 -0.88851770001E+01  0.21104802860E+01 -0.15550479517E+01  0.10387909871E+02  0.47000000000E+01 0. -1.
         -5    1    1    2    0  502  0.88851770001E+01 -0.21104802860E+01  0.28299227027E+02  0.30105427214E+02  0.47000000000E+01 0.  1.
<mgrwt>
<rscale>  2 0.10270857E+02</rscale>
<asrwt>0</asrwt>
<pdfrwt beam="1">  1       21 0.51721165E-02 0.10270857E+02</pdfrwt>
<pdfrwt beam="2">  1       21 0.10576276E-02 0.10270857E+02</pdfrwt>
<totfact> 0.37910413E+08</totfact>
</mgrwt>
</event>
<event>
 4    1  0.4039863E+006  0.8959206E+01  0.7546771E-02  0.2139558E+00
         21   -1    0    0  503  502  0.00000000000E+00  0.00000000000E+00  0.33255880573E+00  0.33255880573E+00  0.00000000000E+00 0. -1.
         21   -1    0    0  501  503 -0.00000000000E+00 -0.00000000000E+00 -0.39838088077E+03  0.39838088077E+03  0.00000000000E+00 0. -1.
          5    1    1    2  501    0  0.64842000987E+01  0.40165311039E+01 -0.32418148417E+03  0.32430526059E+03  0.47000000000E+01 0. -1.
         -5    1    1    2    0  502 -0.64842000987E+01 -0.40165311039E+01 -0.73866837802E+02  0.74408178985E+02  0.47000000000E+01 0. -1.
<mgrwt>
<rscale>  2 0.89592060E+01</rscale>
<asrwt>0</asrwt>
<pdfrwt beam="1">  1       21 0.51162855E-04 0.89592060E+01</pdfrwt>
<pdfrwt beam="2">  1       21 0.61289413E-01 0.89592060E+01</pdfrwt>
<totfact> 0.39222297E+08</totfact>
</mgrwt>
</event>
<event>
 4    1  0.4039863E+006  0.5146609E+01  0.7546771E-02  0.2541785E+00
         21   -1    0    0  501  502  0.00000000000E+00  0.00000000000E+00  0.13515810211E+03  0.13515810211E+03  0.00000000000E+00 0. -1.
         21   -1    0    0  502  503 -0.00000000000E+00 -0.00000000000E+00 -0.45103017118E+00  0.45103017118E+00  0.00000000000E+00 0.  1.
          5    1    1    2  501    0 -0.20539000280E+01 -0.42317640457E+00  0.11834216925E+03  0.11845402740E+03  0.47000000000E+01 0. -1.
         -5    1    1    2    0  503  0.20539000280E+01  0.42317640457E+00  0.16364902686E+02  0.17155104882E+02  0.47000000000E+01 0.  1.
<mgrwt>
<rscale>  2 0.51466089E+01</rscale>
<asrwt>0</asrwt>
<pdfrwt beam="1">  1       21 0.20793522E-01 0.51466089E+01</pdfrwt>
<pdfrwt beam="2">  1       21 0.69389365E-04 0.51466089E+01</pdfrwt>
<totfact> 0.11732180E+09</totfact>
</mgrwt>
</event>
<event>
 4    1  0.4039863E+006  0.6708066E+01  0.7546771E-02  0.2331471E+00
         21   -1    0    0  501  502  0.00000000000E+00  0.00000000000E+00  0.97486311586E-01  0.97486311586E-01  0.00000000000E+00 0.  1.
         21   -1    0    0  502  503 -0.00000000000E+00 -0.00000000000E+00 -0.51319249210E+03  0.51319249210E+03  0.00000000000E+00 0.  1.
          5    1    1    2  501    0  0.46973604414E+01  0.91812464019E+00 -0.17516105555E+03  0.17528945641E+03  0.47000000000E+01 0.  1.
         -5    1    1    2    0  503 -0.46973604414E+01 -0.91812464019E+00 -0.33793395023E+03  0.33800052199E+03  0.47000000000E+01 0.  1.
<mgrwt>
<rscale>  2 0.67080659E+01</rscale>
<asrwt>0</asrwt>
<pdfrwt beam="1">  1       21 0.14997436E-04 0.67080659E+01</pdfrwt>
<pdfrwt beam="2">  1       21 0.78955100E-01 0.67080659E+01</pdfrwt>
<totfact> 0.10631981E+09</totfact>
</mgrwt>
</event>
<event>
 4    1  0.4039863E+006  0.6342570E+01  0.7546771E-02  0.2372862E+00
         21   -1    0    0  503  502  0.00000000000E+00  0.00000000000E+00  0.43087082163E+02  0.43087082163E+02  0.00000000000E+00 0.  1.
         21   -1    0    0  501  503 -0.00000000000E+00 -0.00000000000E+00 -0.95335792991E+00  0.95335792991E+00  0.00000000000E+00 0.  1.
          5    1    1    2  501    0  0.38963678995E+01  0.17194496385E+01  0.24233005901E+02  0.25049286714E+02  0.47000000000E+01 0.  1.
         -5    1    1    2    0  502 -0.38963678995E+01 -0.17194496385E+01  0.17900718332E+02  0.18991153379E+02  0.47000000000E+01 0.  1.
<mgrwt>
<rscale>  2 0.63425697E+01</rscale>
<asrwt>0</asrwt>
<pdfrwt beam="1">  1       21 0.66287804E-02 0.63425697E+01</pdfrwt>
<pdfrwt beam="2">  1       21 0.14667048E-03 0.63425697E+01</pdfrwt>
<totfact> 0.30197945E+09</totfact>
</mgrwt>
</event>
<event>
 4    1  0.4039863E+006  0.5463549E+01  0.7546771E-02  0.2490954E+00
         21   -1    0    0  501  502  0.00000000000E+00  0.00000000000E+00  0.39388462630E+02  0.39388462630E+02  0.00000000000E+00 0. -1.
         21   -1    0    0  502  503 -0.00000000000E+00 -0.00000000000E+00 -0.19285681423E+01  0.19285681423E+01  0.00000000000E+00 0. -1.
          5    1    1    2  501    0 -0.26943241377E+01  0.70780413204E+00  0.34825601043E+02  0.35251565316E+02  0.47000000000E+01 0. -1.
         -5    1    1    2    0  503  0.26943241377E+01 -0.70780413204E+00  0.26342934452E+01  0.60654654565E+01  0.47000000000E+01 0. -1.
<mgrwt>
<rscale>  2 0.54635491E+01</rscale>
<asrwt>0</asrwt>
<pdfrwt beam="1">  1       21 0.60597629E-02 0.54635491E+01</pdfrwt>
<pdfrwt beam="2">  1       21 0.29670282E-03 0.54635491E+01</pdfrwt>
<totfact> 0.11665193E+09</totfact>
</mgrwt>
</event>
<event>
 4    1  0.4039863E+006  0.4801066E+01  0.7546771E-02  0.2603702E+00
         21   -1    0    0  501  502  0.00000000000E+00  0.00000000000E+00  0.14079354036E+02  0.14079354036E+02  0.00000000000E+00 0.  1.
         21   -1    0    0  502  503 -0.00000000000E+00 -0.00000000000E+00 -0.32415731813E+01  0.32415731813E+01  0.00000000000E+00 0.  1.
          5    1    1    2  501    0 -0.24380425632E-02  0.97991072156E+00  0.11511742144E+02  0.12472787906E+02  0.47000000000E+01 0.  1.
         -5    1    1    2    0  503  0.24380425632E-02 -0.97991072156E+00 -0.67396128869E+00  0.48481393116E+01  0.47000000000E+01 0.  1.
<mgrwt>
<rscale>  2 0.48010656E+01</rscale>
<asrwt>0</asrwt>
<pdfrwt beam="1">  1       21 0.21660544E-02 0.48010656E+01</pdfrwt>
<pdfrwt beam="2">  1       21 0.49870358E-03 0.48010656E+01</pdfrwt>
<totfact> 0.22458480E+09</totfact>
</mgrwt>
</event>
<event>
 4    1  0.4039863E+006  0.5485693E+01  0.7546771E-02  0.2487590E+00
         21   -1    0    0  503  502  0.00000000000E+00  0.00000000000E+00  0.67579289341E+02  0.67579289341E+02  0.00000000000E+00 0.  1.
         21   -1    0    0  501  503 -0.00000000000E+00 -0.00000000000E+00 -0.49767918019E+00  0.49767918019E+00  0.00000000000E+00 0.  1.
          5    1    1    2  501    0 -0.23045760612E+01 -0.16406576931E+01  0.22497759222E+02  0.23156899588E+02  0.47000000000E+01 0.  1.
         -5    1    1    2    0  502  0.23045760612E+01  0.16406576931E+01  0.44583850939E+02  0.44920068934E+02  0.47000000000E+01 0.  1.
<mgrwt>
<rscale>  2 0.54856931E+01</rscale>
<asrwt>0</asrwt>
<pdfrwt beam="1">  1       21 0.10396806E-01 0.54856931E+01</pdfrwt>
<pdfrwt beam="2">  1       21 0.76566081E-04 0.54856931E+01</pdfrwt>
<totfact> 0.32193236E+09</totfact>
</mgrwt>
</event>
<event>
 4    1  0.4039863E+006  0.6273944E+01  0.7546771E-02  0.2381077E+00
         21   -1    0    0  501  502  0.00000000000E+00  0.00000000000E+00  0.37722504473E+01  0.37722504473E+01  0.00000000000E+00 0.  1.
         21   -1    0    0  502  503 -0.00000000000E+00 -0.00000000000E+00 -0.11349161924E+02  0.11349161924E+02  0.00000000000E+00 0.  1.
          5    1    1    2  501    0  0.11915376901E+01 -0.39815342638E+01 -0.59345981206E+01  0.86360773511E+01  0.47000000000E+01 0.  1.
         -5    1    1    2    0  503 -0.11915376901E+01  0.39815342638E+01 -0.16423133556E+01  0.64853350198E+01  0.47000000000E+01 0.  1.
<mgrwt>
<rscale>  2 0.62739443E+01</rscale>
<asrwt>0</asrwt>
<pdfrwt beam="1">  1       21 0.58034622E-03 0.62739443E+01</pdfrwt>
<pdfrwt beam="2">  1       21 0.17460249E-02 0.62739443E+01</pdfrwt>
<totfact> 0.31896336E+09</totfact>
</mgrwt>
</event>
<event>
 4    1  0.4039863E+006  0.5884542E+01  0.7546771E-02  0.2430697E+00
         21   -1    0    0  503  502  0.00000000000E+00  0.00000000000E+00  0.10878344145E+03  0.10878344145E+03  0.00000000000E+00 0. -1.
         21   -1    0    0  501  503 -0.00000000000E+00 -0.00000000000E+00 -0.33885843650E+00  0.33885843650E+00  0.00000000000E+00 0. -1.
          5    1    1    2  501    0 -0.10413008791E+01 -0.33843065743E+01  0.40789433901E+02  0.41211718679E+02  0.47000000000E+01 0. -1.
         -5    1    1    2    0  502  0.10413008791E+01  0.33843065743E+01  0.67655149113E+02  0.67910581208E+02  0.47000000000E+01 0. -1.
<mgrwt>
<rscale>  2 0.58845423E+01</rscale>
<asrwt>0</asrwt>
<pdfrwt beam="1">  1       21 0.16735886E-01 0.58845423E+01</pdfrwt>
<pdfrwt beam="2">  1       21 0.52132154E-04 0.58845423E+01</pdfrwt>
<totfact> 0.27251537E+09</totfact>
</mgrwt>
</event>
<event>
 4    1  0.4039863E+006  0.5763560E+01  0.7546771E-02  0.2447251E+00
         21   -1    0    0  501  502  0.00000000000E+00  0.00000000000E+00  0.21861924306E+04  0.21861924306E+04  0.00000000000E+00 0.  1.
         21   -1    0    0  502  503 -0.00000000000E+00 -0.00000000000E+00 -0.15372533153E-01  0.15372533153E-01  0.00000000000E+00 0.  1.
          5    1    1    2  501    0  0.99434783463E+00  0.31843200115E+01  0.12106455272E+04  0.12106592465E+04  0.47000000000E+01 0.  1.
         -5    1    1    2    0  503 -0.99434783463E+00 -0.31843200115E+01  0.97553153084E+03  0.97554855660E+03  0.47000000000E+01 0.  1.
<mgrwt>
<rscale>  2 0.57635598E+01</rscale>
<asrwt>0</asrwt>
<pdfrwt beam="1">  1       21 0.33608846E+00 0.57635598E+01</pdfrwt>
<pdfrwt beam="2">  1       21 0.23667561E-05 0.57635598E+01</pdfrwt>
<totfact> 0.46514602E+08</totfact>
</mgrwt>
</event>
<event>
 4    1  0.4039863E+006  0.4726215E+01  0.7546771E-02  0.2618142E+00
         21   -1    0    0  503  502  0.00000000000E+00  0.00000000000E+00  0.80786808479E+03  0.80786808479E+03  0.00000000000E+00 0.  1.
         21   -1    0    0  501  503 -0.00000000000E+00 -0.00000000000E+00 -0.79587662171E-01  0.79587662171E-01  0.00000000000E+00 0.  1.
          5    1    1    2  501    0  0.26601174625E+00  0.41993321292E+00  0.77551570348E+02  0.77695451408E+02  0.47000000000E+01 0.  1.
         -5    1    1    2    0  502 -0.26601174625E+00 -0.41993321292E+00  0.73023692678E+03  0.73025222105E+03  0.47000000000E+01 0.  1.
<mgrwt>
<rscale>  2 0.47262148E+01</rscale>
<asrwt>0</asrwt>
<pdfrwt beam="1">  1       21 0.12428083E+00 0.47262148E+01</pdfrwt>
<pdfrwt beam="2">  1       21 0.12244903E-04 0.47262148E+01</pdfrwt>
<totfact> 0.43642559E+08</totfact>
</mgrwt>
</event>
<event>
 4    1  0.4039863E+006  0.5389319E+01  0.7546771E-02  0.2502401E+00
         21   -1    0    0  501  502  0.00000000000E+00  0.00000000000E+00  0.12418712192E+01  0.12418712192E+01  0.00000000000E+00 0.  1.
         21   -1    0    0  502  503 -0.00000000000E+00 -0.00000000000E+00 -0.51488198600E+02  0.51488198600E+02  0.00000000000E+00 0. -1.
          5    1    1    2  501    0 -0.25273665464E+01  0.75311394688E+00 -0.56458098314E+01  0.78051220957E+01  0.47000000000E+01 0.  1.
         -5    1    1    2    0  503  0.25273665464E+01 -0.75311394688E+00 -0.44600517550E+02  0.44924947724E+02  0.47000000000E+01 0. -1.
<mgrwt>
<rscale>  2 0.53893193E+01</rscale>
<asrwt>0</asrwt>
<pdfrwt beam="1">  1       21 0.19105707E-03 0.53893193E+01</pdfrwt>
<pdfrwt beam="2">  1       21 0.79212631E-02 0.53893193E+01</pdfrwt>
<totfact> 0.14042908E+09</totfact>
</mgrwt>
</event>
<event>
 4    1  0.4039863E+006  0.5978432E+01  0.7546771E-02  0.2418239E+00
         21   -1    0    0  503  502  0.00000000000E+00  0.00000000000E+00  0.55336730913E+01  0.55336730913E+01  0.00000000000E+00 0. -1.
         21   -1    0    0  501  503 -0.00000000000E+00 -0.00000000000E+00 -0.64711953864E+01  0.64711953864E+01  0.00000000000E+00 0.  1.
          5    1    1    2  501    0 -0.59032797846E+00 -0.36473496559E+01 -0.73000698374E+00  0.60228362780E+01  0.47000000000E+01 0.  1.
         -5    1    1    2    0  502  0.59032797846E+00  0.36473496559E+01 -0.20751531137E+00  0.59820321998E+01  0.47000000000E+01 0. -1.
<mgrwt>
<rscale>  2 0.59784318E+01</rscale>
<asrwt>0</asrwt>
<pdfrwt beam="1">  1       21 0.85133432E-03 0.59784318E+01</pdfrwt>
<pdfrwt beam="2">  1       21 0.99556852E-03 0.59784318E+01</pdfrwt>
<totfact> 0.39712133E+09</totfact>
</mgrwt>
</event>
<event>
 4    1  0.4039863E+006  0.6477800E+01  0.7546771E-02  0.2357097E+00
         21   -1    0    0  503  502  0.00000000000E+00  0.00000000000E+00  0.17759361969E+01  0.17759361969E+01  0.00000000000E+00 0.  1.
         21   -1    0    0  501  503 -0.00000000000E+00 -0.00000000000E+00 -0.26928438892E+02  0.26928438892E+02  0.00000000000E+00 0. -1.
          5    1    1    2  501    0 -0.43412872759E+01 -0.10124785583E+01 -0.17600786126E+02  0.18754987611E+02  0.47000000000E+01 0. -1.
         -5    1    1    2    0  502  0.43412872759E+01  0.10124785583E+01 -0.75517165691E+01  0.99493874778E+01  0.47000000000E+01 0.  1.
<mgrwt>
<rscale>  2 0.64777996E+01</rscale>
<asrwt>0</asrwt>
<pdfrwt beam="1">  1       21 0.27322098E-03 0.64777996E+01</pdfrwt>
<pdfrwt beam="2">  1       21 0.41428363E-02 0.64777996E+01</pdfrwt>
<totfact> 0.26497294E+09</totfact>
</mgrwt>
</event>
<event>
 4    1  0.4039863E+006  0.5935978E+01  0.7546771E-02  0.2423831E+00
         21   -1    0    0  501  502  0.00000000000E+00  0.00000000000E+00  0.11963567545E+02  0.11963567545E+02  0.00000000000E+00 0. -1.
         21   -1    0    0  502  503 -0.00000000000E+00 -0.00000000000E+00 -0.43669020492E+01  0.43669020492E+01  0.00000000000E+00 0. -1.
          5    1    1    2  501    0 -0.27841183393E+01 -0.23226110299E+01  0.84571623631E+01  0.10332445604E+02  0.47000000000E+01 0. -1.
         -5    1    1    2    0  503  0.27841183393E+01  0.23226110299E+01 -0.86049686761E+00  0.59980239898E+01  0.47000000000E+01 0. -1.
<mgrwt>
<rscale>  2 0.59359782E+01</rscale>
<asrwt>0</asrwt>
<pdfrwt beam="1">  1       21 0.18405488E-02 0.59359782E+01</pdfrwt>
<pdfrwt beam="2">  1       21 0.67183109E-03 0.59359782E+01</pdfrwt>
<totfact> 0.22964473E+09</totfact>
</mgrwt>
</event>
<event>
 4    1  0.4039863E+006  0.1312480E+02  0.7546771E-02  0.1931341E+00
         21   -1    0    0  501  502  0.00000000000E+00  0.00000000000E+00  0.12949470682E+02  0.12949470682E+02  0.00000000000E+00 0. -1.
         21   -1    0    0  502  503 -0.00000000000E+00 -0.00000000000E+00 -0.36533978827E+02  0.36533978827E+02  0.00000000000E+00 0.  1.
          5    1    1    2  501    0  0.19600579176E+01  0.12096634419E+02  0.79374182031E+01  0.15338285401E+02  0.47000000000E+01 0. -1.
         -5    1    1    2    0  503 -0.19600579176E+01 -0.12096634419E+02 -0.31521926348E+02  0.34145164108E+02  0.47000000000E+01 0.  1.
<mgrwt>
<rscale>  2 0.13124801E+02</rscale>
<asrwt>0</asrwt>
<pdfrwt beam="1">  1       21 0.19922263E-02 0.13124801E+02</pdfrwt>
<pdfrwt beam="2">  1       21 0.56206121E-02 0.13124801E+02</pdfrwt>
<totfact> 0.14668303E+08</totfact>
</mgrwt>
</event>
<event>
 4    1  0.4039863E+006  0.5959840E+01  0.7546771E-02  0.2420680E+00
         21   -1    0    0  503  502  0.00000000000E+00  0.00000000000E+00  0.15162430309E+03  0.15162430309E+03  0.00000000000E+00 0. -1.
         21   -1    0    0  501  503 -0.00000000000E+00 -0.00000000000E+00 -0.26910806206E+00  0.26910806206E+00  0.00000000000E+00 0. -1.
          5    1    1    2  501    0 -0.35672755602E+01  0.83918801709E+00  0.48348366435E+02  0.48714312356E+02  0.47000000000E+01 0. -1.
         -5    1    1    2    0  502  0.35672755602E+01 -0.83918801709E+00  0.10300682859E+03  0.10317909879E+03  0.47000000000E+01 0. -1.
<mgrwt>
<rscale>  2 0.59598399E+01</rscale>
<asrwt>0</asrwt>
<pdfrwt beam="1">  1       21 0.23326748E-01 0.59598399E+01</pdfrwt>
<pdfrwt beam="2">  1       21 0.41401361E-04 0.59598399E+01</pdfrwt>
<totfact> 0.21936643E+09</totfact>
</mgrwt>
</event>
<event>
 4    1  0.4039863E+006  0.5754019E+01  0.7546771E-02  0.2448582E+00
         21   -1    0    0  503  502  0.00000000000E+00  0.00000000000E+00  0.27611787857E+00  0.27611787857E+00  0.00000000000E+00 0. -1.
         21   -1    0    0  501  503 -0.00000000000E+00 -0.00000000000E+00 -0.17841353766E+03  0.17841353766E+03  0.00000000000E+00 0.  1.
          5    1    1    2  501    0 -0.31502273065E+01 -0.10463295672E+01 -0.14023148200E+03  0.14034948265E+03  0.47000000000E+01 0.  1.
         -5    1    1    2    0  502  0.31502273065E+01  0.10463295672E+01 -0.37905937786E+02  0.38340172888E+02  0.47000000000E+01 0. -1.
<mgrwt>
<rscale>  2 0.57540193E+01</rscale>
<asrwt>0</asrwt>
<pdfrwt beam="1">  1       21 0.42479784E-04 0.57540193E+01</pdfrwt>
<pdfrwt beam="2">  1       21 0.27448165E-01 0.57540193E+01</pdfrwt>
<totfact> 0.15753846E+09</totfact>
</mgrwt>
</event>
<event>
 4    1  0.4039863E+006  0.5462664E+01  0.7546771E-02  0.2491089E+00
         21   -1    0    0  501  502  0.00000000000E+00  0.00000000000E+00  0.72187745265E+00  0.72187745265E+00  0.00000000000E+00 0.  1.
         21   -1    0    0  502  503 -0.00000000000E+00 -0.00000000000E+00 -0.84008024371E+02  0.84008024371E+02  0.00000000000E+00 0.  1.
          5    1    1    2  501    0  0.13557975097E+01  0.24315665212E+01 -0.11449838054E+02  0.12686193050E+02  0.47000000000E+01 0.  1.
         -5    1    1    2    0  503 -0.13557975097E+01 -0.24315665212E+01 -0.71836308865E+02  0.72043708774E+02  0.47000000000E+01 0.  1.
<mgrwt>
<rscale>  2 0.54626644E+01</rscale>
<asrwt>0</asrwt>
<pdfrwt beam="1">  1       21 0.11105808E-03 0.54626644E+01</pdfrwt>
<pdfrwt beam="2">  1       21 0.12924310E-01 0.54626644E+01</pdfrwt>
<totfact> 0.13967112E+09</totfact>
</mgrwt>
</event>
<event>
 4    1  0.4039863E+006  0.5887799E+01  0.7546771E-02  0.2430259E+00
         21   -1    0    0  503  502  0.00000000000E+00  0.00000000000E+00  0.18298453670E+01  0.18298453670E+01  0.00000000000E+00 0.  1.
         21   -1    0    0  501  503 -0.00000000000E+00 -0.00000000000E+00 -0.21747570369E+02  0.21747570369E+02  0.00000000000E+00 0. -1.
          5    1    1    2  501    0 -0.34295971546E+01  0.90224470549E+00 -0.14190896885E+02  0.15363845110E+02  0.47000000000E+01 0. -1.
         -5    1    1    2    0  502  0.34295971546E+01 -0.90224470549E+00 -0.57268281169E+01  0.82135706262E+01  0.47000000000E+01 0. -1.
<mgrwt>
<rscale>  2 0.58877994E+01</rscale>
<asrwt>0</asrwt>
<pdfrwt beam="1">  1       21 0.28151467E-03 0.58877994E+01</pdfrwt>
<pdfrwt beam="2">  1       21 0.33457801E-02 0.58877994E+01</pdfrwt>
<totfact> 0.32046097E+09</totfact>
</mgrwt>
</event>
<event>
 4    1  0.4039863E+006  0.2255862E+02  0.7546771E-02  0.1698766E+00
         21   -1    0    0  501  502  0.00000000000E+00  0.00000000000E+00  0.64868082697E+02  0.64868082697E+02  0.00000000000E+00 0. -1.
         21   -1    0    0  502  503 -0.00000000000E+00 -0.00000000000E+00 -0.15323268397E+02  0.15323268397E+02  0.00000000000E+00 0.  1.
          5    1    1    2  501    0  0.16179049600E+02  0.15001318673E+02  0.52782971743E+02  0.57401509683E+02  0.47000000000E+01 0. -1.
         -5    1    1    2    0  503 -0.16179049600E+02 -0.15001318673E+02 -0.32381574426E+01  0.22789841411E+02  0.47000000000E+01 0.  1.
<mgrwt>
<rscale>  2 0.22558617E+02</rscale>
<asrwt>0</asrwt>
<pdfrwt beam="1">  1       21 0.99797049E-02 0.22558617E+02</pdfrwt>
<pdfrwt beam="2">  1       21 0.23574259E-02 0.22558617E+02</pdfrwt>
<totfact> 0.54041342E+07</totfact>
</mgrwt>
</event>
<event>
 4    1  0.4039863E+006  0.7007344E+01  0.7546771E-02  0.2300254E+00
         21   -1    0    0  503  502  0.00000000000E+00  0.00000000000E+00  0.20979583566E+02  0.20979583566E+02  0.00000000000E+00 0. -1.
         21   -1    0    0  501  503 -0.00000000000E+00 -0.00000000000E+00 -0.28306401277E+01  0.28306401277E+01  0.00000000000E+00 0.  1.
          5    1    1    2  501    0  0.14165849329E+01 -0.50006160379E+01  0.41205637143E+01  0.81290786043E+01  0.47000000000E+01 0.  1.
         -5    1    1    2    0  502 -0.14165849329E+01  0.50006160379E+01  0.14028379724E+02  0.15681145089E+02  0.47000000000E+01 0. -1.
<mgrwt>
<rscale>  2 0.70073443E+01</rscale>
<asrwt>0</asrwt>
<pdfrwt beam="1">  1       21 0.32276281E-02 0.70073443E+01</pdfrwt>
<pdfrwt beam="2">  1       21 0.43548311E-03 0.70073443E+01</pdfrwt>
<totfact> 0.21353571E+09</totfact>
</mgrwt>
</event>
<event>
 4    1  0.4039863E+006  0.6330026E+01  0.7546771E-02  0.2374352E+00
         21   -1    0    0  503  502  0.00000000000E+00  0.00000000000E+00  0.32543926884E+01  0.32543926884E+01  0.00000000000E+00 0.  1.
         21   -1    0    0  501  503 -0.00000000000E+00 -0.00000000000E+00 -0.20550962368E+02  0.20550962368E+02  0.00000000000E+00 0.  1.
          5    1    1    2  501    0 -0.41420176657E+01 -0.90714787982E+00 -0.16184539639E+02  0.17378393221E+02  0.47000000000E+01 0.  1.
         -5    1    1    2    0  502  0.41420176657E+01  0.90714787982E+00 -0.11120300404E+01  0.64269618351E+01  0.47000000000E+01 0.  1.
<mgrwt>
<rscale>  2 0.63300259E+01</rscale>
<asrwt>0</asrwt>
<pdfrwt beam="1">  1       21 0.50067581E-03 0.63300259E+01</pdfrwt>
<pdfrwt beam="2">  1       21 0.31616864E-02 0.63300259E+01</pdfrwt>
<totfact> 0.16716149E+09</totfact>
</mgrwt>
</event>
<event>
 4    1  0.4039863E+006  0.6220153E+01  0.7546771E-02  0.2387622E+00
         21   -1    0    0  503  502  0.00000000000E+00  0.00000000000E+00  0.21849448422E+01  0.21849448422E+01  0.00000000000E+00 0.  1.
         21   -1    0    0  501  503 -0.00000000000E+00 -0.00000000000E+00 -0.17724880983E+02  0.17724880983E+02  0.00000000000E+00 0.  1.
          5    1    1    2  501    0 -0.38170803116E+01  0.14248497096E+01 -0.74598315197E+01  0.97128463955E+01  0.47000000000E+01 0.  1.
         -5    1    1    2    0  502  0.38170803116E+01 -0.14248497096E+01 -0.80801046210E+01  0.10196979430E+02  0.47000000000E+01 0.  1.
<mgrwt>
<rscale>  2 0.62201526E+01</rscale>
<asrwt>0</asrwt>
<pdfrwt beam="1">  1       21 0.33614537E-03 0.62201526E+01</pdfrwt>
<pdfrwt beam="2">  1       21 0.27269047E-02 0.62201526E+01</pdfrwt>
<totfact> 0.35501465E+09</totfact>
</mgrwt>
</event>
<event>
 4    1  0.4039863E+006  0.6722535E+01  0.7546771E-02  0.2329910E+00
         21   -1    0    0  501  502  0.00000000000E+00  0.00000000000E+00  0.87135517083E+01  0.87135517083E+01  0.00000000000E+00 0.  1.
         21   -1    0    0  502  503 -0.00000000000E+00 -0.00000000000E+00 -0.94827560823E+01  0.94827560823E+01  0.00000000000E+00 0.  1.
          5    1    1    2  501    0 -0.50050387661E+00 -0.47803739431E+01  0.57393689937E+01  0.88392780029E+01  0.47000000000E+01 0.  1.
         -5    1    1    2    0  503  0.50050387661E+00  0.47803739431E+01 -0.65085733677E+01  0.93570297878E+01  0.47000000000E+01 0.  1.
<mgrwt>
<rscale>  2 0.67225352E+01</rscale>
<asrwt>0</asrwt>
<pdfrwt beam="1">  1       21 0.13405464E-02 0.67225352E+01</pdfrwt>
<pdfrwt beam="2">  1       21 0.14588855E-02 0.67225352E+01</pdfrwt>
<totfact> 0.13373636E+09</totfact>
</mgrwt>
</event>
<event>
 4    1  0.4039863E+006  0.1147767E+02  0.7546771E-02  0.1999513E+00
         21   -1    0    0  503  502  0.00000000000E+00  0.00000000000E+00  0.20250083180E+02  0.20250083180E+02  0.00000000000E+00 0. -1.
         21   -1    0    0  501  503 -0.00000000000E+00 -0.00000000000E+00 -0.11378783707E+02  0.11378783707E+02  0.00000000000E+00 0.  1.
          5    1    1    2  501    0 -0.34698522146E+00  0.10465488425E+02 -0.59137870711E+01  0.12911611992E+02  0.47000000000E+01 0.  1.
         -5    1    1    2    0  502  0.34698522146E+00 -0.10465488425E+02  0.14785086544E+02  0.18717254896E+02  0.47000000000E+01 0. -1.
<mgrwt>
<rscale>  2 0.11477667E+02</rscale>
<asrwt>0</asrwt>
<pdfrwt beam="1">  1       21 0.31153974E-02 0.11477667E+02</pdfrwt>
<pdfrwt beam="2">  1       21 0.17505821E-02 0.11477667E+02</pdfrwt>
<totfact> 0.41455943E+08</totfact>
</mgrwt>
</event>
<event>
 4    1  0.4039863E+006  0.6110533E+01  0.7546771E-02  0.2401256E+00
         21   -1    0    0  501  502  0.00000000000E+00  0.00000000000E+00  0.61944719514E+02  0.61944719514E+02  0.00000000000E+00 0. -1.
         21   -1    0    0  502  503 -0.00000000000E+00 -0.00000000000E+00 -0.70657153562E+00  0.70657153562E+00  0.00000000000E+00 0.  1.
          5    1    1    2  501    0  0.25028613224E+01 -0.29973824205E+01  0.42625594760E+02  0.43061350940E+02  0.47000000000E+01 0. -1.
         -5    1    1    2    0  503 -0.25028613224E+01  0.29973824205E+01  0.18612553219E+02  0.19589940109E+02  0.47000000000E+01 0.  1.
<mgrwt>
<rscale>  2 0.61105332E+01</rscale>
<asrwt>0</asrwt>
<pdfrwt beam="1">  1       21 0.95299526E-02 0.61105332E+01</pdfrwt>
<pdfrwt beam="2">  1       21 0.10870336E-03 0.61105332E+01</pdfrwt>
<totfact> 0.25272325E+09</totfact>
</mgrwt>
</event>
<event>
 4    1  0.4039863E+006  0.5337925E+01  0.7546771E-02  0.2510485E+00
         21   -1    0    0  503  502  0.00000000000E+00  0.00000000000E+00  0.17315833989E+02  0.17315833989E+02  0.00000000000E+00 0. -1.
         21   -1    0    0  501  503 -0.00000000000E+00 -0.00000000000E+00 -0.18441048116E+01  0.18441048116E+01  0.00000000000E+00 0.  1.
          5    1    1    2  501    0  0.24604986580E+01 -0.59109324587E+00  0.45920925496E+01  0.70413605827E+01  0.47000000000E+01 0.  1.
         -5    1    1    2    0  502 -0.24604986580E+01  0.59109324587E+00  0.10879636628E+02  0.12118578218E+02  0.47000000000E+01 0. -1.
<mgrwt>
<rscale>  2 0.53379251E+01</rscale>
<asrwt>0</asrwt>
<pdfrwt beam="1">  1       21 0.26639743E-02 0.53379251E+01</pdfrwt>
<pdfrwt beam="2">  1       21 0.28370844E-03 0.53379251E+01</pdfrwt>
<totfact> 0.40236808E+09</totfact>
</mgrwt>
</event>
<event>
 4    1  0.4039863E+006  0.5875756E+01  0.7546771E-02  0.2431880E+00
         21   -1    0    0  503  502  0.00000000000E+00  0.00000000000E+00  0.36612141184E+00  0.36612141184E+00  0.00000000000E+00 0. -1.
         21   -1    0    0  501  503 -0.00000000000E+00 -0.00000000000E+00 -0.39003887011E+03  0.39003887011E+03  0.00000000000E+00 0. -1.
          5    1    1    2  501    0 -0.31523562989E+01  0.15802416542E+01 -0.36481217687E+03  0.36485949200E+03  0.47000000000E+01 0. -1.
         -5    1    1    2    0  502  0.31523562989E+01 -0.15802416542E+01 -0.24860571833E+02  0.25545499521E+02  0.47000000000E+01 0. -1.
<mgrwt>
<rscale>  2 0.58757565E+01</rscale>
<asrwt>0</asrwt>
<pdfrwt beam="1">  1       21 0.56326353E-04 0.58757565E+01</pdfrwt>
<pdfrwt beam="2">  1       21 0.60006000E-01 0.58757565E+01</pdfrwt>
<totfact> 0.27976078E+08</totfact>
</mgrwt>
</event>
<event>
 4    1  0.4039863E+006  0.4994340E+01  0.7546771E-02  0.2568159E+00
         21   -1    0    0  503  502  0.00000000000E+00  0.00000000000E+00  0.70136112312E+01  0.70136112312E+01  0.00000000000E+00 0.  1.
         21   -1    0    0  501  503 -0.00000000000E+00 -0.00000000000E+00 -0.12087554597E+02  0.12087554597E+02  0.00000000000E+00 0. -1.
          5    1    1    2  501    0 -0.12636645132E+01  0.11209741345E+01 -0.10560469669E+02  0.11681906978E+02  0.47000000000E+01 0. -1.
         -5    1    1    2    0  502  0.12636645132E+01 -0.11209741345E+01  0.54865263031E+01  0.74192588502E+01  0.47000000000E+01 0.  1.
<mgrwt>
<rscale>  2 0.49943399E+01</rscale>
<asrwt>0</asrwt>
<pdfrwt beam="1">  1       21 0.10790171E-02 0.49943399E+01</pdfrwt>
<pdfrwt beam="2">  1       21 0.18596238E-02 0.49943399E+01</pdfrwt>
<totfact> 0.99682467E+08</totfact>
</mgrwt>
</event>
<event>
 4    1  0.4039863E+006  0.4776524E+01  0.7546771E-02  0.2608393E+00
         21   -1    0    0  503  502  0.00000000000E+00  0.00000000000E+00  0.10431860166E+03  0.10431860166E+03  0.00000000000E+00 0.  1.
         21   -1    0    0  501  503 -0.00000000000E+00 -0.00000000000E+00 -0.65277367144E+01  0.65277367144E+01  0.00000000000E+00 0.  1.
          5    1    1    2  501    0 -0.72744775918E-01  0.84846494228E+00 -0.55913716343E+01  0.73538167854E+01  0.47000000000E+01 0.  1.
         -5    1    1    2    0  502  0.72744775918E-01 -0.84846494228E+00  0.10338223658E+03  0.10349252158E+03  0.47000000000E+01 0.  1.
<mgrwt>
<rscale>  2 0.47765243E+01</rscale>
<asrwt>0</asrwt>
<pdfrwt beam="1">  1       21 0.16049014E-01 0.47765243E+01</pdfrwt>
<pdfrwt beam="2">  1       21 0.10042673E-02 0.47765243E+01</pdfrwt>
<totfact> 0.44513644E+07</totfact>
</mgrwt>
</event>
<event>
 4    1  0.4039863E+006  0.5481190E+01  0.7546771E-02  0.2488272E+00
         21   -1    0    0  503  502  0.00000000000E+00  0.00000000000E+00  0.14322755474E+03  0.14322755474E+03  0.00000000000E+00 0. -1.
         21   -1    0    0  501  503 -0.00000000000E+00 -0.00000000000E+00 -0.27191782733E+00  0.27191782733E+00  0.00000000000E+00 0.  1.
          5    1    1    2  501    0 -0.20761723409E+01 -0.19086521594E+01  0.37173516862E+02  0.37575441455E+02  0.47000000000E+01 0. -1.
         -5    1    1    2    0  502  0.20761723409E+01  0.19086521594E+01  0.10578212005E+03  0.10592403111E+03  0.47000000000E+01 0. -1.
<mgrwt>
<rscale>  2 0.54811901E+01</rscale>
<asrwt>0</asrwt>
<pdfrwt beam="1">  1       21 0.22034948E-01 0.54811901E+01</pdfrwt>
<pdfrwt beam="2">  1       21 0.41833626E-04 0.54811901E+01</pdfrwt>
<totfact> 0.22132570E+09</totfact>
</mgrwt>
</event>
<event>
 4    1  0.4039863E+006  0.7836175E+01  0.7546771E-02  0.2224132E+00
         21   -1    0    0  503  502  0.00000000000E+00  0.00000000000E+00  0.53523772589E+01  0.53523772589E+01  0.00000000000E+00 0. -1.
         21   -1    0    0  501  503 -0.00000000000E+00 -0.00000000000E+00 -0.17656622856E+02  0.17656622856E+02  0.00000000000E+00 0.  1.
          5    1    1    2  501    0 -0.62698915765E+01 -0.64058813832E-01 -0.12960595993E+02  0.15145385185E+02  0.47000000000E+01 0.  1.
         -5    1    1    2    0  502  0.62698915765E+01  0.64058813832E-01  0.65635039635E+00  0.78636149292E+01  0.47000000000E+01 0. -1.
<mgrwt>
<rscale>  2 0.78361753E+01</rscale>
<asrwt>0</asrwt>
<pdfrwt beam="1">  1       21 0.82344265E-03 0.78361753E+01</pdfrwt>
<pdfrwt beam="2">  1       21 0.27164035E-02 0.78361753E+01</pdfrwt>
<totfact> 0.12164100E+09</totfact>
</mgrwt>
</event>
<event>
 4    1  0.4039863E+006  0.7823791E+01  0.7546771E-02  0.2225173E+00
         21   -1    0    0  503  502  0.00000000000E+00  0.00000000000E+00  0.94012093959E+01  0.94012093959E+01  0.00000000000E+00 0. -1.
         21   -1    0    0  501  503 -0.00000000000E+00 -0.00000000000E+00 -0.93659974236E+01  0.93659974236E+01  0.00000000000E+00 0. -1.
          5    1    1    2  501    0  0.61610722398E+01 -0.10783731996E+01 -0.51631369688E+01  0.93738830407E+01  0.47000000000E+01 0. -1.
         -5    1    1    2    0  502 -0.61610722398E+01  0.10783731996E+01  0.51983489411E+01  0.93933237789E+01  0.47000000000E+01 0. -1.
<mgrwt>
<rscale>  2 0.78237906E+01</rscale>
<asrwt>0</asrwt>
<pdfrwt beam="1">  1       21 0.14463399E-02 0.78237906E+01</pdfrwt>
<pdfrwt beam="2">  1       21 0.14409227E-02 0.78237906E+01</pdfrwt>
<totfact> 0.13651901E+09</totfact>
</mgrwt>
</event>
<event>
 4    1  0.4039863E+006  0.6011152E+01  0.7546771E-02  0.2413974E+00
         21   -1    0    0  501  502  0.00000000000E+00  0.00000000000E+00  0.15475812795E+01  0.15475812795E+01  0.00000000000E+00 0. -1.
         21   -1    0    0  502  503 -0.00000000000E+00 -0.00000000000E+00 -0.31509572557E+02  0.31509572557E+02  0.00000000000E+00 0. -1.
          5    1    1    2  501    0 -0.37209897201E+01 -0.44518509501E+00 -0.65693013395E+01  0.89044749624E+01  0.47000000000E+01 0. -1.
         -5    1    1    2    0  503  0.37209897201E+01  0.44518509501E+00 -0.23392689938E+02  0.24152678874E+02  0.47000000000E+01 0. -1.
<mgrwt>
<rscale>  2 0.60111525E+01</rscale>
<asrwt>0</asrwt>
<pdfrwt beam="1">  1       21 0.23808942E-03 0.60111525E+01</pdfrwt>
<pdfrwt beam="2">  1       21 0.48476266E-02 0.60111525E+01</pdfrwt>
<totfact> 0.23807144E+09</totfact>
</mgrwt>
</event>
<event>
 4    1  0.4039863E+006  0.1209729E+02  0.7546771E-02  0.1972198E+00
         21   -1    0    0  501  502  0.00000000000E+00  0.00000000000E+00  0.19319950115E+02  0.19319950115E+02  0.00000000000E+00 0.  1.
         21   -1    0    0  502  503 -0.00000000000E+00 -0.00000000000E+00 -0.34314048847E+02  0.34314048847E+02  0.00000000000E+00 0. -1.
          5    1    1    2  501    0 -0.40702742697E+01 -0.10377245412E+02  0.16175714822E+02  0.20198962968E+02  0.47000000000E+01 0.  1.
         -5    1    1    2    0  503  0.40702742697E+01  0.10377245412E+02 -0.31169813554E+02  0.33435035994E+02  0.47000000000E+01 0. -1.
<mgrwt>
<rscale>  2 0.12097287E+02</rscale>
<asrwt>0</asrwt>
<pdfrwt beam="1">  1       21 0.29723001E-02 0.12097287E+02</pdfrwt>
<pdfrwt beam="2">  1       21 0.52790844E-02 0.12097287E+02</pdfrwt>
<totfact> 0.85626600E+07</totfact>
</mgrwt>
</event>
<event>
 4    1  0.4039863E+006  0.5156787E+01  0.7546771E-02  0.2540070E+00
         21   -1    0    0  503  502  0.00000000000E+00  0.00000000000E+00  0.68674202159E+00  0.68674202159E+00  0.00000000000E+00 0. -1.
         21   -1    0    0  501  503 -0.00000000000E+00 -0.00000000000E+00 -0.47641954357E+02  0.47641954357E+02  0.00000000000E+00 0. -1.
          5    1    1    2  501    0 -0.13991981009E+01  0.15952107764E+01 -0.33933145438E+02  0.34322744821E+02  0.47000000000E+01 0. -1.
         -5    1    1    2    0  502  0.13991981009E+01 -0.15952107764E+01 -0.13022066897E+02  0.14005951557E+02  0.47000000000E+01 0. -1.
<mgrwt>
<rscale>  2 0.51567871E+01</rscale>
<asrwt>0</asrwt>
<pdfrwt beam="1">  1       21 0.10565260E-03 0.51567871E+01</pdfrwt>
<pdfrwt beam="2">  1       21 0.73295327E-02 0.51567871E+01</pdfrwt>
<totfact> 0.33476391E+09</totfact>
</mgrwt>
</event>
<event>
 4    1  0.4039863E+006  0.7128514E+01  0.7546771E-02  0.2288229E+00
         21   -1    0    0  501  502  0.00000000000E+00  0.00000000000E+00  0.58660806449E+01  0.58660806449E+01  0.00000000000E+00 0. -1.
         21   -1    0    0  502  503 -0.00000000000E+00 -0.00000000000E+00 -0.16627065878E+02  0.16627065878E+02  0.00000000000E+00 0.  1.
          5    1    1    2  501    0 -0.85724641223E-01 -0.53589523449E+01  0.24032732790E+01  0.75227283217E+01  0.47000000000E+01 0. -1.
         -5    1    1    2    0  503  0.85724641223E-01  0.53589523449E+01 -0.13164258512E+02  0.14970418202E+02  0.47000000000E+01 0.  1.
<mgrwt>
<rscale>  2 0.71285145E+01</rscale>
<asrwt>0</asrwt>
<pdfrwt beam="1">  1       21 0.90247394E-03 0.71285145E+01</pdfrwt>
<pdfrwt beam="2">  1       21 0.25580102E-02 0.71285145E+01</pdfrwt>
<totfact> 0.10894906E+09</totfact>
</mgrwt>
</event>
<event>
 4    1  0.4039863E+006  0.8252897E+01  0.7546771E-02  0.2190600E+00
         21   -1    0    0  503  502  0.00000000000E+00  0.00000000000E+00  0.62346300535E+00  0.62346300535E+00  0.00000000000E+00 0.  1.
         21   -1    0    0  501  503 -0.00000000000E+00 -0.00000000000E+00 -0.10978708657E+03  0.10978708657E+03  0.00000000000E+00 0. -1.
          5    1    1    2  501    0 -0.23030351429E+01 -0.63809360155E+01 -0.50703207509E+02  0.51370473688E+02  0.47000000000E+01 0.  1.
         -5    1    1    2    0  502  0.23030351429E+01  0.63809360155E+01 -0.58460416060E+02  0.59040075891E+02  0.47000000000E+01 0.  1.
<mgrwt>
<rscale>  2 0.82528974E+01</rscale>
<asrwt>0</asrwt>
<pdfrwt beam="1">  1       21 0.95917336E-04 0.82528974E+01</pdfrwt>
<pdfrwt beam="2">  1       21 0.16890330E-01 0.82528974E+01</pdfrwt>
<totfact> 0.15150591E+09</totfact>
</mgrwt>
</event>
<event>
 4    1  0.4039863E+006  0.4747466E+01  0.7546771E-02  0.2614002E+00
         21   -1    0    0  503  502  0.00000000000E+00  0.00000000000E+00  0.24335330649E+01  0.24335330649E+01  0.00000000000E+00 0.  1.
         21   -1    0    0  501  503 -0.00000000000E+00 -0.00000000000E+00 -0.10582564862E+02  0.10582564862E+02  0.00000000000E+00 0.  1.
          5    1    1    2  501    0  0.66960520278E+00 -0.81254168662E-02 -0.63738343775E+01  0.79475909446E+01  0.47000000000E+01 0.  1.
         -5    1    1    2    0  502 -0.66960520278E+00  0.81254168662E-02 -0.17751974193E+01  0.50685069821E+01  0.47000000000E+01 0.  1.
<mgrwt>
<rscale>  2 0.47474664E+01</rscale>
<asrwt>0</asrwt>
<pdfrwt beam="1">  1       21 0.37438970E-03 0.47474664E+01</pdfrwt>
<pdfrwt beam="2">  1       21 0.16280869E-02 0.47474664E+01</pdfrwt>
<totfact> 0.49099756E+09</totfact>
</mgrwt>
</event>
<event>
 4    1  0.4039863E+006  0.7007255E+01  0.7546771E-02  0.2300263E+00
         21   -1    0    0  503  502  0.00000000000E+00  0.00000000000E+00  0.39418071515E+02  0.39418071515E+02  0.00000000000E+00 0. -1.
         21   -1    0    0  501  503 -0.00000000000E+00 -0.00000000000E+00 -0.67373323371E+01  0.67373323371E+01  0.00000000000E+00 0.  1.
          5    1    1    2  501    0 -0.35308721660E+01  0.38137339618E+01 -0.44949790761E+01  0.83250502629E+01  0.47000000000E+01 0.  1.
         -5    1    1    2    0  502  0.35308721660E+01 -0.38137339618E+01  0.37175718254E+02  0.37830353590E+02  0.47000000000E+01 0. -1.
<mgrwt>
<rscale>  2 0.70072552E+01</rscale>
<asrwt>0</asrwt>
<pdfrwt beam="1">  1       21 0.60643186E-02 0.70072552E+01</pdfrwt>
<pdfrwt beam="2">  1       21 0.10365127E-02 0.70072552E+01</pdfrwt>
<totfact> 0.24526619E+08</totfact>
</mgrwt>
</event>
<event>
 4    1  0.4039863E+006  0.7198106E+01  0.7546771E-02  0.2281473E+00
         21   -1    0    0  503  502  0.00000000000E+00  0.00000000000E+00  0.83196980395E+00  0.83196980395E+00  0.00000000000E+00 0.  1.
         21   -1    0    0  501  503 -0.00000000000E+00 -0.00000000000E+00 -0.11269703735E+03  0.11269703735E+03  0.00000000000E+00 0. -1.
          5    1    1    2  501    0 -0.75799988027E+00 -0.53989038947E+01 -0.93900858284E+02  0.94176344767E+02  0.47000000000E+01 0. -1.
         -5    1    1    2    0  502  0.75799988027E+00  0.53989038947E+01 -0.17964209264E+02  0.19352662390E+02  0.47000000000E+01 0.  1.
<mgrwt>
<rscale>  2 0.71981058E+01</rscale>
<asrwt>0</asrwt>
<pdfrwt beam="1">  1       21 0.12799538E-03 0.71981058E+01</pdfrwt>
<pdfrwt beam="2">  1       21 0.17338002E-01 0.71981058E+01</pdfrwt>
<totfact> 0.89447048E+08</totfact>
</mgrwt>
</event>
<event>
 4    1  0.4039863E+006  0.4989363E+01  0.7546771E-02  0.2569044E+00
         21   -1    0    0  503  502  0.00000000000E+00  0.00000000000E+00  0.67399712454E-01  0.67399712454E-01  0.00000000000E+00 0.  1.
         21   -1    0    0  501  503 -0.00000000000E+00 -0.00000000000E+00 -0.62757576821E+03  0.62757576821E+03  0.00000000000E+00 0.  1.
          5    1    1    2  501    0 -0.11991274101E+01  0.11686891455E+01 -0.51505882851E+03  0.51508299386E+03  0.47000000000E+01 0.  1.
         -5    1    1    2    0  502  0.11991274101E+01 -0.11686891455E+01 -0.11244953999E+03  0.11256017406E+03  0.47000000000E+01 0.  1.
<mgrwt>
<rscale>  2 0.49893628E+01</rscale>
<asrwt>0</asrwt>
<pdfrwt beam="1">  1       21 0.10369144E-04 0.49893628E+01</pdfrwt>
<pdfrwt beam="2">  1       21 0.96550515E-01 0.49893628E+01</pdfrwt>
<totfact> 0.94595872E+08</totfact>
</mgrwt>
</event>
<event>
 4    1  0.4039863E+006  0.7369610E+01  0.7546771E-02  0.2265270E+00
         21   -1    0    0  503  502  0.00000000000E+00  0.00000000000E+00  0.38803555212E+01  0.38803555212E+01  0.00000000000E+00 0.  1.
         21   -1    0    0  501  503 -0.00000000000E+00 -0.00000000000E+00 -0.28262113320E+02  0.28262113320E+02  0.00000000000E+00 0.  1.
          5    1    1    2  501    0 -0.47868206621E+01 -0.30508193074E+01 -0.23608959554E+02  0.24732450783E+02  0.47000000000E+01 0.  1.
         -5    1    1    2    0  502  0.47868206621E+01  0.30508193074E+01 -0.77279824463E+00  0.74100180583E+01  0.47000000000E+01 0.  1.
<mgrwt>
<rscale>  2 0.73696099E+01</rscale>
<asrwt>0</asrwt>
<pdfrwt beam="1">  1       21 0.59697777E-03 0.73696099E+01</pdfrwt>
<pdfrwt beam="2">  1       21 0.43480175E-02 0.73696099E+01</pdfrwt>
<totfact> 0.91470062E+08</totfact>
</mgrwt>
</event>
<event>
 4    1  0.4039863E+006  0.1150409E+02  0.7546771E-02  0.1998302E+00
         21   -1    0    0  501  502  0.00000000000E+00  0.00000000000E+00  0.33479049928E+02  0.33479049928E+02  0.00000000000E+00 0. -1.
         21   -1    0    0  502  503 -0.00000000000E+00 -0.00000000000E+00 -0.46491564719E+01  0.46491564719E+01  0.00000000000E+00 0. -1.
          5    1    1    2  501    0 -0.95450302556E+00  0.10456718233E+02  0.21791783484E+02  0.24641953243E+02  0.47000000000E+01 0. -1.
         -5    1    1    2    0  503  0.95450302556E+00 -0.10456718233E+02  0.70381099726E+01  0.13486253157E+02  0.47000000000E+01 0. -1.
<mgrwt>
<rscale>  2 0.11504088E+02</rscale>
<asrwt>0</asrwt>
<pdfrwt beam="1">  1       21 0.51506229E-02 0.11504088E+02</pdfrwt>
<pdfrwt beam="2">  1       21 0.71525487E-03 0.11504088E+02</pdfrwt>
<totfact> 0.71459002E+08</totfact>
</mgrwt>
</event>
<event>
 4    1  0.4039863E+006  0.4710512E+01  0.7546771E-02  0.2621222E+00
         21   -1    0    0  501  502  0.00000000000E+00  0.00000000000E+00  0.54988350323E+00  0.54988350323E+00  0.00000000000E+00 0.  1.
         21   -1    0    0  502  503 -0.00000000000E+00 -0.00000000000E+00 -0.85811070611E+02  0.85811070611E+02  0.00000000000E+00 0.  1.
          5    1    1    2  501    0 -0.30550223278E+00 -0.74801505780E-01 -0.11201937440E+02  0.12152050415E+02  0.47000000000E+01 0.  1.
         -5    1    1    2    0  503  0.30550223278E+00  0.74801505780E-01 -0.74059249668E+02  0.74208903699E+02  0.47000000000E+01 0.  1.
<mgrwt>
<rscale>  2 0.47105124E+01</rscale>
<asrwt>0</asrwt>
<pdfrwt beam="1">  1       21 0.84597469E-04 0.47105124E+01</pdfrwt>
<pdfrwt beam="2">  1       21 0.13201702E-01 0.47105124E+01</pdfrwt>
<totfact> 0.16903977E+09</totfact>
</mgrwt>
</event>
<event>
 4    1  0.4039863E+006  0.5873365E+01  0.7546771E-02  0.2432202E+00
         21   -1    0    0  503  502  0.00000000000E+00  0.00000000000E+00  0.92846769448E+00  0.92846769448E+00  0.00000000000E+00 0.  1.
         21   -1    0    0  501  503 -0.00000000000E+00 -0.00000000000E+00 -0.39033654400E+02  0.39033654400E+02  0.00000000000E+00 0. -1.
          5    1    1    2  501    0 -0.20419856263E+01  0.28699669392E+01 -0.14668072253E+02  0.15800277186E+02  0.47000000000E+01 0.  1.
         -5    1    1    2    0  502  0.20419856263E+01 -0.28699669392E+01 -0.23437114453E+02  0.24161844909E+02  0.47000000000E+01 0. -1.
<mgrwt>
<rscale>  2 0.58733649E+01</rscale>
<asrwt>0</asrwt>
<pdfrwt beam="1">  1       21 0.14284117E-03 0.58733649E+01</pdfrwt>
<pdfrwt beam="2">  1       21 0.60051782E-02 0.58733649E+01</pdfrwt>
<totfact> 0.33963402E+09</totfact>
</mgrwt>
</event>
<event>
 4    1  0.4039863E+006  0.5803153E+01  0.7546771E-02  0.2441770E+00
         21   -1    0    0  503  502  0.00000000000E+00  0.00000000000E+00  0.61857224245E+02  0.61857224245E+02  0.00000000000E+00 0. -1.
         21   -1    0    0  501  503 -0.00000000000E+00 -0.00000000000E+00 -0.10104084260E+01  0.10104084260E+01  0.00000000000E+00 0. -1.
          5    1    1    2  501    0 -0.31860819040E+01  0.11981094200E+01  0.90765415072E+01  0.10773123494E+02  0.47000000000E+01 0. -1.
         -5    1    1    2    0  502  0.31860819040E+01 -0.11981094200E+01  0.51770274312E+02  0.52094509177E+02  0.47000000000E+01 0. -1.
<mgrwt>
<rscale>  2 0.58031529E+01</rscale>
<asrwt>0</asrwt>
<pdfrwt beam="1">  1       21 0.95164930E-02 0.58031529E+01</pdfrwt>
<pdfrwt beam="2">  1       21 0.15544750E-03 0.58031529E+01</pdfrwt>
<totfact> 0.14971748E+09</totfact>
</mgrwt>
</event>
<event>
 4    1  0.4039863E+006  0.5610093E+01  0.7546771E-02  0.2469113E+00
         21   -1    0    0  501  502  0.00000000000E+00  0.00000000000E+00  0.63777850822E+00  0.63777850822E+00  0.00000000000E+00 0. -1.
         21   -1    0    0  502  503 -0.00000000000E+00 -0.00000000000E+00 -0.73436796793E+03  0.73436796793E+03  0.00000000000E+00 0. -1.
          5    1    1    2  501    0  0.17763578483E+01 -0.24955363472E+01 -0.11924670200E+02  0.13178425864E+02  0.47000000000E+01 0. -1.
         -5    1    1    2    0  503 -0.17763578483E+01  0.24955363472E+01 -0.72180551922E+03  0.72182732058E+03  0.47000000000E+01 0. -1.
<mgrwt>
<rscale>  2 0.56100935E+01</rscale>
<asrwt>0</asrwt>
<pdfrwt beam="1">  1       21 0.98119414E-04 0.56100935E+01</pdfrwt>
<pdfrwt beam="2">  1       21 0.11298010E+00 0.56100935E+01</pdfrwt>
<totfact> 0.37698591E+07</totfact>
</mgrwt>
</event>
<event>
 4    1  0.4039863E+006  0.5931478E+01  0.7546771E-02  0.2424428E+00
         21   -1    0    0  503  502  0.00000000000E+00  0.00000000000E+00  0.34642359071E+02  0.34642359071E+02  0.00000000000E+00 0. -1.
         21   -1    0    0  501  503 -0.00000000000E+00 -0.00000000000E+00 -0.22017479401E+01  0.22017479401E+01  0.00000000000E+00 0. -1.
          5    1    1    2  501    0 -0.31220926055E+01  0.18289271698E+01  0.26987865794E+01  0.65165854426E+01  0.47000000000E+01 0. -1.
         -5    1    1    2    0  502  0.31220926055E+01 -0.18289271698E+01  0.29741824551E+02  0.30327521568E+02  0.47000000000E+01 0. -1.
<mgrwt>
<rscale>  2 0.59314785E+01</rscale>
<asrwt>0</asrwt>
<pdfrwt beam="1">  1       21 0.53295933E-02 0.59314785E+01</pdfrwt>
<pdfrwt beam="2">  1       21 0.33873048E-03 0.59314785E+01</pdfrwt>
<totfact> 0.12612427E+09</totfact>
</mgrwt>
</event>
<event>
 4    1  0.4039863E+006  0.7294265E+01  0.7546771E-02  0.2272312E+00
         21   -1    0    0  503  502  0.00000000000E+00  0.00000000000E+00  0.20296347254E+03  0.20296347254E+03  0.00000000000E+00 0. -1.
         21   -1    0    0  501  503 -0.00000000000E+00 -0.00000000000E+00 -0.26468297001E+00  0.26468297001E+00  0.00000000000E+00 0.  1.
          5    1    1    2  501    0 -0.45769582887E+01  0.31886908856E+01  0.11129542398E+03  0.11153419967E+03  0.47000000000E+01 0. -1.
         -5    1    1    2    0  502  0.45769582887E+01 -0.31886908856E+01  0.91403365590E+02  0.91693955842E+02  0.47000000000E+01 0.  1.
<mgrwt>
<rscale>  2 0.72942646E+01</rscale>
<asrwt>0</asrwt>
<pdfrwt beam="1">  1       21 0.31225025E-01 0.72942646E+01</pdfrwt>
<pdfrwt beam="2">  1       21 0.40720619E-04 0.72942646E+01</pdfrwt>
<totfact> 0.15990835E+09</totfact>
</mgrwt>
</event>
<event>
 4    1  0.4039863E+006  0.9495376E+01  0.7546771E-02  0.2104898E+00
         21   -1    0    0  501  502  0.00000000000E+00  0.00000000000E+00  0.25711366573E+01  0.25711366573E+01  0.00000000000E+00 0. -1.
         21   -1    0    0  502  503 -0.00000000000E+00 -0.00000000000E+00 -0.35105576315E+02  0.35105576315E+02  0.00000000000E+00 0. -1.
          5    1    1    2  501    0  0.43992734167E+01 -0.69798685674E+01 -0.15643130670E+02  0.18299445592E+02  0.47000000000E+01 0. -1.
         -5    1    1    2    0  503 -0.43992734167E+01  0.69798685674E+01 -0.16891308988E+02  0.19377267381E+02  0.47000000000E+01 0. -1.
<mgrwt>
<rscale>  2 0.94953763E+01</rscale>
<asrwt>0</asrwt>
<pdfrwt beam="1">  1       21 0.39555954E-03 0.94953763E+01</pdfrwt>
<pdfrwt beam="2">  1       21 0.54008571E-02 0.94953763E+01</pdfrwt>
<totfact> 0.13921613E+09</totfact>
</mgrwt>
</event>
<event>
 4    1  0.4039863E+006  0.6247138E+01  0.7546771E-02  0.2384327E+00
         21   -1    0    0  501  502  0.00000000000E+00  0.00000000000E+00  0.27979297893E+02  0.27979297893E+02  0.00000000000E+00 0. -1.
         21   -1    0    0  502  503 -0.00000000000E+00 -0.00000000000E+00 -0.14049407066E+01  0.14049407066E+01  0.00000000000E+00 0. -1.
          5    1    1    2  501    0  0.40514603880E+01  0.72277161855E+00  0.14532739798E+02  0.15818573138E+02  0.47000000000E+01 0. -1.
         -5    1    1    2    0  503 -0.40514603880E+01 -0.72277161855E+00  0.12041617389E+02  0.13565665462E+02  0.47000000000E+01 0. -1.
<mgrwt>
<rscale>  2 0.62471378E+01</rscale>
<asrwt>0</asrwt>
<pdfrwt beam="1">  1       21 0.43045070E-02 0.62471378E+01</pdfrwt>
<pdfrwt beam="2">  1       21 0.21614474E-03 0.62471378E+01</pdfrwt>
<totfact> 0.33484093E+09</totfact>
</mgrwt>
</event>
<event>
 4    1  0.4039863E+006  0.5491340E+01  0.7546771E-02  0.2486736E+00
         21   -1    0    0  501  502  0.00000000000E+00  0.00000000000E+00  0.33656926048E+02  0.33656926048E+02  0.00000000000E+00 0. -1.
         21   -1    0    0  502  503 -0.00000000000E+00 -0.00000000000E+00 -0.95505126484E+00  0.95505126484E+00  0.00000000000E+00 0. -1.
          5    1    1    2  501    0 -0.17408572879E+01  0.22437101274E+01  0.20656131885E+02  0.21373595946E+02  0.47000000000E+01 0.  1.
         -5    1    1    2    0  503  0.17408572879E+01 -0.22437101274E+01  0.12045742898E+02  0.13238381366E+02  0.47000000000E+01 0.  1.
<mgrwt>
<rscale>  2 0.54913404E+01</rscale>
<asrwt>0</asrwt>
<pdfrwt beam="1">  1       21 0.51779877E-02 0.54913404E+01</pdfrwt>
<pdfrwt beam="2">  1       21 0.14693099E-03 0.54913404E+01</pdfrwt>
<totfact> 0.38314305E+09</totfact>
</mgrwt>
</event>
<event>
 4    1  0.4039863E+006  0.5017882E+01  0.7546771E-02  0.2563991E+00
         21   -1    0    0  501  502  0.00000000000E+00  0.00000000000E+00  0.35757696010E-01  0.35757696010E-01  0.00000000000E+00 0. -1.
         21   -1    0    0  502  503 -0.00000000000E+00 -0.00000000000E+00 -0.87851106509E+03  0.87851106509E+03  0.00000000000E+00 0. -1.
          5    1    1    2  501    0 -0.78755205891E+00  0.15712725803E+01 -0.24354536090E+03  0.24359704833E+03  0.47000000000E+01 0. -1.
         -5    1    1    2    0  503  0.78755205891E+00 -0.15712725803E+01 -0.63492994649E+03  0.63494977446E+03  0.47000000000E+01 0. -1.
<mgrwt>
<rscale>  2 0.50178816E+01</rscale>
<asrwt>0</asrwt>
<pdfrwt beam="1">  1       21 0.55011395E-05 0.50178816E+01</pdfrwt>
<pdfrwt beam="2">  1       21 0.13515664E+00 0.50178816E+01</pdfrwt>
<totfact> 0.11137360E+09</totfact>
</mgrwt>
</event>
<event>
 4    1  0.4039863E+006  0.8298746E+01  0.7546771E-02  0.2187077E+00
         21   -1    0    0  503  502  0.00000000000E+00  0.00000000000E+00  0.72237885712E+01  0.72237885712E+01  0.00000000000E+00 0.  1.
         21   -1    0    0  501  503 -0.00000000000E+00 -0.00000000000E+00 -0.23409013074E+02  0.23409013074E+02  0.00000000000E+00 0. -1.
          5    1    1    2  501    0  0.39708974618E+01  0.55687661328E+01 -0.19884602424E+02  0.21546846555E+02  0.47000000000E+01 0. -1.
         -5    1    1    2    0  502 -0.39708974618E+01 -0.55687661328E+01  0.36993779215E+01  0.90859550901E+01  0.47000000000E+01 0.  1.
<mgrwt>
<rscale>  2 0.82987459E+01</rscale>
<asrwt>0</asrwt>
<pdfrwt beam="1">  1       21 0.11113521E-02 0.82987459E+01</pdfrwt>
<pdfrwt beam="2">  1       21 0.36013867E-02 0.82987459E+01</pdfrwt>
<totfact> 0.54050011E+08</totfact>
</mgrwt>
</event>
<event>
 4    1  0.4039863E+006  0.6269559E+01  0.7546771E-02  0.2381607E+00
         21   -1    0    0  503  502  0.00000000000E+00  0.00000000000E+00  0.20365380879E+03  0.20365380879E+03  0.00000000000E+00 0.  1.
         21   -1    0    0  501  503 -0.00000000000E+00 -0.00000000000E+00 -0.23790046981E+00  0.23790046981E+00  0.00000000000E+00 0.  1.
          5    1    1    2  501    0 -0.37742959669E+01  0.17239657647E+01  0.14599181933E+03  0.14612637913E+03  0.47000000000E+01 0.  1.
         -5    1    1    2    0  502  0.37742959669E+01 -0.17239657647E+01  0.57424088991E+02  0.57765330125E+02  0.47000000000E+01 0.  1.
<mgrwt>
<rscale>  2 0.62695588E+01</rscale>
<asrwt>0</asrwt>
<pdfrwt beam="1">  1       21 0.31331216E-01 0.62695588E+01</pdfrwt>
<pdfrwt beam="2">  1       21 0.36600235E-04 0.62695588E+01</pdfrwt>
<totfact> 0.16459590E+09</totfact>
</mgrwt>
</event>
<event>
 4    1  0.4039863E+006  0.7598529E+01  0.7546771E-02  0.2244574E+00
         21   -1    0    0  501  502  0.00000000000E+00  0.00000000000E+00  0.73556985622E+01  0.73556985622E+01  0.00000000000E+00 0.  1.
         21   -1    0    0  502  503 -0.00000000000E+00 -0.00000000000E+00 -0.79979822221E+01  0.79979822221E+01  0.00000000000E+00 0. -1.
          5    1    1    2  501    0 -0.15233589726E+01 -0.57729556905E+01  0.72529145317E+00  0.76330654167E+01  0.47000000000E+01 0.  1.
         -5    1    1    2    0  503  0.15233589726E+01  0.57729556905E+01 -0.13675751131E+01  0.77206153675E+01  0.47000000000E+01 0.  1.
<mgrwt>
<rscale>  2 0.75985288E+01</rscale>
<asrwt>0</asrwt>
<pdfrwt beam="1">  1       21 0.11316459E-02 0.75985288E+01</pdfrwt>
<pdfrwt beam="2">  1       21 0.12304588E-02 0.75985288E+01</pdfrwt>
<totfact> 0.23893971E+09</totfact>
</mgrwt>
</event>
<event>
 4    1  0.4039863E+006  0.9517222E+01  0.7546771E-02  0.2103551E+00
         21   -1    0    0  503  502  0.00000000000E+00  0.00000000000E+00  0.97829944073E+03  0.97829944073E+03  0.00000000000E+00 0. -1.
         21   -1    0    0  501  503 -0.00000000000E+00 -0.00000000000E+00 -0.98850995200E-01  0.98850995200E-01  0.00000000000E+00 0.  1.
          5    1    1    2  501    0 -0.59579227318E+01 -0.57437509374E+01  0.36595119852E+03  0.36607493388E+03  0.47000000000E+01 0.  1.
         -5    1    1    2    0  502  0.59579227318E+01  0.57437509374E+01  0.61224939121E+03  0.61232335784E+03  0.47000000000E+01 0. -1.
<mgrwt>
<rscale>  2 0.95172222E+01</rscale>
<asrwt>0</asrwt>
<pdfrwt beam="1">  1       21 0.15049985E+00 0.95172222E+01</pdfrwt>
<pdfrwt beam="2">  1       21 0.15208629E-04 0.95172222E+01</pdfrwt>
<totfact> 0.32691794E+08</totfact>
</mgrwt>
</event>
<event>
 4    1  0.4039863E+006  0.7152187E+01  0.7546771E-02  0.2285919E+00
         21   -1    0    0  501  502  0.00000000000E+00  0.00000000000E+00  0.65192548532E-01  0.65192548532E-01  0.00000000000E+00 0.  1.
         21   -1    0    0  502  503 -0.00000000000E+00 -0.00000000000E+00 -0.10248484697E+04  0.10248484697E+04  0.00000000000E+00 0.  1.
          5    1    1    2  501    0 -0.53592481549E+01 -0.58500911178E+00 -0.76048002237E+03  0.76051365419E+03  0.47000000000E+01 0.  1.
         -5    1    1    2    0  503  0.53592481549E+01  0.58500911178E+00 -0.26430325482E+03  0.26440000811E+03  0.47000000000E+01 0.  1.
<mgrwt>
<rscale>  2 0.71521868E+01</rscale>
<asrwt>0</asrwt>
<pdfrwt beam="1">  1       21 0.10028605E-04 0.71521868E+01</pdfrwt>
<pdfrwt beam="2">  1       21 0.15768499E+00 0.71521868E+01</pdfrwt>
<totfact> 0.44936354E+08</totfact>
</mgrwt>
</event>
<event>
 4    1  0.4039863E+006  0.5001906E+01  0.7546771E-02  0.2566816E+00
         21   -1    0    0  501  502  0.00000000000E+00  0.00000000000E+00  0.15545418962E+02  0.15545418962E+02  0.00000000000E+00 0. -1.
         21   -1    0    0  502  503 -0.00000000000E+00 -0.00000000000E+00 -0.20958568129E+01  0.20958568129E+01  0.00000000000E+00 0. -1.
          5    1    1    2  501    0  0.12005161396E+00 -0.17072346731E+01  0.10974240772E+02  0.12060390671E+02  0.47000000000E+01 0. -1.
         -5    1    1    2    0  503 -0.12005161396E+00  0.17072346731E+01  0.24753213767E+01  0.55808851034E+01  0.47000000000E+01 0. -1.
<mgrwt>
<rscale>  2 0.50019059E+01</rscale>
<asrwt>0</asrwt>
<pdfrwt beam="1">  1       21 0.23916029E-02 0.50019059E+01</pdfrwt>
<pdfrwt beam="2">  1       21 0.32243952E-03 0.50019059E+01</pdfrwt>
<totfact> 0.36913541E+09</totfact>
</mgrwt>
</event>
<event>
 4    1  0.4039863E+006  0.9099125E+01  0.7546771E-02  0.2130201E+00
         21   -1    0    0  501  502  0.00000000000E+00  0.00000000000E+00  0.32405196377E+00  0.32405196377E+00  0.00000000000E+00 0. -1.
         21   -1    0    0  502  503 -0.00000000000E+00 -0.00000000000E+00 -0.77167866692E+03  0.77167866692E+03  0.00000000000E+00 0. -1.
          5    1    1    2  501    0 -0.74905957299E+01 -0.21436055851E+01 -0.69979053204E+02  0.70568136978E+02  0.47000000000E+01 0. -1.
         -5    1    1    2    0  503  0.74905957299E+01  0.21436055851E+01 -0.70137556175E+03  0.70143458190E+03  0.47000000000E+01 0. -1.
<mgrwt>
<rscale>  2 0.90991246E+01</rscale>
<asrwt>0</asrwt>
<pdfrwt beam="1">  1       21 0.49854236E-04 0.90991246E+01</pdfrwt>
<pdfrwt beam="2">  1       21 0.11871959E+00 0.90991246E+01</pdfrwt>
<totfact> 0.10748045E+08</totfact>
</mgrwt>
</event>
<event>
 4    1  0.4039863E+006  0.5301004E+01  0.7546771E-02  0.2516375E+00
         21   -1    0    0  503  502  0.00000000000E+00  0.00000000000E+00  0.36529749794E+01  0.36529749794E+01  0.00000000000E+00 0. -1.
         21   -1    0    0  501  503 -0.00000000000E+00 -0.00000000000E+00 -0.77908831922E+01  0.77908831922E+01  0.00000000000E+00 0.  1.
          5    1    1    2  501    0 -0.16582637533E+01 -0.18057683975E+01 -0.14260708197E+01  0.54894732137E+01  0.47000000000E+01 0.  1.
         -5    1    1    2    0  502  0.16582637533E+01  0.18057683975E+01 -0.27118373931E+01  0.59543849580E+01  0.47000000000E+01 0. -1.
<mgrwt>
<rscale>  2 0.53010035E+01</rscale>
<asrwt>0</asrwt>
<pdfrwt beam="1">  1       21 0.56199616E-03 0.53010035E+01</pdfrwt>
<pdfrwt beam="2">  1       21 0.11985974E-02 0.53010035E+01</pdfrwt>
<totfact> 0.48638495E+09</totfact>
</mgrwt>
</event>
<event>
 4    1  0.4039863E+006  0.5120326E+01  0.7546771E-02  0.2546241E+00
         21   -1    0    0  501  502  0.00000000000E+00  0.00000000000E+00  0.21877917657E+00  0.21877917657E+00  0.00000000000E+00 0. -1.
         21   -1    0    0  502  503 -0.00000000000E+00 -0.00000000000E+00 -0.23662385764E+03  0.23662385764E+03  0.00000000000E+00 0. -1.
          5    1    1    2  501    0 -0.13643410266E+01 -0.15054271978E+01 -0.35007297863E+02  0.35379777291E+02  0.47000000000E+01 0. -1.
         -5    1    1    2    0  503  0.13643410266E+01  0.15054271978E+01 -0.20139778060E+03  0.20146285953E+03  0.47000000000E+01 0. -1.
<mgrwt>
<rscale>  2 0.51203259E+01</rscale>
<asrwt>0</asrwt>
<pdfrwt beam="1">  1       21 0.33658335E-04 0.51203259E+01</pdfrwt>
<pdfrwt beam="2">  1       21 0.36403670E-01 0.51203259E+01</pdfrwt>
<totfact> 0.12118421E+09</totfact>
</mgrwt>
</event>
<event>
 4    1  0.4039863E+006  0.7481068E+01  0.7546771E-02  0.2255064E+00
         21   -1    0    0  503  502  0.00000000000E+00  0.00000000000E+00  0.10446245841E+03  0.10446245841E+03  0.00000000000E+00 0.  1.
         21   -1    0    0  501  503 -0.00000000000E+00 -0.00000000000E+00 -0.53593317680E+00  0.53593317680E+00  0.00000000000E+00 0.  1.
          5    1    1    2  501    0 -0.93161574026E+00  0.57453001346E+01  0.52918006552E+02  0.53444193313E+02  0.47000000000E+01 0.  1.
         -5    1    1    2    0  502  0.93161574026E+00 -0.57453001346E+01  0.51008518683E+02  0.51554198275E+02  0.47000000000E+01 0.  1.
<mgrwt>
<rscale>  2 0.74810682E+01</rscale>
<asrwt>0</asrwt>
<pdfrwt beam="1">  1       21 0.16071131E-01 0.74810682E+01</pdfrwt>
<pdfrwt beam="2">  1       21 0.82451341E-04 0.74810682E+01</pdfrwt>
<totfact> 0.18882117E+09</totfact>
</mgrwt>
</event>
<event>
 4    1  0.4039863E+006  0.5172128E+01  0.7546771E-02  0.2537495E+00
         21   -1    0    0  501  502  0.00000000000E+00  0.00000000000E+00  0.95486024038E+03  0.95486024038E+03  0.00000000000E+00 0. -1.
         21   -1    0    0  502  503 -0.00000000000E+00 -0.00000000000E+00 -0.13465462715E+00  0.13465462715E+00  0.00000000000E+00 0. -1.
          5    1    1    2  501    0  0.20889474001E+01 -0.54516363340E+00  0.90229403902E+03  0.90230886273E+03  0.47000000000E+01 0. -1.
         -5    1    1    2    0  503 -0.20889474001E+01  0.54516363340E+00  0.52431546733E+02  0.52686032280E+02  0.47000000000E+01 0. -1.
<mgrwt>
<rscale>  2 0.51721277E+01</rscale>
<asrwt>0</asrwt>
<pdfrwt beam="1">  1       21 0.14689615E+00 0.51721277E+01</pdfrwt>
<pdfrwt beam="2">  1       21 0.20716861E-04 0.51721277E+01</pdfrwt>
<totfact> 0.16389054E+08</totfact>
</mgrwt>
</event>
<event>
 4    1  0.4039863E+006  0.4974930E+01  0.7546771E-02  0.2571620E+00
         21   -1    0    0  503  502  0.00000000000E+00  0.00000000000E+00  0.62123779758E+03  0.62123779758E+03  0.00000000000E+00 0. -1.
         21   -1    0    0  501  503 -0.00000000000E+00 -0.00000000000E+00 -0.11229236962E+00  0.11229236962E+00  0.00000000000E+00 0. -1.
          5    1    1    2  501    0 -0.15697332715E+01 -0.44256543188E+00  0.61012251357E+02  0.61214742851E+02  0.47000000000E+01 0. -1.
         -5    1    1    2    0  502  0.15697332715E+01  0.44256543188E+00  0.56011325385E+03  0.56013534710E+03  0.47000000000E+01 0. -1.
<mgrwt>
<rscale>  2 0.49749298E+01</rscale>
<asrwt>0</asrwt>
<pdfrwt beam="1">  1       21 0.95572294E-01 0.49749298E+01</pdfrwt>
<pdfrwt beam="2">  1       21 0.17276247E-04 0.49749298E+01</pdfrwt>
<totfact> 0.49008634E+08</totfact>
</mgrwt>
</event>
<event>
 4    1  0.4039863E+006  0.6809520E+01  0.7546771E-02  0.2320636E+00
         21   -1    0    0  501  502  0.00000000000E+00  0.00000000000E+00  0.42506718063E+00  0.42506718063E+00  0.00000000000E+00 0.  1.
         21   -1    0    0  502  503 -0.00000000000E+00 -0.00000000000E+00 -0.15542776122E+03  0.15542776122E+03  0.00000000000E+00 0. -1.
          5    1    1    2  501    0  0.35846646179E+01 -0.33807901216E+01 -0.34951389948E+02  0.35608555454E+02  0.47000000000E+01 0.  1.
         -5    1    1    2    0  503 -0.35846646179E+01  0.33807901216E+01 -0.12005130409E+03  0.12024427294E+03  0.47000000000E+01 0. -1.
<mgrwt>
<rscale>  2 0.68095200E+01</rscale>
<asrwt>0</asrwt>
<pdfrwt beam="1">  1       21 0.65394917E-04 0.68095200E+01</pdfrwt>
<pdfrwt beam="2">  1       21 0.23911976E-01 0.68095200E+01</pdfrwt>
<totfact> 0.12625735E+09</totfact>
</mgrwt>
</event>
<event>
 4    1  0.4039863E+006  0.6784119E+01  0.7546771E-02  0.2323324E+00
         21   -1    0    0  503  502  0.00000000000E+00  0.00000000000E+00  0.23868811944E+02  0.23868811944E+02  0.00000000000E+00 0.  1.
         21   -1    0    0  501  503 -0.00000000000E+00 -0.00000000000E+00 -0.31605191904E+01  0.31605191904E+01  0.00000000000E+00 0. -1.
          5    1    1    2  501    0  0.19469658025E+01  0.44881611658E+01  0.19152711017E+01  0.70492928638E+01  0.47000000000E+01 0. -1.
         -5    1    1    2    0  502 -0.19469658025E+01 -0.44881611658E+01  0.18793021652E+02  0.19980038271E+02  0.47000000000E+01 0.  1.
<mgrwt>
<rscale>  2 0.67841187E+01</rscale>
<asrwt>0</asrwt>
<pdfrwt beam="1">  1       21 0.36721248E-02 0.67841187E+01</pdfrwt>
<pdfrwt beam="2">  1       21 0.48623374E-03 0.67841187E+01</pdfrwt>
<totfact> 0.14763172E+09</totfact>
</mgrwt>
</event>
<event>
 4    1  0.4039863E+006  0.5124121E+01  0.7546771E-02  0.2545595E+00
         21   -1    0    0  501  502  0.00000000000E+00  0.00000000000E+00  0.87957963262E-01  0.87957963262E-01  0.00000000000E+00 0. -1.
         21   -1    0    0  502  503 -0.00000000000E+00 -0.00000000000E+00 -0.62348534072E+03  0.62348534072E+03  0.00000000000E+00 0. -1.
          5    1    1    2  501    0  0.79438858365E+00  0.18803088799E+01 -0.86602863922E+02  0.86754323548E+02  0.47000000000E+01 0. -1.
         -5    1    1    2    0  503 -0.79438858365E+00 -0.18803088799E+01 -0.53679451884E+03  0.53681897514E+03  0.47000000000E+01 0. -1.
<mgrwt>
<rscale>  2 0.51241209E+01</rscale>
<asrwt>0</asrwt>
<pdfrwt beam="1">  1       21 0.13532573E-04 0.51241209E+01</pdfrwt>
<pdfrwt beam="2">  1       21 0.95916720E-01 0.51241209E+01</pdfrwt>
<totfact> 0.68768119E+08</totfact>
</mgrwt>
</event>
<event>
 4    1  0.4039863E+006  0.6133435E+01  0.7546771E-02  0.2398374E+00
         21   -1    0    0  503  502  0.00000000000E+00  0.00000000000E+00  0.35230618652E+04  0.35230618652E+04  0.00000000000E+00 0. -1.
         21   -1    0    0  501  503 -0.00000000000E+00 -0.00000000000E+00 -0.57904747079E-01  0.57904747079E-01  0.00000000000E+00 0. -1.
          5    1    1    2  501    0  0.34598284287E+01 -0.18864299135E+01  0.17063218549E+03  0.17074238418E+03  0.47000000000E+01 0. -1.
         -5    1    1    2    0  502 -0.34598284287E+01  0.18864299135E+01  0.33523717750E+04  0.33523773858E+04  0.47000000000E+01 0. -1.
<mgrwt>
<rscale>  2 0.61334355E+01</rscale>
<asrwt>0</asrwt>
<pdfrwt beam="1">  1       21 0.54183789E+00 0.61334355E+01</pdfrwt>
<pdfrwt beam="2">  1       21 0.89112443E-05 0.61334355E+01</pdfrwt>
<totfact> 0.69945478E+06</totfact>
</mgrwt>
</event>
<event>
 4    1  0.4039863E+006  0.5005661E+01  0.7546771E-02  0.2566151E+00
         21   -1    0    0  503  502  0.00000000000E+00  0.00000000000E+00  0.91346396380E+00  0.91346396380E+00  0.00000000000E+00 0.  1.
         21   -1    0    0  501  503 -0.00000000000E+00 -0.00000000000E+00 -0.42413297146E+02  0.42413297146E+02  0.00000000000E+00 0.  1.
          5    1    1    2  501    0  0.14941745308E+01 -0.85678509367E+00 -0.33625704180E+02  0.33996244202E+02  0.47000000000E+01 0.  1.
         -5    1    1    2    0  502 -0.14941745308E+01  0.85678509367E+00 -0.78741290013E+01  0.93305169071E+01  0.47000000000E+01 0.  1.
<mgrwt>
<rscale>  2 0.50056606E+01</rscale>
<asrwt>0</asrwt>
<pdfrwt beam="1">  1       21 0.14053294E-03 0.50056606E+01</pdfrwt>
<pdfrwt beam="2">  1       21 0.65251217E-02 0.50056606E+01</pdfrwt>
<totfact> 0.26397825E+09</totfact>
</mgrwt>
</event>
<event>
 4    1  0.4039863E+006  0.4790865E+01  0.7546771E-02  0.2605647E+00
         21   -1    0    0  503  502  0.00000000000E+00  0.00000000000E+00  0.80531558640E+00  0.80531558640E+00  0.00000000000E+00 0.  1.
         21   -1    0    0  501  503 -0.00000000000E+00 -0.00000000000E+00 -0.29166722823E+02  0.29166722823E+02  0.00000000000E+00 0.  1.
          5    1    1    2  501    0 -0.20960331627E+00 -0.90468641284E+00 -0.11916830329E+02  0.12843801468E+02  0.47000000000E+01 0. -1.
         -5    1    1    2    0  502  0.20960331627E+00  0.90468641284E+00 -0.16444576907E+02  0.17128236941E+02  0.47000000000E+01 0. -1.
<mgrwt>
<rscale>  2 0.47908654E+01</rscale>
<asrwt>0</asrwt>
<pdfrwt beam="1">  1       21 0.12389469E-03 0.47908654E+01</pdfrwt>
<pdfrwt beam="2">  1       21 0.44871888E-02 0.47908654E+01</pdfrwt>
<totfact> 0.51622938E+09</totfact>
</mgrwt>
</event>
<event>
 4    1  0.4039863E+006  0.1207450E+02  0.7546771E-02  0.1973164E+00
         21   -1    0    0  501  502  0.00000000000E+00  0.00000000000E+00  0.14529439831E+02  0.14529439831E+02  0.00000000000E+00 0.  1.
         21   -1    0    0  502  503 -0.00000000000E+00 -0.00000000000E+00 -0.16353246899E+02  0.16353246899E+02  0.00000000000E+00 0. -1.
          5    1    1    2  501    0  0.65401111994E+01  0.89961323147E+01  0.86866059268E+01  0.14874494064E+02  0.47000000000E+01 0.  1.
         -5    1    1    2    0  503 -0.65401111994E+01 -0.89961323147E+01 -0.10510412995E+02  0.16008192667E+02  0.47000000000E+01 0. -1.
<mgrwt>
<rscale>  2 0.12074496E+02</rscale>
<asrwt>0</asrwt>
<pdfrwt beam="1">  1       21 0.22352984E-02 0.12074496E+02</pdfrwt>
<pdfrwt beam="2">  1       21 0.25158841E-02 0.12074496E+02</pdfrwt>
<totfact> 0.40731938E+08</totfact>
</mgrwt>
</event>
<event>
 4    1  0.4039863E+006  0.6504722E+01  0.7546771E-02  0.2354024E+00
         21   -1    0    0  503  502  0.00000000000E+00  0.00000000000E+00  0.10524274603E+04  0.10524274603E+04  0.00000000000E+00 0.  1.
         21   -1    0    0  501  503 -0.00000000000E+00 -0.00000000000E+00 -0.41476162835E-01  0.41476162835E-01  0.00000000000E+00 0. -1.
          5    1    1    2  501    0 -0.11687400176E+01  0.43422872258E+01  0.43401795730E+03  0.43406669841E+03  0.47000000000E+01 0. -1.
         -5    1    1    2    0  502  0.11687400176E+01 -0.43422872258E+01  0.61836802689E+03  0.61840223810E+03  0.47000000000E+01 0. -1.
<mgrwt>
<rscale>  2 0.65047223E+01</rscale>
<asrwt>0</asrwt>
<pdfrwt beam="1">  1       21 0.16189053E+00 0.65047223E+01</pdfrwt>
<pdfrwt beam="2">  1       21 0.63817910E-05 0.65047223E+01</pdfrwt>
<totfact> 0.73654300E+08</totfact>
</mgrwt>
</event>
<event>
 4    1  0.4039863E+006  0.4896654E+01  0.7546771E-02  0.2585820E+00
         21   -1    0    0  503  502  0.00000000000E+00  0.00000000000E+00  0.62615648041E+01  0.62615648041E+01  0.00000000000E+00 0. -1.
         21   -1    0    0  501  503 -0.00000000000E+00 -0.00000000000E+00 -0.43529033262E+01  0.43529033262E+01  0.00000000000E+00 0. -1.
          5    1    1    2  501    0  0.12756862241E+01 -0.50975218862E+00 -0.88640881776E+00  0.49762378589E+01  0.47000000000E+01 0.  1.
         -5    1    1    2    0  502 -0.12756862241E+01  0.50975218862E+00  0.27950702957E+01  0.56382302714E+01  0.47000000000E+01 0.  1.
<mgrwt>
<rscale>  2 0.48966542E+01</rscale>
<asrwt>0</asrwt>
<pdfrwt beam="1">  1       21 0.96331767E-03 0.48966542E+01</pdfrwt>
<pdfrwt beam="2">  1       21 0.66967743E-03 0.48966542E+01</pdfrwt>
<totfact> 0.47678536E+09</totfact>
</mgrwt>
</event>
<event>
 4    1  0.4039863E+006  0.7290484E+01  0.7546771E-02  0.2272668E+00
         21   -1    0    0  501  502  0.00000000000E+00  0.00000000000E+00  0.61486226065E+01  0.61486226065E+01  0.00000000000E+00 0. -1.
         21   -1    0    0  502  503 -0.00000000000E+00 -0.00000000000E+00 -0.86691877413E+01  0.86691877413E+01  0.00000000000E+00 0.  1.
          5    1    1    2  501    0 -0.35745974015E+01 -0.42759108972E+01 -0.86412051272E+00  0.73415165221E+01  0.47000000000E+01 0.  1.
         -5    1    1    2    0  503  0.35745974015E+01  0.42759108972E+01 -0.16564446221E+01  0.74762938258E+01  0.47000000000E+01 0. -1.
<mgrwt>
<rscale>  2 0.72904842E+01</rscale>
<asrwt>0</asrwt>
<pdfrwt beam="1">  1       21 0.94594194E-03 0.72904842E+01</pdfrwt>
<pdfrwt beam="2">  1       21 0.13337212E-02 0.72904842E+01</pdfrwt>
<totfact> 0.26641043E+09</totfact>
</mgrwt>
</event>
<event>
 4    1  0.4039863E+006  0.4973108E+01  0.7546771E-02  0.2571947E+00
         21   -1    0    0  501  502  0.00000000000E+00  0.00000000000E+00  0.50963304065E-01  0.50963304065E-01  0.00000000000E+00 0.  1.
         21   -1    0    0  502  503 -0.00000000000E+00 -0.00000000000E+00 -0.59045028671E+03  0.59045028671E+03  0.00000000000E+00 0. -1.
          5    1    1    2  501    0  0.13070880355E+01 -0.96608885369E+00 -0.17059562016E+03  0.17066809141E+03  0.47000000000E+01 0.  1.
         -5    1    1    2    0  503 -0.13070880355E+01  0.96608885369E+00 -0.41980370325E+03  0.41983315861E+03  0.47000000000E+01 0. -1.
<mgrwt>
<rscale>  2 0.49731084E+01</rscale>
<asrwt>0</asrwt>
<pdfrwt beam="1">  1       21 0.78407109E-05 0.49731084E+01</pdfrwt>
<pdfrwt beam="2">  1       21 0.90836159E-01 0.49731084E+01</pdfrwt>
<totfact> 0.15422276E+09</totfact>
</mgrwt>
</event>
<event>
 4    1  0.4039863E+006  0.4885001E+01  0.7546771E-02  0.2587968E+00
         21   -1    0    0  503  502  0.00000000000E+00  0.00000000000E+00  0.12786631033E+00  0.12786631033E+00  0.00000000000E+00 0. -1.
         21   -1    0    0  501  503 -0.00000000000E+00 -0.00000000000E+00 -0.45273084747E+03  0.45273084747E+03  0.00000000000E+00 0. -1.
          5    1    1    2  501    0 -0.12877098880E+01  0.33917279812E+00 -0.39989709305E+03  0.39992692866E+03  0.47000000000E+01 0. -1.
         -5    1    1    2    0  502  0.12877098880E+01 -0.33917279812E+00 -0.52705888105E+02  0.52931785119E+02  0.47000000000E+01 0. -1.
<mgrwt>
<rscale>  2 0.48850010E+01</rscale>
<asrwt>0</asrwt>
<pdfrwt beam="1">  1       21 0.19671371E-04 0.48850010E+01</pdfrwt>
<pdfrwt beam="2">  1       21 0.69652207E-01 0.48850010E+01</pdfrwt>
<totfact> 0.74726547E+08</totfact>
</mgrwt>
</event>
<event>
 4    1  0.4039863E+006  0.5988594E+01  0.7546771E-02  0.2416910E+00
         21   -1    0    0  503  502  0.00000000000E+00  0.00000000000E+00  0.77123213100E+01  0.77123213100E+01  0.00000000000E+00 0. -1.
         21   -1    0    0  501  503 -0.00000000000E+00 -0.00000000000E+00 -0.66936315230E+01  0.66936315230E+01  0.00000000000E+00 0.  1.
          5    1    1    2  501    0  0.43711929184E+00 -0.36854015458E+01 -0.34705271612E+01  0.69215472696E+01  0.47000000000E+01 0.  1.
         -5    1    1    2    0  502 -0.43711929184E+00  0.36854015458E+01  0.44892169483E+01  0.74844055634E+01  0.47000000000E+01 0. -1.
<mgrwt>
<rscale>  2 0.59885940E+01</rscale>
<asrwt>0</asrwt>
<pdfrwt beam="1">  1       21 0.11865110E-02 0.59885940E+01</pdfrwt>
<pdfrwt beam="2">  1       21 0.10297895E-02 0.59885940E+01</pdfrwt>
<totfact> 0.23736856E+09</totfact>
</mgrwt>
</event>
<event>
 4    1  0.4039863E+006  0.5412449E+01  0.7546771E-02  0.2498805E+00
         21   -1    0    0  501  502  0.00000000000E+00  0.00000000000E+00  0.18464061356E-01  0.18464061356E-01  0.00000000000E+00 0. -1.
         21   -1    0    0  502  503 -0.00000000000E+00 -0.00000000000E+00 -0.16917206750E+04  0.16917206750E+04  0.00000000000E+00 0. -1.
          5    1    1    2  501    0 -0.29817780578E+00  0.26675262808E+01 -0.63497076874E+03  0.63499383600E+03  0.47000000000E+01 0. -1.
         -5    1    1    2    0  503  0.29817780578E+00 -0.26675262808E+01 -0.10567314422E+04  0.10567453031E+04  0.47000000000E+01 0. -1.
<mgrwt>
<rscale>  2 0.54124492E+01</rscale>
<asrwt>0</asrwt>
<pdfrwt beam="1">  1       21 0.28405589E-05 0.54124492E+01</pdfrwt>
<pdfrwt beam="2">  1       21 0.26027076E+00 0.54124492E+01</pdfrwt>
<totfact> 0.68670444E+08</totfact>
</mgrwt>
</event>
<event>
 4    1  0.4039863E+006  0.8635799E+01  0.7546771E-02  0.2162101E+00
         21   -1    0    0  501  502  0.00000000000E+00  0.00000000000E+00  0.77344623748E+01  0.77344623748E+01  0.00000000000E+00 0.  1.
         21   -1    0    0  502  503 -0.00000000000E+00 -0.00000000000E+00 -0.11312019455E+02  0.11312019455E+02  0.00000000000E+00 0. -1.
          5    1    1    2  501    0  0.70645443686E+01 -0.16060010836E+01  0.18701415907E+01  0.88359751124E+01  0.47000000000E+01 0.  1.
         -5    1    1    2    0  503 -0.70645443686E+01  0.16060010836E+01 -0.54476986706E+01  0.10210506717E+02  0.47000000000E+01 0. -1.
<mgrwt>
<rscale>  2 0.86357991E+01</rscale>
<asrwt>0</asrwt>
<pdfrwt beam="1">  1       21 0.11899173E-02 0.86357991E+01</pdfrwt>
<pdfrwt beam="2">  1       21 0.17403107E-02 0.86357991E+01</pdfrwt>
<totfact> 0.14709343E+09</totfact>
</mgrwt>
</event>
<event>
 4    1  0.4039863E+006  0.6673530E+01  0.7546771E-02  0.2335221E+00
         21   -1    0    0  503  502  0.00000000000E+00  0.00000000000E+00  0.21467208055E+03  0.21467208055E+03  0.00000000000E+00 0.  1.
         21   -1    0    0  501  503 -0.00000000000E+00 -0.00000000000E+00 -0.23755461812E+00  0.23755461812E+00  0.00000000000E+00 0.  1.
          5    1    1    2  501    0 -0.31823697893E+01  0.35097765337E+01  0.68971449720E+02  0.69293555871E+02  0.47000000000E+01 0.  1.
         -5    1    1    2    0  502  0.31823697893E+01 -0.35097765337E+01  0.14546307621E+03  0.14561607930E+03  0.47000000000E+01 0.  1.
<mgrwt>
<rscale>  2 0.66735305E+01</rscale>
<asrwt>0</asrwt>
<pdfrwt beam="1">  1       21 0.33026319E-01 0.66735305E+01</pdfrwt>
<pdfrwt beam="2">  1       21 0.36547036E-04 0.66735305E+01</pdfrwt>
<totfact> 0.15783348E+09</totfact>
</mgrwt>
</event>
<event>
 4    1  0.4039863E+006  0.6749782E+01  0.7546771E-02  0.2326984E+00
         21   -1    0    0  503  502  0.00000000000E+00  0.00000000000E+00  0.13302280655E+04  0.13302280655E+04  0.00000000000E+00 0. -1.
         21   -1    0    0  501  503 -0.00000000000E+00 -0.00000000000E+00 -0.34251253484E-01  0.34251253484E-01  0.00000000000E+00 0.  1.
          5    1    1    2  501    0 -0.40000776411E+01 -0.27329355099E+01  0.66024842450E+03  0.66028292542E+03  0.47000000000E+01 0. -1.
         -5    1    1    2    0  502  0.40000776411E+01  0.27329355099E+01  0.66994538979E+03  0.66997939137E+03  0.47000000000E+01 0. -1.
<mgrwt>
<rscale>  2 0.67497820E+01</rscale>
<asrwt>0</asrwt>
<pdfrwt beam="1">  1       21 0.20460910E+00 0.67497820E+01</pdfrwt>
<pdfrwt beam="2">  1       21 0.52704890E-05 0.67497820E+01</pdfrwt>
<totfact> 0.57705063E+08</totfact>
</mgrwt>
</event>
<event>
 4    1  0.4039863E+006  0.7914444E+01  0.7546771E-02  0.2217618E+00
         21   -1    0    0  501  502  0.00000000000E+00  0.00000000000E+00  0.62783504816E+02  0.62783504816E+02  0.00000000000E+00 0. -1.
         21   -1    0    0  502  503 -0.00000000000E+00 -0.00000000000E+00 -0.34933473902E+01  0.34933473902E+01  0.00000000000E+00 0.  1.
          5    1    1    2  501    0  0.34428474057E+01 -0.53567924493E+01  0.57654461791E+02  0.58195149179E+02  0.47000000000E+01 0. -1.
         -5    1    1    2    0  503 -0.34428474057E+01  0.53567924493E+01  0.16356956350E+01  0.80817030269E+01  0.47000000000E+01 0.  1.
<mgrwt>
<rscale>  2 0.79144440E+01</rscale>
<asrwt>0</asrwt>
<pdfrwt beam="1">  1       21 0.96589999E-02 0.79144440E+01</pdfrwt>
<pdfrwt beam="2">  1       21 0.53743811E-03 0.79144440E+01</pdfrwt>
<totfact> 0.32897453E+08</totfact>
</mgrwt>
</event>
<event>
 4    1  0.4039863E+006  0.7668842E+01  0.7546771E-02  0.2238419E+00
         21   -1    0    0  501  502  0.00000000000E+00  0.00000000000E+00  0.10593708281E+02  0.10593708281E+02  0.00000000000E+00 0.  1.
         21   -1    0    0  502  503 -0.00000000000E+00 -0.00000000000E+00 -0.64798494688E+01  0.64798494688E+01  0.00000000000E+00 0. -1.
          5    1    1    2  501    0 -0.55743908102E+01 -0.23764046092E+01  0.52881289737E+01  0.93153335857E+01  0.47000000000E+01 0.  1.
         -5    1    1    2    0  503  0.55743908102E+01  0.23764046092E+01 -0.11742701613E+01  0.77582241643E+01  0.47000000000E+01 0. -1.
<mgrwt>
<rscale>  2 0.76688416E+01</rscale>
<asrwt>0</asrwt>
<pdfrwt beam="1">  1       21 0.16298013E-02 0.76688416E+01</pdfrwt>
<pdfrwt beam="2">  1       21 0.99689992E-03 0.76688416E+01</pdfrwt>
<totfact> 0.19228424E+09</totfact>
</mgrwt>
</event>
<event>
 4    1  0.4039863E+006  0.5358678E+01  0.7546771E-02  0.2507205E+00
         21   -1    0    0  501  502  0.00000000000E+00  0.00000000000E+00  0.17648153340E+01  0.17648153340E+01  0.00000000000E+00 0.  1.
         21   -1    0    0  502  503 -0.00000000000E+00 -0.00000000000E+00 -0.20090448396E+02  0.20090448396E+02  0.00000000000E+00 0. -1.
          5    1    1    2  501    0  0.25059604688E+01  0.58787232323E+00 -0.13927429760E+02  0.14922758842E+02  0.47000000000E+01 0. -1.
         -5    1    1    2    0  503 -0.25059604688E+01 -0.58787232323E+00 -0.43982033028E+01  0.69325048887E+01  0.47000000000E+01 0.  1.
<mgrwt>
<rscale>  2 0.53586782E+01</rscale>
<asrwt>0</asrwt>
<pdfrwt beam="1">  1       21 0.27151005E-03 0.53586782E+01</pdfrwt>
<pdfrwt beam="2">  1       21 0.30908382E-02 0.53586782E+01</pdfrwt>
<totfact> 0.34620019E+09</totfact>
</mgrwt>
</event>
<event>
 4    1  0.4039863E+006  0.6232226E+01  0.7546771E-02  0.2386145E+00
         21   -1    0    0  503  502  0.00000000000E+00  0.00000000000E+00  0.84158036050E+01  0.84158036050E+01  0.00000000000E+00 0. -1.
         21   -1    0    0  501  503 -0.00000000000E+00 -0.00000000000E+00 -0.51614938490E+01  0.51614938490E+01  0.00000000000E+00 0.  1.
          5    1    1    2  501    0 -0.13194671442E+01  0.38742282724E+01  0.38357076046E+01  0.73180114156E+01  0.47000000000E+01 0. -1.
         -5    1    1    2    0  502  0.13194671442E+01 -0.38742282724E+01 -0.58139784851E+00  0.62592860383E+01  0.47000000000E+01 0.  1.
<mgrwt>
<rscale>  2 0.62322258E+01</rscale>
<asrwt>0</asrwt>
<pdfrwt beam="1">  1       21 0.12947390E-02 0.62322258E+01</pdfrwt>
<pdfrwt beam="2">  1       21 0.79407598E-03 0.62322258E+01</pdfrwt>
<totfact> 0.31323077E+09</totfact>
</mgrwt>
</event>
<event>
 4    1  0.4039863E+006  0.5032476E+01  0.7546771E-02  0.2561425E+00
         21   -1    0    0  501  502  0.00000000000E+00  0.00000000000E+00  0.34122354878E+02  0.34122354878E+02  0.00000000000E+00 0. -1.
         21   -1    0    0  502  503 -0.00000000000E+00 -0.00000000000E+00 -0.76439794632E+00  0.76439794632E+00  0.00000000000E+00 0. -1.
          5    1    1    2  501    0 -0.12286865736E+01 -0.13138295897E+01  0.19651108566E+02  0.20285262797E+02  0.47000000000E+01 0.  1.
         -5    1    1    2    0  503  0.12286865736E+01  0.13138295897E+01  0.13706848366E+02  0.14601490027E+02  0.47000000000E+01 0.  1.
<mgrwt>
<rscale>  2 0.50324764E+01</rscale>
<asrwt>0</asrwt>
<pdfrwt beam="1">  1       21 0.52495919E-02 0.50324764E+01</pdfrwt>
<pdfrwt beam="2">  1       21 0.11759971E-03 0.50324764E+01</pdfrwt>
<totfact> 0.46369605E+09</totfact>
</mgrwt>
</event>
<event>
 4    1  0.4039863E+006  0.8803278E+01  0.7546771E-02  0.2150262E+00
         21   -1    0    0  503  502  0.00000000000E+00  0.00000000000E+00  0.56638354014E-01  0.56638354014E-01  0.00000000000E+00 0.  1.
         21   -1    0    0  501  503 -0.00000000000E+00 -0.00000000000E+00 -0.15103643386E+04  0.15103643386E+04  0.00000000000E+00 0. -1.
          5    1    1    2  501    0 -0.17767052182E+01 -0.72284874046E+01 -0.98677834350E+03  0.98681761076E+03  0.47000000000E+01 0.  1.
         -5    1    1    2    0  502  0.17767052182E+01  0.72284874046E+01 -0.52352935675E+03  0.52360336620E+03  0.47000000000E+01 0. -1.
<mgrwt>
<rscale>  2 0.88032785E+01</rscale>
<asrwt>0</asrwt>
<pdfrwt beam="1">  1       21 0.87145655E-05 0.88032785E+01</pdfrwt>
<pdfrwt beam="2">  1       21 0.23233781E+00 0.88032785E+01</pdfrwt>
<totfact> 0.24484545E+08</totfact>
</mgrwt>
</event>
<event>
 4    1  0.4039863E+006  0.4977205E+01  0.7546771E-02  0.2571213E+00
         21   -1    0    0  503  502  0.00000000000E+00  0.00000000000E+00  0.42494473453E+02  0.42494473453E+02  0.00000000000E+00 0.  1.
         21   -1    0    0  501  503 -0.00000000000E+00 -0.00000000000E+00 -0.67194537569E+01  0.67194537569E+01  0.00000000000E+00 0. -1.
          5    1    1    2  501    0  0.16171340227E+01 -0.25971443868E+00 -0.56278264480E+01  0.75129890567E+01  0.47000000000E+01 0. -1.
         -5    1    1    2    0  502 -0.16171340227E+01  0.25971443868E+00  0.41402846144E+02  0.41700938153E+02  0.47000000000E+01 0.  1.
<mgrwt>
<rscale>  2 0.49772054E+01</rscale>
<asrwt>0</asrwt>
<pdfrwt beam="1">  1       21 0.65376111E-02 0.49772054E+01</pdfrwt>
<pdfrwt beam="2">  1       21 0.10337621E-02 0.49772054E+01</pdfrwt>
<totfact> 0.17182660E+08</totfact>
</mgrwt>
</event>
<event>
 4    1  0.4039863E+006  0.4738175E+01  0.7546771E-02  0.2615808E+00
         21   -1    0    0  501  502  0.00000000000E+00  0.00000000000E+00  0.15181986559E+02  0.15181986559E+02  0.00000000000E+00 0.  1.
         21   -1    0    0  502  503 -0.00000000000E+00 -0.00000000000E+00 -0.17774328199E+01  0.17774328199E+01  0.00000000000E+00 0.  1.
          5    1    1    2  501    0 -0.81811304165E-01  0.59464832279E+00  0.10178378940E+02  0.11227185647E+02  0.47000000000E+01 0.  1.
         -5    1    1    2    0  503  0.81811304165E-01 -0.59464832279E+00  0.32261747994E+01  0.57322337316E+01  0.47000000000E+01 0.  1.
<mgrwt>
<rscale>  2 0.47381747E+01</rscale>
<asrwt>0</asrwt>
<pdfrwt beam="1">  1       21 0.23356902E-02 0.47381747E+01</pdfrwt>
<pdfrwt beam="2">  1       21 0.27345121E-03 0.47381747E+01</pdfrwt>
<totfact> 0.45058894E+09</totfact>
</mgrwt>
</event>
<event>
 4    1  0.4039863E+006  0.5146736E+01  0.7546771E-02  0.2541763E+00
         21   -1    0    0  503  502  0.00000000000E+00  0.00000000000E+00  0.64408392220E+01  0.64408392220E+01  0.00000000000E+00 0.  1.
         21   -1    0    0  501  503 -0.00000000000E+00 -0.00000000000E+00 -0.43885781392E+01  0.43885781392E+01  0.00000000000E+00 0.  1.
          5    1    1    2  501    0 -0.34768920120E+00 -0.20683324247E+01 -0.33160415499E+00  0.51574071116E+01  0.47000000000E+01 0.  1.
         -5    1    1    2    0  502  0.34768920120E+00  0.20683324247E+01  0.23838652378E+01  0.56720102496E+01  0.47000000000E+01 0.  1.
<mgrwt>
<rscale>  2 0.51467355E+01</rscale>
<asrwt>0</asrwt>
<pdfrwt beam="1">  1       21 0.99089834E-03 0.51467355E+01</pdfrwt>
<pdfrwt beam="2">  1       21 0.67516587E-03 0.51467355E+01</pdfrwt>
<totfact> 0.47782187E+09</totfact>
</mgrwt>
</event>
<event>
 4    1  0.4039863E+006  0.5108532E+01  0.7546771E-02  0.2548253E+00
         21   -1    0    0  501  502  0.00000000000E+00  0.00000000000E+00  0.60623300412E+01  0.60623300412E+01  0.00000000000E+00 0. -1.
         21   -1    0    0  502  503 -0.00000000000E+00 -0.00000000000E+00 -0.15592164101E+02  0.15592164101E+02  0.00000000000E+00 0. -1.
          5    1    1    2  501    0  0.94722535019E+00 -0.17634794600E+01  0.44472369394E+01  0.67731094827E+01  0.47000000000E+01 0. -1.
         -5    1    1    2    0  503 -0.94722535019E+00  0.17634794600E+01 -0.13977070999E+02  0.14881384660E+02  0.47000000000E+01 0. -1.
<mgrwt>
<rscale>  2 0.51085317E+01</rscale>
<asrwt>0</asrwt>
<pdfrwt beam="1">  1       21 0.93266616E-03 0.51085317E+01</pdfrwt>
<pdfrwt beam="2">  1       21 0.23987945E-02 0.51085317E+01</pdfrwt>
<totfact> 0.86911438E+08</totfact>
</mgrwt>
</event>
<event>
 4    1  0.4039863E+006  0.7038788E+01  0.7546771E-02  0.2297101E+00
         21   -1    0    0  503  502  0.00000000000E+00  0.00000000000E+00  0.55279065430E+01  0.55279065430E+01  0.00000000000E+00 0. -1.
         21   -1    0    0  501  503 -0.00000000000E+00 -0.00000000000E+00 -0.73218693569E+02  0.73218693569E+02  0.00000000000E+00 0.  1.
          5    1    1    2  501    0 -0.30474482357E+01 -0.42623468918E+01 -0.70730234111E+02  0.71079607197E+02  0.47000000000E+01 0.  1.
         -5    1    1    2    0  502  0.30474482357E+01  0.42623468918E+01  0.30394470856E+01  0.76669929152E+01  0.47000000000E+01 0. -1.
<mgrwt>
<rscale>  2 0.70387884E+01</rscale>
<asrwt>0</asrwt>
<pdfrwt beam="1">  1       21 0.85044724E-03 0.70387884E+01</pdfrwt>
<pdfrwt beam="2">  1       21 0.11264413E-01 0.70387884E+01</pdfrwt>
<totfact> 0.12585511E+08</totfact>
</mgrwt>
</event>
<event>
 4    1  0.4039863E+006  0.6807813E+01  0.7546771E-02  0.2320816E+00
         21   -1    0    0  501  502  0.00000000000E+00  0.00000000000E+00  0.19162905292E+00  0.19162905292E+00  0.00000000000E+00 0.  1.
         21   -1    0    0  502  503 -0.00000000000E+00 -0.00000000000E+00 -0.68542014060E+03  0.68542014060E+03  0.00000000000E+00 0. -1.
          5    1    1    2  501    0 -0.60575116105E+00 -0.48876764031E+01 -0.66843078797E+02  0.67188864391E+02  0.47000000000E+01 0.  1.
         -5    1    1    2    0  503  0.60575116105E+00  0.48876764031E+01 -0.61838543275E+03  0.61842290526E+03  0.47000000000E+01 0. -1.
<mgrwt>
<rscale>  2 0.68078128E+01</rscale>
<asrwt>0</asrwt>
<pdfrwt beam="1">  1       21 0.29481699E-04 0.68078128E+01</pdfrwt>
<pdfrwt beam="2">  1       21 0.10544816E+00 0.68078128E+01</pdfrwt>
<totfact> 0.24277709E+08</totfact>
</mgrwt>
</event>
<event>
 4    1  0.4039863E+006  0.5608094E+01  0.7546771E-02  0.2469404E+00
         21   -1    0    0  503  502  0.00000000000E+00  0.00000000000E+00  0.54986937667E+03  0.54986937667E+03  0.00000000000E+00 0. -1.
         21   -1    0    0  501  503 -0.00000000000E+00 -0.00000000000E+00 -0.16537873469E+00  0.16537873469E+00  0.00000000000E+00 0. -1.
          5    1    1    2  501    0 -0.30418754143E+01  0.32819359412E+00  0.52419692601E+02  0.52718828605E+02  0.47000000000E+01 0. -1.
         -5    1    1    2    0  502  0.30418754143E+01 -0.32819359412E+00  0.49728430533E+03  0.49731592680E+03  0.47000000000E+01 0. -1.
<mgrwt>
<rscale>  2 0.56080939E+01</rscale>
<asrwt>0</asrwt>
<pdfrwt beam="1">  1       21 0.84593825E-01 0.56080939E+01</pdfrwt>
<pdfrwt beam="2">  1       21 0.25443323E-04 0.56080939E+01</pdfrwt>
<totfact> 0.40698844E+08</totfact>
</mgrwt>
</event>
<event>
 4    1  0.4039863E+006  0.5015053E+01  0.7546771E-02  0.2564490E+00
         21   -1    0    0  501  502  0.00000000000E+00  0.00000000000E+00  0.24512547739E+00  0.24512547739E+00  0.00000000000E+00 0.  1.
         21   -1    0    0  502  503 -0.00000000000E+00 -0.00000000000E+00 -0.10786310276E+03  0.10786310276E+03  0.00000000000E+00 0.  1.
          5    1    1    2  501    0  0.66662772295E+00 -0.16175172604E+01 -0.41872819882E+02  0.42172073692E+02  0.47000000000E+01 0.  1.
         -5    1    1    2    0  503 -0.66662772295E+00  0.16175172604E+01 -0.65745157402E+02  0.65936154546E+02  0.47000000000E+01 0.  1.
<mgrwt>
<rscale>  2 0.50150528E+01</rscale>
<asrwt>0</asrwt>
<pdfrwt beam="1">  1       21 0.37711569E-04 0.50150528E+01</pdfrwt>
<pdfrwt beam="2">  1       21 0.16594343E-01 0.50150528E+01</pdfrwt>
<totfact> 0.36738464E+09</totfact>
</mgrwt>
</event>
<event>
 4    1  0.4039863E+006  0.6797667E+01  0.7546771E-02  0.2321888E+00
         21   -1    0    0  501  502  0.00000000000E+00  0.00000000000E+00  0.33791642319E+01  0.33791642319E+01  0.00000000000E+00 0.  1.
         21   -1    0    0  502  503 -0.00000000000E+00 -0.00000000000E+00 -0.59493059209E+02  0.59493059209E+02  0.00000000000E+00 0. -1.
          5    1    1    2  501    0 -0.28180335482E+01  0.40220600475E+01 -0.46918178773E+00  0.68138397145E+01  0.47000000000E+01 0.  1.
         -5    1    1    2    0  503  0.28180335482E+01 -0.40220600475E+01 -0.55644713190E+02  0.56058383727E+02  0.47000000000E+01 0. -1.
<mgrwt>
<rscale>  2 0.67976673E+01</rscale>
<asrwt>0</asrwt>
<pdfrwt beam="1">  1       21 0.51987143E-03 0.67976673E+01</pdfrwt>
<pdfrwt beam="2">  1       21 0.91527781E-02 0.67976673E+01</pdfrwt>
<totfact> 0.34017966E+08</totfact>
</mgrwt>
</event>
<event>
 4    1  0.4039863E+006  0.6321077E+01  0.7546771E-02  0.2375419E+00
         21   -1    0    0  503  502  0.00000000000E+00  0.00000000000E+00  0.71040377268E+02  0.71040377268E+02  0.00000000000E+00 0. -1.
         21   -1    0    0  501  503 -0.00000000000E+00 -0.00000000000E+00 -0.13089815540E+01  0.13089815540E+01  0.00000000000E+00 0. -1.
          5    1    1    2  501    0 -0.18597610162E+01  0.37956949575E+01  0.75467059628E+01  0.98442258272E+01  0.47000000000E+01 0. -1.
         -5    1    1    2    0  502  0.18597610162E+01 -0.37956949575E+01  0.62184689751E+02  0.62505132995E+02  0.47000000000E+01 0. -1.
<mgrwt>
<rscale>  2 0.63210767E+01</rscale>
<asrwt>0</asrwt>
<pdfrwt beam="1">  1       21 0.10929286E-01 0.63210767E+01</pdfrwt>
<pdfrwt beam="2">  1       21 0.20138183E-03 0.63210767E+01</pdfrwt>
<totfact> 0.91146272E+08</totfact>
</mgrwt>
</event>
<event>
 4    1  0.4039863E+006  0.7038035E+01  0.7546771E-02  0.2297176E+00
         21   -1    0    0  501  502  0.00000000000E+00  0.00000000000E+00  0.35827363554E+02  0.35827363554E+02  0.00000000000E+00 0. -1.
         21   -1    0    0  502  503 -0.00000000000E+00 -0.00000000000E+00 -0.26194521584E+01  0.26194521584E+01  0.00000000000E+00 0. -1.
          5    1    1    2  501    0  0.39799985542E+01 -0.34063975402E+01  0.29813530651E+02  0.30632997610E+02  0.47000000000E+01 0. -1.
         -5    1    1    2    0  503 -0.39799985542E+01  0.34063975402E+01  0.33943807440E+01  0.78138181018E+01  0.47000000000E+01 0. -1.
<mgrwt>
<rscale>  2 0.70380347E+01</rscale>
<asrwt>0</asrwt>
<pdfrwt beam="1">  1       21 0.55119017E-02 0.70380347E+01</pdfrwt>
<pdfrwt beam="2">  1       21 0.40299267E-03 0.70380347E+01</pdfrwt>
<totfact> 0.10764409E+09</totfact>
</mgrwt>
</event>
<event>
 4    1  0.4039863E+006  0.1070424E+02  0.7546771E-02  0.2036993E+00
         21   -1    0    0  501  502  0.00000000000E+00  0.00000000000E+00  0.58755891072E+00  0.58755891072E+00  0.00000000000E+00 0. -1.
         21   -1    0    0  502  503 -0.00000000000E+00 -0.00000000000E+00 -0.47473427165E+03  0.47473427165E+03  0.00000000000E+00 0.  1.
          5    1    1    2  501    0 -0.37621464042E+01 -0.88508204280E+01 -0.54643316341E+02  0.55681889233E+02  0.47000000000E+01 0. -1.
         -5    1    1    2    0  503  0.37621464042E+01  0.88508204280E+01 -0.41950339640E+03  0.41963994133E+03  0.47000000000E+01 0.  1.
<mgrwt>
<rscale>  2 0.10704241E+02</rscale>
<asrwt>0</asrwt>
<pdfrwt beam="1">  1       21 0.90393883E-04 0.10704241E+02</pdfrwt>
<pdfrwt beam="2">  1       21 0.73035877E-01 0.10704241E+02</pdfrwt>
<totfact> 0.13865442E+08</totfact>
</mgrwt>
</event>
<event>
 4    1  0.4039863E+006  0.6603430E+01  0.7546771E-02  0.2342933E+00
         21   -1    0    0  503  502  0.00000000000E+00  0.00000000000E+00  0.35111121956E+03  0.35111121956E+03  0.00000000000E+00 0. -1.
         21   -1    0    0  501  503 -0.00000000000E+00 -0.00000000000E+00 -0.14424956834E+00  0.14424956834E+00  0.00000000000E+00 0.  1.
          5    1    1    2  501    0  0.16803708439E+01  0.43233832391E+01  0.24097309157E+03  0.24106355210E+03  0.47000000000E+01 0. -1.
         -5    1    1    2    0  502 -0.16803708439E+01 -0.43233832391E+01  0.10999387842E+03  0.11019191703E+03  0.47000000000E+01 0.  1.
<mgrwt>
<rscale>  2 0.66034301E+01</rscale>
<asrwt>0</asrwt>
<pdfrwt beam="1">  1       21 0.54016427E-01 0.66034301E+01</pdfrwt>
<pdfrwt beam="2">  1       21 0.22192522E-04 0.66034301E+01</pdfrwt>
<totfact> 0.12779989E+09</totfact>
</mgrwt>
</event>
<event>
 4    1  0.4039863E+006  0.6877112E+01  0.7546771E-02  0.2313564E+00
         21   -1    0    0  501  502  0.00000000000E+00  0.00000000000E+00  0.50747993013E+00  0.50747993013E+00  0.00000000000E+00 0. -1.
         21   -1    0    0  502  503 -0.00000000000E+00 -0.00000000000E+00 -0.10491253155E+03  0.10491253155E+03  0.00000000000E+00 0.  1.
          5    1    1    2  501    0  0.45401916854E+01 -0.21427373460E+01 -0.34587031903E+02  0.35264109796E+02  0.47000000000E+01 0. -1.
         -5    1    1    2    0  503 -0.45401916854E+01  0.21427373460E+01 -0.69818019721E+02  0.70155901687E+02  0.47000000000E+01 0.  1.
<mgrwt>
<rscale>  2 0.68771116E+01</rscale>
<asrwt>0</asrwt>
<pdfrwt beam="1">  1       21 0.78073793E-04 0.68771116E+01</pdfrwt>
<pdfrwt beam="2">  1       21 0.16140398E-01 0.68771116E+01</pdfrwt>
<totfact> 0.18997871E+09</totfact>
</mgrwt>
</event>
<event>
 4    1  0.4039863E+006  0.7454354E+01  0.7546771E-02  0.2257488E+00
         21   -1    0    0  501  502  0.00000000000E+00  0.00000000000E+00  0.10265440138E+04  0.10265440138E+04  0.00000000000E+00 0.  1.
         21   -1    0    0  502  503 -0.00000000000E+00 -0.00000000000E+00 -0.18795082423E+00  0.18795082423E+00  0.00000000000E+00 0. -1.
          5    1    1    2  501    0  0.54958756969E+01 -0.18090714180E+01  0.94635557322E+03  0.94638493139E+03  0.47000000000E+01 0.  1.
         -5    1    1    2    0  503 -0.54958756969E+01  0.18090714180E+01  0.80000489719E+02  0.80347033202E+02  0.47000000000E+01 0. -1.
<mgrwt>
<rscale>  2 0.74543537E+01</rscale>
<asrwt>0</asrwt>
<pdfrwt beam="1">  1       21 0.15792536E+00 0.74543537E+01</pdfrwt>
<pdfrwt beam="2">  1       21 0.28916333E-04 0.74543537E+01</pdfrwt>
<totfact> 0.11039413E+08</totfact>
</mgrwt>
</event>
<event>
 4    1  0.4039863E+006  0.6304920E+01  0.7546771E-02  0.2377350E+00
         21   -1    0    0  503  502  0.00000000000E+00  0.00000000000E+00  0.68937672592E+03  0.68937672592E+03  0.00000000000E+00 0.  1.
         21   -1    0    0  501  503 -0.00000000000E+00 -0.00000000000E+00 -0.80050363721E-01  0.80050363721E-01  0.00000000000E+00 0. -1.
          5    1    1    2  501    0 -0.28309575294E+01 -0.31060745589E+01  0.16234694636E+03  0.16246932945E+03  0.47000000000E+01 0. -1.
         -5    1    1    2    0  502  0.28309575294E+01  0.31060745589E+01  0.52694972919E+03  0.52698744683E+03  0.47000000000E+01 0.  1.
<mgrwt>
<rscale>  2 0.63049203E+01</rscale>
<asrwt>0</asrwt>
<pdfrwt beam="1">  1       21 0.10605320E+00 0.63049203E+01</pdfrwt>
<pdfrwt beam="2">  1       21 0.12315993E-04 0.63049203E+01</pdfrwt>
<totfact> 0.73584090E+08</totfact>
</mgrwt>
</event>
<event>
 4    1  0.4039863E+006  0.6747209E+01  0.7546771E-02  0.2327259E+00
         21   -1    0    0  501  502  0.00000000000E+00  0.00000000000E+00  0.48450114239E+01  0.48450114239E+01  0.00000000000E+00 0.  1.
         21   -1    0    0  502  503 -0.00000000000E+00 -0.00000000000E+00 -0.94581709365E+01  0.94581709365E+01  0.00000000000E+00 0. -1.
          5    1    1    2  501    0 -0.91396678846E+00 -0.47538925437E+01 -0.17278221285E+01  0.69649263395E+01  0.47000000000E+01 0. -1.
         -5    1    1    2    0  503  0.91396678846E+00  0.47538925437E+01 -0.28853373842E+01  0.73382560209E+01  0.47000000000E+01 0.  1.
<mgrwt>
<rscale>  2 0.67472090E+01</rscale>
<asrwt>0</asrwt>
<pdfrwt beam="1">  1       21 0.74538638E-03 0.67472090E+01</pdfrwt>
<pdfrwt beam="2">  1       21 0.14551032E-02 0.67472090E+01</pdfrwt>
<totfact> 0.30997799E+09</totfact>
</mgrwt>
</event>
<event>
 4    1  0.4039863E+006  0.6475775E+01  0.7546771E-02  0.2357329E+00
         21   -1    0    0  503  502  0.00000000000E+00  0.00000000000E+00  0.61080224894E+00  0.61080224894E+00  0.00000000000E+00 0. -1.
         21   -1    0    0  501  503 -0.00000000000E+00 -0.00000000000E+00 -0.21880582397E+03  0.21880582397E+03  0.00000000000E+00 0.  1.
          5    1    1    2  501    0  0.30867654135E+01 -0.32120938573E+01 -0.19997817619E+03  0.20008299932E+03  0.47000000000E+01 0.  1.
         -5    1    1    2    0  502 -0.30867654135E+01  0.32120938573E+01 -0.18216845530E+02  0.19333626890E+02  0.47000000000E+01 0. -1.
<mgrwt>
<rscale>  2 0.64757754E+01</rscale>
<asrwt>0</asrwt>
<pdfrwt beam="1">  1       21 0.93969519E-04 0.64757754E+01</pdfrwt>
<pdfrwt beam="2">  1       21 0.33662455E-01 0.64757754E+01</pdfrwt>
<totfact> 0.42028155E+08</totfact>
</mgrwt>
</event>
<event>
 4    1  0.4039863E+006  0.5623085E+01  0.7546771E-02  0.2467223E+00
         21   -1    0    0  501  502  0.00000000000E+00  0.00000000000E+00  0.54230912089E+02  0.54230912089E+02  0.00000000000E+00 0.  1.
         21   -1    0    0  502  503 -0.00000000000E+00 -0.00000000000E+00 -0.95539528314E+00  0.95539528314E+00  0.00000000000E+00 0.  1.
          5    1    1    2  501    0  0.30686409743E+01 -0.33545250145E+00  0.43863795696E+02  0.44222750465E+02  0.47000000000E+01 0.  1.
         -5    1    1    2    0  503 -0.30686409743E+01  0.33545250145E+00  0.94117211094E+01  0.10963556907E+02  0.47000000000E+01 0.  1.
<mgrwt>
<rscale>  2 0.56230851E+01</rscale>
<asrwt>0</asrwt>
<pdfrwt beam="1">  1       21 0.83432148E-02 0.56230851E+01</pdfrwt>
<pdfrwt beam="2">  1       21 0.14698393E-03 0.56230851E+01</pdfrwt>
<totfact> 0.19197044E+09</totfact>
</mgrwt>
</event>
<event>
 4    1  0.4039863E+006  0.5184855E+01  0.7546771E-02  0.2535370E+00
         21   -1    0    0  503  502  0.00000000000E+00  0.00000000000E+00  0.70631760146E+01  0.70631760146E+01  0.00000000000E+00 0.  1.
         21   -1    0    0  501  503 -0.00000000000E+00 -0.00000000000E+00 -0.54622553372E+01  0.54622553372E+01  0.00000000000E+00 0.  1.
          5    1    1    2  501    0  0.21738651659E+01  0.25890690898E+00 -0.26480794729E+01  0.58219453314E+01  0.47000000000E+01 0.  1.
         -5    1    1    2    0  502 -0.21738651659E+01 -0.25890690898E+00  0.42490001504E+01  0.67034860204E+01  0.47000000000E+01 0.  1.
<mgrwt>
<rscale>  2 0.51848551E+01</rscale>
<asrwt>0</asrwt>
<pdfrwt beam="1">  1       21 0.10866425E-02 0.51848551E+01</pdfrwt>
<pdfrwt beam="2">  1       21 0.84034698E-03 0.51848551E+01</pdfrwt>
<totfact> 0.31227146E+09</totfact>
</mgrwt>
</event>
<event>
 4    1  0.4039863E+006  0.7261312E+01  0.7546771E-02  0.2275429E+00
         21   -1    0    0  501  502  0.00000000000E+00  0.00000000000E+00  0.13169132238E+02  0.13169132238E+02  0.00000000000E+00 0.  1.
         21   -1    0    0  502  503 -0.00000000000E+00 -0.00000000000E+00 -0.74538279357E+01  0.74538279357E+01  0.00000000000E+00 0.  1.
          5    1    1    2  501    0 -0.18309584318E+01  0.52234326437E+01  0.98728871216E+01  0.12255633704E+02  0.47000000000E+01 0.  1.
         -5    1    1    2    0  503  0.18309584318E+01 -0.52234326437E+01 -0.41575828191E+01  0.83673264702E+01  0.47000000000E+01 0.  1.
<mgrwt>
<rscale>  2 0.72613124E+01</rscale>
<asrwt>0</asrwt>
<pdfrwt beam="1">  1       21 0.20260203E-02 0.72613124E+01</pdfrwt>
<pdfrwt beam="2">  1       21 0.11467428E-02 0.72613124E+01</pdfrwt>
<totfact> 0.11022609E+09</totfact>
</mgrwt>
</event>
<event>
 4    1  0.4039863E+006  0.6988981E+01  0.7546771E-02  0.2302106E+00
         21   -1    0    0  501  502  0.00000000000E+00  0.00000000000E+00  0.90975972550E+02  0.90975972550E+02  0.00000000000E+00 0. -1.
         21   -1    0    0  502  503 -0.00000000000E+00 -0.00000000000E+00 -0.62738521996E+00  0.62738521996E+00  0.00000000000E+00 0.  1.
          5    1    1    2  501    0 -0.13078025428E+01 -0.50045491693E+01  0.62567529546E+02  0.62956664567E+02  0.47000000000E+01 0. -1.
         -5    1    1    2    0  503  0.13078025428E+01  0.50045491693E+01  0.27781057784E+02  0.28646693203E+02  0.47000000000E+01 0.  1.
<mgrwt>
<rscale>  2 0.69889813E+01</rscale>
<asrwt>0</asrwt>
<pdfrwt beam="1">  1       21 0.13996293E-01 0.69889813E+01</pdfrwt>
<pdfrwt beam="2">  1       21 0.96520875E-04 0.69889813E+01</pdfrwt>
<totfact> 0.18114023E+09</totfact>
</mgrwt>
</event>
<event>
 4    1  0.4039863E+006  0.5542184E+01  0.7546771E-02  0.2479112E+00
         21   -1    0    0  501  502  0.00000000000E+00  0.00000000000E+00  0.94818104765E+03  0.94818104765E+03  0.00000000000E+00 0. -1.
         21   -1    0    0  502  503 -0.00000000000E+00 -0.00000000000E+00 -0.32415682123E-01  0.32415682123E-01  0.00000000000E+00 0. -1.
          5    1    1    2  501    0  0.18621679786E+01 -0.22711519486E+01  0.46193972110E+03  0.46197296645E+03  0.47000000000E+01 0. -1.
         -5    1    1    2    0  503 -0.18621679786E+01  0.22711519486E+01  0.48620891087E+03  0.48624049689E+03  0.47000000000E+01 0. -1.
<mgrwt>
<rscale>  2 0.55421838E+01</rscale>
<asrwt>0</asrwt>
<pdfrwt beam="1">  1       21 0.14585180E+00 0.55421838E+01</pdfrwt>
<pdfrwt beam="2">  1       21 0.49877874E-05 0.55421838E+01</pdfrwt>
<totfact> 0.11615669E+09</totfact>
</mgrwt>
</event>
<event>
 4    1  0.4039863E+006  0.5200944E+01  0.7546771E-02  0.2532695E+00
         21   -1    0    0  501  502  0.00000000000E+00  0.00000000000E+00  0.50465645925E+03  0.50465645925E+03  0.00000000000E+00 0. -1.
         21   -1    0    0  502  503 -0.00000000000E+00 -0.00000000000E+00 -0.73994552935E-01  0.73994552935E-01  0.00000000000E+00 0.  1.
          5    1    1    2  501    0  0.11012317034E+01  0.19357451256E+01  0.38478083306E+03  0.38481598110E+03  0.47000000000E+01 0. -1.
         -5    1    1    2    0  503 -0.11012317034E+01 -0.19357451256E+01  0.11980163164E+03  0.11991447270E+03  0.47000000000E+01 0.  1.
<mgrwt>
<rscale>  2 0.52009442E+01</rscale>
<asrwt>0</asrwt>
<pdfrwt beam="1">  1       21 0.77636699E-01 0.52009442E+01</pdfrwt>
<pdfrwt beam="2">  1       21 0.11384181E-04 0.52009442E+01</pdfrwt>
<totfact> 0.13205654E+09</totfact>
</mgrwt>
</event>
<event>
 4    1  0.4039863E+006  0.5432754E+01  0.7546771E-02  0.2495670E+00
         21   -1    0    0  501  502  0.00000000000E+00  0.00000000000E+00  0.47283263902E+00  0.47283263902E+00  0.00000000000E+00 0. -1.
         21   -1    0    0  502  503 -0.00000000000E+00 -0.00000000000E+00 -0.62463821603E+02  0.62463821603E+02  0.00000000000E+00 0. -1.
          5    1    1    2  501    0 -0.20175431805E+00 -0.27173723954E+01 -0.31816748009E+02  0.32277240765E+02  0.47000000000E+01 0. -1.
         -5    1    1    2    0  503  0.20175431805E+00  0.27173723954E+01 -0.30174240955E+02  0.30659413477E+02  0.47000000000E+01 0. -1.
<mgrwt>
<rscale>  2 0.54327541E+01</rscale>
<asrwt>0</asrwt>
<pdfrwt beam="1">  1       21 0.72743522E-04 0.54327541E+01</pdfrwt>
<pdfrwt beam="2">  1       21 0.96098136E-02 0.54327541E+01</pdfrwt>
<totfact> 0.38514174E+09</totfact>
</mgrwt>
</event>
<event>
 4    1  0.4039863E+006  0.1625009E+02  0.7546771E-02  0.1832157E+00
         21   -1    0    0  503  502  0.00000000000E+00  0.00000000000E+00  0.29930474153E+03  0.29930474153E+03  0.00000000000E+00 0.  1.
         21   -1    0    0  501  503 -0.00000000000E+00 -0.00000000000E+00 -0.96184883358E+00  0.96184883358E+00  0.00000000000E+00 0. -1.
          5    1    1    2  501    0 -0.96515838732E+01  0.12199281005E+02  0.10598562094E+03  0.10722414548E+03  0.47000000000E+01 0. -1.
         -5    1    1    2    0  502  0.96515838732E+01 -0.12199281005E+02  0.19235727176E+03  0.19304244489E+03  0.47000000000E+01 0.  1.
<mgrwt>
<rscale>  2 0.16250093E+02</rscale>
<asrwt>0</asrwt>
<pdfrwt beam="1">  1       21 0.46046809E-01 0.16250093E+02</pdfrwt>
<pdfrwt beam="2">  1       21 0.14797698E-03 0.16250093E+02</pdfrwt>
<totfact> 0.19876396E+08</totfact>
</mgrwt>
</event>
<event>
 4    1  0.4039863E+006  0.5339126E+01  0.7546771E-02  0.2510294E+00
         21   -1    0    0  503  502  0.00000000000E+00  0.00000000000E+00  0.24971533304E+01  0.24971533304E+01  0.00000000000E+00 0.  1.
         21   -1    0    0  501  503 -0.00000000000E+00 -0.00000000000E+00 -0.11553755345E+02  0.11553755345E+02  0.00000000000E+00 0.  1.
          5    1    1    2  501    0  0.25268790062E+01 -0.17650493811E+00 -0.52967989115E+01  0.75207945201E+01  0.47000000000E+01 0.  1.
         -5    1    1    2    0  502 -0.25268790062E+01  0.17650493811E+00 -0.37598031030E+01  0.65301141551E+01  0.47000000000E+01 0.  1.
<mgrwt>
<rscale>  2 0.53391265E+01</rscale>
<asrwt>0</asrwt>
<pdfrwt beam="1">  1       21 0.38417744E-03 0.53391265E+01</pdfrwt>
<pdfrwt beam="2">  1       21 0.17775008E-02 0.53391265E+01</pdfrwt>
<totfact> 0.47399872E+09</totfact>
</mgrwt>
</event>
<event>
 4    1  0.4039863E+006  0.5641725E+01  0.7546771E-02  0.2464525E+00
         21   -1    0    0  501  502  0.00000000000E+00  0.00000000000E+00  0.15246809671E+01  0.15246809671E+01  0.00000000000E+00 0.  1.
         21   -1    0    0  502  503 -0.00000000000E+00 -0.00000000000E+00 -0.24151881712E+02  0.24151881712E+02  0.00000000000E+00 0. -1.
          5    1    1    2  501    0  0.28930265936E+01 -0.11702382832E+01 -0.65853190797E+01  0.86715331916E+01  0.47000000000E+01 0.  1.
         -5    1    1    2    0  503 -0.28930265936E+01  0.11702382832E+01 -0.16041881666E+02  0.17005029488E+02  0.47000000000E+01 0. -1.
<mgrwt>
<rscale>  2 0.56417250E+01</rscale>
<asrwt>0</asrwt>
<pdfrwt beam="1">  1       21 0.23456631E-03 0.56417250E+01</pdfrwt>
<pdfrwt beam="2">  1       21 0.37156740E-02 0.56417250E+01</pdfrwt>
<totfact> 0.33946231E+09</totfact>
</mgrwt>
</event>
<event>
 4    1  0.4039863E+006  0.6114969E+01  0.7546771E-02  0.2400696E+00
         21   -1    0    0  503  502  0.00000000000E+00  0.00000000000E+00  0.83802177642E+01  0.83802177642E+01  0.00000000000E+00 0. -1.
         21   -1    0    0  501  503 -0.00000000000E+00 -0.00000000000E+00 -0.94262085502E+01  0.94262085502E+01  0.00000000000E+00 0. -1.
          5    1    1    2  501    0 -0.38821884389E+01 -0.48109999536E+00 -0.69840234432E+01  0.92827489321E+01  0.47000000000E+01 0. -1.
         -5    1    1    2    0  502  0.38821884389E+01  0.48109999536E+00  0.59380326571E+01  0.85236773823E+01  0.47000000000E+01 0. -1.
<mgrwt>
<rscale>  2 0.61149689E+01</rscale>
<asrwt>0</asrwt>
<pdfrwt beam="1">  1       21 0.12892643E-02 0.61149689E+01</pdfrwt>
<pdfrwt beam="2">  1       21 0.14501859E-02 0.61149689E+01</pdfrwt>
<totfact> 0.13214375E+09</totfact>
</mgrwt>
</event>
<event>
 4    1  0.4039863E+006  0.1478941E+02  0.7546771E-02  0.1874564E+00
         21   -1    0    0  503  502  0.00000000000E+00  0.00000000000E+00  0.38449939459E+01  0.38449939459E+01  0.00000000000E+00 0. -1.
         21   -1    0    0  501  503 -0.00000000000E+00 -0.00000000000E+00 -0.34806056412E+03  0.34806056412E+03  0.00000000000E+00 0.  1.
          5    1    1    2  501    0 -0.13024519506E+02  0.51960035203E+01 -0.33304089066E+03  0.33336910686E+03  0.47000000000E+01 0.  1.
         -5    1    1    2    0  502  0.13024519506E+02 -0.51960035203E+01 -0.11174679520E+02  0.18536451206E+02  0.47000000000E+01 0. -1.
<mgrwt>
<rscale>  2 0.14789407E+02</rscale>
<asrwt>0</asrwt>
<pdfrwt beam="1">  1       21 0.59153766E-03 0.14789407E+02</pdfrwt>
<pdfrwt beam="2">  1       21 0.53547767E-01 0.14789407E+02</pdfrwt>
<totfact> 0.19788342E+07</totfact>
</mgrwt>
</event>
<event>
 4    1  0.4039863E+006  0.5929482E+01  0.7546771E-02  0.2424693E+00
         21   -1    0    0  501  502  0.00000000000E+00  0.00000000000E+00  0.12738395219E+03  0.12738395219E+03  0.00000000000E+00 0. -1.
         21   -1    0    0  502  503 -0.00000000000E+00 -0.00000000000E+00 -0.29249812182E+00  0.29249812182E+00  0.00000000000E+00 0. -1.
          5    1    1    2  501    0 -0.29114900127E+01  0.21428909383E+01  0.78704198305E+02  0.78927242360E+02  0.47000000000E+01 0. -1.
         -5    1    1    2    0  503  0.29114900127E+01 -0.21428909383E+01  0.48387255758E+02  0.48749207947E+02  0.47000000000E+01 0. -1.
<mgrwt>
<rscale>  2 0.59294819E+01</rscale>
<asrwt>0</asrwt>
<pdfrwt beam="1">  1       21 0.19597487E-01 0.59294819E+01</pdfrwt>
<pdfrwt beam="2">  1       21 0.44999813E-04 0.59294819E+01</pdfrwt>
<totfact> 0.25934073E+09</totfact>
</mgrwt>
</event>
<event>
 4    1  0.4039863E+006  0.7426028E+01  0.7546771E-02  0.2260073E+00
         21   -1    0    0  503  502  0.00000000000E+00  0.00000000000E+00  0.22997043417E+02  0.22997043417E+02  0.00000000000E+00 0.  1.
         21   -1    0    0  501  503 -0.00000000000E+00 -0.00000000000E+00 -0.46271253993E+01  0.46271253993E+01  0.00000000000E+00 0. -1.
          5    1    1    2  501    0 -0.47382993645E+01 -0.32564409761E+01 -0.40187407195E+00  0.74368939395E+01  0.47000000000E+01 0. -1.
         -5    1    1    2    0  502  0.47382993645E+01  0.32564409761E+01  0.18771792090E+02  0.20187274877E+02  0.47000000000E+01 0.  1.
<mgrwt>
<rscale>  2 0.74260278E+01</rscale>
<asrwt>0</asrwt>
<pdfrwt beam="1">  1       21 0.35380066E-02 0.74260278E+01</pdfrwt>
<pdfrwt beam="2">  1       21 0.71186546E-03 0.74260278E+01</pdfrwt>
<totfact> 0.97453943E+08</totfact>
</mgrwt>
</event>
<event>
 4    1  0.4039863E+006  0.6581130E+01  0.7546771E-02  0.2345415E+00
         21   -1    0    0  501  502  0.00000000000E+00  0.00000000000E+00  0.24513278828E+01  0.24513278828E+01  0.00000000000E+00 0. -1.
         21   -1    0    0  502  503 -0.00000000000E+00 -0.00000000000E+00 -0.59331122465E+02  0.59331122465E+02  0.00000000000E+00 0.  1.
          5    1    1    2  501    0  0.75725379141E+00  0.45439896385E+01 -0.25537643617E+01  0.70592483704E+01  0.47000000000E+01 0. -1.
         -5    1    1    2    0  503 -0.75725379141E+00 -0.45439896385E+01 -0.54326030220E+02  0.54723201977E+02  0.47000000000E+01 0.  1.
<mgrwt>
<rscale>  2 0.65811302E+01</rscale>
<asrwt>0</asrwt>
<pdfrwt beam="1">  1       21 0.37712741E-03 0.65811302E+01</pdfrwt>
<pdfrwt beam="2">  1       21 0.91278639E-02 0.65811302E+01</pdfrwt>
<totfact> 0.52282847E+08</totfact>
</mgrwt>
</event>
<event>
 4    1  0.4039863E+006  0.7658814E+01  0.7546771E-02  0.2239291E+00
         21   -1    0    0  501  502  0.00000000000E+00  0.00000000000E+00  0.12545865258E+03  0.12545865258E+03  0.00000000000E+00 0. -1.
         21   -1    0    0  502  503 -0.00000000000E+00 -0.00000000000E+00 -0.46911134910E+00  0.46911134910E+00  0.00000000000E+00 0. -1.
          5    1    1    2  501    0  0.59764827515E+01  0.92145704639E+00  0.58855212607E+02  0.59351440422E+02  0.47000000000E+01 0. -1.
         -5    1    1    2    0  503 -0.59764827515E+01 -0.92145704639E+00  0.66134328620E+02  0.66576323503E+02  0.47000000000E+01 0. -1.
<mgrwt>
<rscale>  2 0.76588138E+01</rscale>
<asrwt>0</asrwt>
<pdfrwt beam="1">  1       21 0.19301304E-01 0.76588138E+01</pdfrwt>
<pdfrwt beam="2">  1       21 0.72171077E-04 0.76588138E+01</pdfrwt>
<totfact> 0.17074727E+09</totfact>
</mgrwt>
</event>
<event>
 4    1  0.4039863E+006  0.6482314E+01  0.7546771E-02  0.2356580E+00
         21   -1    0    0  503  502  0.00000000000E+00  0.00000000000E+00  0.38780810041E+00  0.38780810041E+00  0.00000000000E+00 0.  1.
         21   -1    0    0  501  503 -0.00000000000E+00 -0.00000000000E+00 -0.13030795612E+03  0.13030795612E+03  0.00000000000E+00 0.  1.
          5    1    1    2  501    0  0.34693943196E+01  0.28095731366E+01 -0.91783024405E+02  0.92011651257E+02  0.47000000000E+01 0.  1.
         -5    1    1    2    0  502 -0.34693943196E+01 -0.28095731366E+01 -0.38137123616E+02  0.38684112964E+02  0.47000000000E+01 0.  1.
<mgrwt>
<rscale>  2 0.64823143E+01</rscale>
<asrwt>0</asrwt>
<pdfrwt beam="1">  1       21 0.59662713E-04 0.64823143E+01</pdfrwt>
<pdfrwt beam="2">  1       21 0.20047402E-01 0.64823143E+01</pdfrwt>
<totfact> 0.18398444E+09</totfact>
</mgrwt>
</event>
<event>
 4    1  0.4039863E+006  0.4865456E+01  0.7546771E-02  0.2591590E+00
         21   -1    0    0  503  502  0.00000000000E+00  0.00000000000E+00  0.14518641245E+03  0.14518641245E+03  0.00000000000E+00 0. -1.
         21   -1    0    0  501  503 -0.00000000000E+00 -0.00000000000E+00 -0.60893431076E+00  0.60893431076E+00  0.00000000000E+00 0. -1.
          5    1    1    2  501    0  0.41271737630E+00  0.11884124186E+01  0.99095837607E+01  0.11039588308E+02  0.47000000000E+01 0. -1.
         -5    1    1    2    0  502 -0.41271737630E+00 -0.11884124186E+01  0.13466789438E+03  0.13475575845E+03  0.47000000000E+01 0. -1.
<mgrwt>
<rscale>  2 0.48654558E+01</rscale>
<asrwt>0</asrwt>
<pdfrwt beam="1">  1       21 0.22336344E-01 0.48654558E+01</pdfrwt>
<pdfrwt beam="2">  1       21 0.93682317E-04 0.48654558E+01</pdfrwt>
<totfact> 0.66825382E+08</totfact>
</mgrwt>
</event>
<event>
 4    1  0.4039863E+006  0.6848634E+01  0.7546771E-02  0.2316530E+00
         21   -1    0    0  503  502  0.00000000000E+00  0.00000000000E+00  0.63695465563E-01  0.63695465563E-01  0.00000000000E+00 0. -1.
         21   -1    0    0  501  503 -0.00000000000E+00 -0.00000000000E+00 -0.75467405974E+03  0.75467405974E+03  0.00000000000E+00 0. -1.
          5    1    1    2  501    0  0.34707648563E+01 -0.35731745261E+01 -0.31854353381E+03  0.31861714755E+03  0.47000000000E+01 0. -1.
         -5    1    1    2    0  502 -0.34707648563E+01  0.35731745261E+01 -0.43606683047E+03  0.43612060766E+03  0.47000000000E+01 0. -1.
<mgrwt>
<rscale>  2 0.68486338E+01</rscale>
<asrwt>0</asrwt>
<pdfrwt beam="1">  1       21 0.98002147E-05 0.68486338E+01</pdfrwt>
<pdfrwt beam="2">  1       21 0.11609289E+00 0.68486338E+01</pdfrwt>
<totfact> 0.87189718E+08</totfact>
</mgrwt>
</event>
<event>
 4    1  0.4039863E+006  0.5466311E+01  0.7546771E-02  0.2490533E+00
         21   -1    0    0  501  502  0.00000000000E+00  0.00000000000E+00  0.26947880760E+03  0.26947880760E+03  0.00000000000E+00 0. -1.
         21   -1    0    0  502  503 -0.00000000000E+00 -0.00000000000E+00 -0.21228455547E+00  0.21228455547E+00  0.00000000000E+00 0.  1.
          5    1    1    2  501    0 -0.80684566492E+00  0.26719945054E+01  0.22782989497E+03  0.22789546199E+03  0.47000000000E+01 0. -1.
         -5    1    1    2    0  503  0.80684566492E+00 -0.26719945054E+01  0.41436628074E+02  0.41795630163E+02  0.47000000000E+01 0.  1.
<mgrwt>
<rscale>  2 0.54663109E+01</rscale>
<asrwt>0</asrwt>
<pdfrwt beam="1">  1       21 0.41458004E-01 0.54663109E+01</pdfrwt>
<pdfrwt beam="2">  1       21 0.32659378E-04 0.54663109E+01</pdfrwt>
<totfact> 0.10648413E+09</totfact>
</mgrwt>
</event>
<event>
 4    1  0.4039863E+006  0.8856996E+01  0.7546771E-02  0.2146541E+00
         21   -1    0    0  501  502  0.00000000000E+00  0.00000000000E+00  0.18789651944E+01  0.18789651944E+01  0.00000000000E+00 0. -1.
         21   -1    0    0  502  503 -0.00000000000E+00 -0.00000000000E+00 -0.67701743211E+02  0.67701743211E+02  0.00000000000E+00 0.  1.
          5    1    1    2  501    0 -0.70498335654E+01 -0.25799671974E+01 -0.11371471748E+02  0.14413769588E+02  0.47000000000E+01 0. -1.
         -5    1    1    2    0  503  0.70498335654E+01  0.25799671974E+01 -0.54451306269E+02  0.55166938817E+02  0.47000000000E+01 0.  1.
<mgrwt>
<rscale>  2 0.88569963E+01</rscale>
<asrwt>0</asrwt>
<pdfrwt beam="1">  1       21 0.28907157E-03 0.88569963E+01</pdfrwt>
<pdfrwt beam="2">  1       21 0.10415653E-01 0.88569963E+01</pdfrwt>
<totfact> 0.74754643E+08</totfact>
</mgrwt>
</event>
<event>
 4    1  0.4039863E+006  0.5223952E+01  0.7546771E-02  0.2528895E+00
         21   -1    0    0  501  502  0.00000000000E+00  0.00000000000E+00  0.60202357867E+01  0.60202357867E+01  0.00000000000E+00 0.  1.
         21   -1    0    0  502  503 -0.00000000000E+00 -0.00000000000E+00 -0.82350869077E+01  0.82350869077E+01  0.00000000000E+00 0.  1.
          5    1    1    2  501    0  0.17712809976E+01  0.14360490102E+01  0.36715720258E+01  0.63851479444E+01  0.47000000000E+01 0.  1.
         -5    1    1    2    0  503 -0.17712809976E+01 -0.14360490102E+01 -0.58864231468E+01  0.78701747500E+01  0.47000000000E+01 0.  1.
<mgrwt>
<rscale>  2 0.52239519E+01</rscale>
<asrwt>0</asrwt>
<pdfrwt beam="1">  1       21 0.92619013E-03 0.52239519E+01</pdfrwt>
<pdfrwt beam="2">  1       21 0.12669364E-02 0.52239519E+01</pdfrwt>
<totfact> 0.22147738E+09</totfact>
</mgrwt>
</event>
<event>
 4    1  0.4039863E+006  0.7327717E+01  0.7546771E-02  0.2269171E+00
         21   -1    0    0  503  502  0.00000000000E+00  0.00000000000E+00  0.20221495356E+01  0.20221495356E+01  0.00000000000E+00 0. -1.
         21   -1    0    0  501  503 -0.00000000000E+00 -0.00000000000E+00 -0.31041200100E+02  0.31041200100E+02  0.00000000000E+00 0. -1.
          5    1    1    2  501    0  0.56153779553E+01  0.27012873900E+00 -0.20795209255E+02  0.22048495801E+02  0.47000000000E+01 0. -1.
         -5    1    1    2    0  502 -0.56153779553E+01 -0.27012873900E+00 -0.82238413088E+01  0.11014853834E+02  0.47000000000E+01 0. -1.
<mgrwt>
<rscale>  2 0.73277172E+01</rscale>
<asrwt>0</asrwt>
<pdfrwt beam="1">  1       21 0.31109994E-03 0.73277172E+01</pdfrwt>
<pdfrwt beam="2">  1       21 0.47755691E-02 0.73277172E+01</pdfrwt>
<totfact> 0.19720779E+09</totfact>
</mgrwt>
</event>
<event>
 4    1  0.4039863E+006  0.7880844E+01  0.7546771E-02  0.2220401E+00
         21   -1    0    0  503  502  0.00000000000E+00  0.00000000000E+00  0.13172979683E+02  0.13172979683E+02  0.00000000000E+00 0. -1.
         21   -1    0    0  501  503 -0.00000000000E+00 -0.00000000000E+00 -0.48630552408E+01  0.48630552408E+01  0.00000000000E+00 0.  1.
          5    1    1    2  501    0 -0.80958648469E+00  0.62739359403E+01  0.25802882671E+01  0.82925020350E+01  0.47000000000E+01 0.  1.
         -5    1    1    2    0  502  0.80958648469E+00 -0.62739359403E+01  0.57296361755E+01  0.97435328892E+01  0.47000000000E+01 0. -1.
<mgrwt>
<rscale>  2 0.78808440E+01</rscale>
<asrwt>0</asrwt>
<pdfrwt beam="1">  1       21 0.20266123E-02 0.78808440E+01</pdfrwt>
<pdfrwt beam="2">  1       21 0.74816235E-03 0.78808440E+01</pdfrwt>
<totfact> 0.21522313E+09</totfact>
</mgrwt>
</event>
<event>
 4    1  0.4039863E+006  0.6100892E+01  0.7546771E-02  0.2402475E+00
         21   -1    0    0  503  502  0.00000000000E+00  0.00000000000E+00  0.21504682167E+02  0.21504682167E+02  0.00000000000E+00 0. -1.
         21   -1    0    0  501  503 -0.00000000000E+00 -0.00000000000E+00 -0.37376250369E+02  0.37376250369E+02  0.00000000000E+00 0.  1.
          5    1    1    2  501    0 -0.25891852321E+01 -0.29029294821E+01 -0.36686503019E+02  0.37190326478E+02  0.47000000000E+01 0.  1.
         -5    1    1    2    0  502  0.25891852321E+01  0.29029294821E+01  0.20814934817E+02  0.21690606058E+02  0.47000000000E+01 0. -1.
<mgrwt>
<rscale>  2 0.61008917E+01</rscale>
<asrwt>0</asrwt>
<pdfrwt beam="1">  1       21 0.33084127E-02 0.61008917E+01</pdfrwt>
<pdfrwt beam="2">  1       21 0.57501923E-02 0.61008917E+01</pdfrwt>
<totfact> 0.45713045E+07</totfact>
</mgrwt>
</event>
<event>
 4    1  0.4039863E+006  0.1105420E+02  0.7546771E-02  0.2019530E+00
         21   -1    0    0  501  502  0.00000000000E+00  0.00000000000E+00  0.26588192278E+01  0.26588192278E+01  0.00000000000E+00 0.  1.
         21   -1    0    0  502  503 -0.00000000000E+00 -0.00000000000E+00 -0.61573407631E+02  0.61573407631E+02  0.00000000000E+00 0. -1.
          5    1    1    2  501    0  0.59903613055E+00 -0.99873128319E+01 -0.13284073053E+02  0.17281836094E+02  0.47000000000E+01 0.  1.
         -5    1    1    2    0  503 -0.59903613055E+00  0.99873128319E+01 -0.45630515351E+02  0.46950390766E+02  0.47000000000E+01 0. -1.
<mgrwt>
<rscale>  2 0.11054197E+02</rscale>
<asrwt>0</asrwt>
<pdfrwt beam="1">  1       21 0.40904911E-03 0.11054197E+02</pdfrwt>
<pdfrwt beam="2">  1       21 0.94728319E-02 0.11054197E+02</pdfrwt>
<totfact> 0.60141138E+08</totfact>
</mgrwt>
</event>
<event>
 4    1  0.4039863E+006  0.8104341E+01  0.7546771E-02  0.2202235E+00
         21   -1    0    0  503  502  0.00000000000E+00  0.00000000000E+00  0.72443696459E+03  0.72443696459E+03  0.00000000000E+00 0. -1.
         21   -1    0    0  501  503 -0.00000000000E+00 -0.00000000000E+00 -0.53357814297E+00  0.53357814297E+00  0.00000000000E+00 0.  1.
          5    1    1    2  501    0  0.22024058518E+01 -0.62241263502E+01  0.31695377342E+02  0.32715092621E+02  0.47000000000E+01 0.  1.
         -5    1    1    2    0  502 -0.22024058518E+01  0.62241263502E+01  0.69220800911E+03  0.69225545011E+03  0.47000000000E+01 0. -1.
<mgrwt>
<rscale>  2 0.81043408E+01</rscale>
<asrwt>0</asrwt>
<pdfrwt beam="1">  1       21 0.11145105E+00 0.81043408E+01</pdfrwt>
<pdfrwt beam="2">  1       21 0.82089525E-04 0.81043408E+01</pdfrwt>
<totfact> 0.59238574E+07</totfact>
</mgrwt>
</event>
<event>
 4    1  0.4039863E+006  0.5273926E+01  0.7546771E-02  0.2520739E+00
         21   -1    0    0  501  502  0.00000000000E+00  0.00000000000E+00  0.12511042769E+02  0.12511042769E+02  0.00000000000E+00 0. -1.
         21   -1    0    0  502  503 -0.00000000000E+00 -0.00000000000E+00 -0.22260077803E+01  0.22260077803E+01  0.00000000000E+00 0. -1.
          5    1    1    2  501    0 -0.22550971230E+01 -0.79926880309E+00  0.54051687031E+01  0.75518303982E+01  0.47000000000E+01 0. -1.
         -5    1    1    2    0  503  0.22550971230E+01  0.79926880309E+00  0.48798662851E+01  0.71852201507E+01  0.47000000000E+01 0. -1.
<mgrwt>
<rscale>  2 0.52739258E+01</rscale>
<asrwt>0</asrwt>
<pdfrwt beam="1">  1       21 0.19247758E-02 0.52739258E+01</pdfrwt>
<pdfrwt beam="2">  1       21 0.34246274E-03 0.52739258E+01</pdfrwt>
<totfact> 0.48923986E+09</totfact>
</mgrwt>
</event>
<event>
 4    1  0.4039863E+006  0.5030419E+01  0.7546771E-02  0.2561786E+00
         21   -1    0    0  503  502  0.00000000000E+00  0.00000000000E+00  0.13077258922E+01  0.13077258922E+01  0.00000000000E+00 0. -1.
         21   -1    0    0  501  503 -0.00000000000E+00 -0.00000000000E+00 -0.20040880774E+02  0.20040880774E+02  0.00000000000E+00 0. -1.
          5    1    1    2  501    0 -0.16441569830E+01 -0.71544926441E+00 -0.11347797461E+02  0.12412800935E+02  0.47000000000E+01 0.  1.
         -5    1    1    2    0  502  0.16441569830E+01  0.71544926441E+00 -0.73853574209E+01  0.89358057314E+01  0.47000000000E+01 0.  1.
<mgrwt>
<rscale>  2 0.50304194E+01</rscale>
<asrwt>0</asrwt>
<pdfrwt beam="1">  1       21 0.20118862E-03 0.50304194E+01</pdfrwt>
<pdfrwt beam="2">  1       21 0.30832121E-02 0.50304194E+01</pdfrwt>
<totfact> 0.48876476E+09</totfact>
</mgrwt>
</event>
<event>
 4    1  0.4039863E+006  0.5268594E+01  0.7546771E-02  0.2521603E+00
         21   -1    0    0  503  502  0.00000000000E+00  0.00000000000E+00  0.24609179215E+02  0.24609179215E+02  0.00000000000E+00 0. -1.
         21   -1    0    0  501  503 -0.00000000000E+00 -0.00000000000E+00 -0.59562935363E+01  0.59562935363E+01  0.00000000000E+00 0. -1.
          5    1    1    2  501    0 -0.15183991058E+01 -0.18337254891E+01 -0.44333489394E+01  0.68856857198E+01  0.47000000000E+01 0. -1.
         -5    1    1    2    0  502  0.15183991058E+01  0.18337254891E+01  0.23086234618E+02  0.23679787031E+02  0.47000000000E+01 0. -1.
<mgrwt>
<rscale>  2 0.52685942E+01</rscale>
<asrwt>0</asrwt>
<pdfrwt beam="1">  1       21 0.37860275E-02 0.52685942E+01</pdfrwt>
<pdfrwt beam="2">  1       21 0.91635287E-03 0.52685942E+01</pdfrwt>
<totfact> 0.47487854E+08</totfact>
</mgrwt>
</event>
<event>
 4    1  0.4039863E+006  0.5200950E+01  0.7546771E-02  0.2532694E+00
         21   -1    0    0  503  502  0.00000000000E+00  0.00000000000E+00  0.78475047010E+02  0.78475047010E+02  0.00000000000E+00 0.  1.
         21   -1    0    0  501  503 -0.00000000000E+00 -0.00000000000E+00 -0.20442237218E+01  0.20442237218E+01  0.00000000000E+00 0.  1.
          5    1    1    2  501    0 -0.98070082455E+00 -0.19995262066E+01  0.15066270764E+01  0.54147764779E+01  0.47000000000E+01 0.  1.
         -5    1    1    2    0  502  0.98070082455E+00  0.19995262066E+01  0.74924196212E+02  0.75104494254E+02  0.47000000000E+01 0.  1.
<mgrwt>
<rscale>  2 0.52009498E+01</rscale>
<asrwt>0</asrwt>
<pdfrwt beam="1">  1       21 0.12073082E-01 0.52009498E+01</pdfrwt>
<pdfrwt beam="2">  1       21 0.31449602E-03 0.52009498E+01</pdfrwt>
<totfact> 0.36513721E+08</totfact>
</mgrwt>
</event>
<event>
 4    1  0.4039863E+006  0.8729022E+01  0.7546771E-02  0.2155467E+00
         21   -1    0    0  503  502  0.00000000000E+00  0.00000000000E+00  0.11647912224E+02  0.11647912224E+02  0.00000000000E+00 0. -1.
         21   -1    0    0  501  503 -0.00000000000E+00 -0.00000000000E+00 -0.17592126135E+02  0.17592126135E+02  0.00000000000E+00 0.  1.
          5    1    1    2  501    0 -0.67040362474E+00 -0.73250513917E+01 -0.14559361071E+02  0.16975594649E+02  0.47000000000E+01 0.  1.
         -5    1    1    2    0  502  0.67040362474E+00  0.73250513917E+01  0.86151471600E+01  0.12264443709E+02  0.47000000000E+01 0. -1.
<mgrwt>
<rscale>  2 0.87290216E+01</rscale>
<asrwt>0</asrwt>
<pdfrwt beam="1">  1       21 0.17919865E-02 0.87290216E+01</pdfrwt>
<pdfrwt beam="2">  1       21 0.27064809E-02 0.87290216E+01</pdfrwt>
<totfact> 0.42595647E+08</totfact>
</mgrwt>
</event>
<event>
 4    1  0.4039863E+006  0.5443486E+01  0.7546771E-02  0.2494022E+00
         21   -1    0    0  501  502  0.00000000000E+00  0.00000000000E+00  0.90318665102E+01  0.90318665102E+01  0.00000000000E+00 0.  1.
         21   -1    0    0  502  503 -0.00000000000E+00 -0.00000000000E+00 -0.60820475147E+01  0.60820475147E+01  0.00000000000E+00 0.  1.
          5    1    1    2  501    0 -0.21112496885E+01  0.17561796772E+01  0.66035180463E+01  0.85579198929E+01  0.47000000000E+01 0.  1.
         -5    1    1    2    0  503  0.21112496885E+01 -0.17561796772E+01 -0.36536990507E+01  0.65559941320E+01  0.47000000000E+01 0.  1.
<mgrwt>
<rscale>  2 0.54434862E+01</rscale>
<asrwt>0</asrwt>
<pdfrwt beam="1">  1       21 0.13895179E-02 0.54434862E+01</pdfrwt>
<pdfrwt beam="2">  1       21 0.93569962E-03 0.54434862E+01</pdfrwt>
<totfact> 0.19947602E+09</totfact>
</mgrwt>
</event>
<event>
 4    1  0.4039863E+006  0.9780291E+01  0.7546771E-02  0.2087712E+00
         21   -1    0    0  503  502  0.00000000000E+00  0.00000000000E+00  0.48089238944E+00  0.48089238944E+00  0.00000000000E+00 0.  1.
         21   -1    0    0  501  503 -0.00000000000E+00 -0.00000000000E+00 -0.38467149071E+03  0.38467149071E+03  0.00000000000E+00 0. -1.
          5    1    1    2  501    0 -0.48970086239E+01 -0.70415476605E+01 -0.32591990342E+03  0.32606661518E+03  0.47000000000E+01 0. -1.
         -5    1    1    2    0  502  0.48970086239E+01  0.70415476605E+01 -0.58270694894E+02  0.59085767917E+02  0.47000000000E+01 0. -1.
<mgrwt>
<rscale>  2 0.97802907E+01</rscale>
<asrwt>0</asrwt>
<pdfrwt beam="1">  1       21 0.73983544E-04 0.97802907E+01</pdfrwt>
<pdfrwt beam="2">  1       21 0.59180149E-01 0.97802907E+01</pdfrwt>
<totfact> 0.26449862E+08</totfact>
</mgrwt>
</event>
<event>
 4    1  0.4039863E+006  0.4932648E+01  0.7546771E-02  0.2579242E+00
         21   -1    0    0  501  502  0.00000000000E+00  0.00000000000E+00  0.35312654018E+02  0.35312654018E+02  0.00000000000E+00 0.  1.
         21   -1    0    0  502  503 -0.00000000000E+00 -0.00000000000E+00 -0.17261762564E+01  0.17261762564E+01  0.00000000000E+00 0.  1.
          5    1    1    2  501    0 -0.27197753504E+00  0.14720885790E+01  0.31148378991E+02  0.31536526922E+02  0.47000000000E+01 0.  1.
         -5    1    1    2    0  503  0.27197753504E+00 -0.14720885790E+01  0.24380987709E+01  0.55023033523E+01  0.47000000000E+01 0.  1.
<mgrwt>
<rscale>  2 0.49326480E+01</rscale>
<asrwt>0</asrwt>
<pdfrwt beam="1">  1       21 0.54327155E-02 0.49326480E+01</pdfrwt>
<pdfrwt beam="2">  1       21 0.26556560E-03 0.49326480E+01</pdfrwt>
<totfact> 0.14486134E+09</totfact>
</mgrwt>
</event>
<event>
 4    1  0.4039863E+006  0.1091074E+02  0.7546771E-02  0.2026583E+00
         21   -1    0    0  503  502  0.00000000000E+00  0.00000000000E+00  0.10774912444E+01  0.10774912444E+01  0.00000000000E+00 0. -1.
         21   -1    0    0  501  503 -0.00000000000E+00 -0.00000000000E+00 -0.15958466223E+03  0.15958466223E+03  0.00000000000E+00 0.  1.
          5    1    1    2  501    0  0.30063456221E+01 -0.93763582265E+01 -0.12381276323E+03  0.12429257640E+03  0.47000000000E+01 0.  1.
         -5    1    1    2    0  502 -0.30063456221E+01  0.93763582265E+01 -0.34694407749E+02  0.36369577075E+02  0.47000000000E+01 0.  1.
<mgrwt>
<rscale>  2 0.10910738E+02</rscale>
<asrwt>0</asrwt>
<pdfrwt beam="1">  1       21 0.16576805E-03 0.10910738E+02</pdfrwt>
<pdfrwt beam="2">  1       21 0.24551462E-01 0.10910738E+02</pdfrwt>
<totfact> 0.44568601E+08</totfact>
</mgrwt>
</event>
<event>
 4    1  0.4039863E+006  0.6278398E+01  0.7546771E-02  0.2380539E+00
         21   -1    0    0  501  502  0.00000000000E+00  0.00000000000E+00  0.51880678804E+01  0.51880678804E+01  0.00000000000E+00 0. -1.
         21   -1    0    0  502  503 -0.00000000000E+00 -0.00000000000E+00 -0.99751832091E+01  0.99751832091E+01  0.00000000000E+00 0.  1.
          5    1    1    2  501    0  0.39560395114E+01 -0.12953913810E+01 -0.60947759779E+01  0.87501189516E+01  0.47000000000E+01 0.  1.
         -5    1    1    2    0  503 -0.39560395114E+01  0.12953913810E+01  0.13076606492E+01  0.64131321380E+01  0.47000000000E+01 0. -1.
<mgrwt>
<rscale>  2 0.62783985E+01</rscale>
<asrwt>0</asrwt>
<pdfrwt beam="1">  1       21 0.79816430E-03 0.62783985E+01</pdfrwt>
<pdfrwt beam="2">  1       21 0.15346436E-02 0.62783985E+01</pdfrwt>
<totfact> 0.24557145E+09</totfact>
</mgrwt>
</event>
<event>
 4    1  0.4039863E+006  0.1170527E+02  0.7546771E-02  0.1989221E+00
         21   -1    0    0  503  502  0.00000000000E+00  0.00000000000E+00  0.74758927521E+01  0.74758927521E+01  0.00000000000E+00 0. -1.
         21   -1    0    0  501  503 -0.00000000000E+00 -0.00000000000E+00 -0.40693165960E+02  0.40693165960E+02  0.00000000000E+00 0.  1.
          5    1    1    2  501    0 -0.10607057577E+02  0.15536045562E+01  0.12467692788E+01  0.11771482116E+02  0.47000000000E+01 0. -1.
         -5    1    1    2    0  502  0.10607057577E+02 -0.15536045562E+01 -0.34464042487E+02  0.36397576597E+02  0.47000000000E+01 0.  1.
<mgrwt>
<rscale>  2 0.11705271E+02</rscale>
<asrwt>0</asrwt>
<pdfrwt beam="1">  1       21 0.11501374E-02 0.11705271E+02</pdfrwt>
<pdfrwt beam="2">  1       21 0.62604869E-02 0.11705271E+02</pdfrwt>
<totfact> 0.26633599E+08</totfact>
</mgrwt>
</event>
<event>
 4    1  0.4039863E+006  0.5023837E+01  0.7546771E-02  0.2562942E+00
         21   -1    0    0  501  502  0.00000000000E+00  0.00000000000E+00  0.16355798607E+02  0.16355798607E+02  0.00000000000E+00 0. -1.
         21   -1    0    0  502  503 -0.00000000000E+00 -0.00000000000E+00 -0.58255123299E+01  0.58255123299E+01  0.00000000000E+00 0. -1.
          5    1    1    2  501    0 -0.17723050610E+01  0.88733952384E-01  0.14774112381E+02  0.15604913828E+02  0.47000000000E+01 0. -1.
         -5    1    1    2    0  503  0.17723050610E+01 -0.88733952384E-01 -0.42438261032E+01  0.65763971092E+01  0.47000000000E+01 0. -1.
<mgrwt>
<rscale>  2 0.50238371E+01</rscale>
<asrwt>0</asrwt>
<pdfrwt beam="1">  1       21 0.25162767E-02 0.50238371E+01</pdfrwt>
<pdfrwt beam="2">  1       21 0.89623267E-03 0.50238371E+01</pdfrwt>
<totfact> 0.84478205E+08</totfact>
</mgrwt>
</event>
<event>
 4    1  0.4039863E+006  0.8182913E+01  0.7546771E-02  0.2196039E+00
         21   -1    0    0  501  502  0.00000000000E+00  0.00000000000E+00  0.40730572149E+01  0.40730572149E+01  0.00000000000E+00 0.  1.
         21   -1    0    0  502  503 -0.00000000000E+00 -0.00000000000E+00 -0.16888002441E+02  0.16888002441E+02  0.00000000000E+00 0. -1.
          5    1    1    2  501    0 -0.65724358073E+01  0.12935048665E+01 -0.81149401798E+01  0.11524422823E+02  0.47000000000E+01 0. -1.
         -5    1    1    2    0  503  0.65724358073E+01 -0.12935048665E+01 -0.47000050463E+01  0.94366368329E+01  0.47000000000E+01 0.  1.
<mgrwt>
<rscale>  2 0.81829131E+01</rscale>
<asrwt>0</asrwt>
<pdfrwt beam="1">  1       21 0.62662417E-03 0.81829131E+01</pdfrwt>
<pdfrwt beam="2">  1       21 0.25981543E-02 0.81829131E+01</pdfrwt>
<totfact> 0.19741552E+09</totfact>
</mgrwt>
</event>
<event>
 4    1  0.4039863E+006  0.7371704E+01  0.7546771E-02  0.2265076E+00
         21   -1    0    0  503  502  0.00000000000E+00  0.00000000000E+00  0.82470885003E+00  0.82470885003E+00  0.00000000000E+00 0. -1.
         21   -1    0    0  501  503 -0.00000000000E+00 -0.00000000000E+00 -0.10710865441E+03  0.10710865441E+03  0.00000000000E+00 0.  1.
          5    1    1    2  501    0 -0.31539990109E+01 -0.47227435422E+01 -0.86619076642E+02  0.86932194581E+02  0.47000000000E+01 0.  1.
         -5    1    1    2    0  502  0.31539990109E+01  0.47227435422E+01 -0.19664868916E+02  0.21001168677E+02  0.47000000000E+01 0. -1.
<mgrwt>
<rscale>  2 0.73717038E+01</rscale>
<asrwt>0</asrwt>
<pdfrwt beam="1">  1       21 0.12687827E-03 0.73717038E+01</pdfrwt>
<pdfrwt beam="2">  1       21 0.16478256E-01 0.73717038E+01</pdfrwt>
<totfact> 0.99874627E+08</totfact>
</mgrwt>
</event>
<event>
 4    1  0.4039863E+006  0.5393368E+01  0.7546771E-02  0.2501770E+00
         21   -1    0    0  501  502  0.00000000000E+00  0.00000000000E+00  0.10025143753E+03  0.10025143753E+03  0.00000000000E+00 0.  1.
         21   -1    0    0  502  503 -0.00000000000E+00 -0.00000000000E+00 -0.29078780628E+00  0.29078780628E+00  0.00000000000E+00 0.  1.
          5    1    1    2  501    0 -0.10763111516E+01 -0.24166038790E+01  0.52326111368E+02  0.52603330226E+02  0.47000000000E+01 0.  1.
         -5    1    1    2    0  503  0.10763111516E+01  0.24166038790E+01  0.47634538359E+02  0.47938895113E+02  0.47000000000E+01 0.  1.
<mgrwt>
<rscale>  2 0.53933682E+01</rscale>
<asrwt>0</asrwt>
<pdfrwt beam="1">  1       21 0.15423271E-01 0.53933682E+01</pdfrwt>
<pdfrwt beam="2">  1       21 0.44736665E-04 0.53933682E+01</pdfrwt>
<totfact> 0.35206819E+09</totfact>
</mgrwt>
</event>
<event>
 4    1  0.4039863E+006  0.4932993E+01  0.7546771E-02  0.2579180E+00
         21   -1    0    0  501  502  0.00000000000E+00  0.00000000000E+00  0.39685798942E+03  0.39685798942E+03  0.00000000000E+00 0.  1.
         21   -1    0    0  502  503 -0.00000000000E+00 -0.00000000000E+00 -0.64150959670E-01  0.64150959670E-01  0.00000000000E+00 0.  1.
          5    1    1    2  501    0  0.14691927678E+01 -0.29307745511E+00  0.15668920117E+03  0.15676683382E+03  0.47000000000E+01 0. -1.
         -5    1    1    2    0  503 -0.14691927678E+01  0.29307745511E+00  0.24010463729E+03  0.24015530656E+03  0.47000000000E+01 0. -1.
<mgrwt>
<rscale>  2 0.49329932E+01</rscale>
<asrwt>0</asrwt>
<pdfrwt beam="1">  1       21 0.61053109E-01 0.49329932E+01</pdfrwt>
<pdfrwt beam="2">  1       21 0.98696962E-05 0.49329932E+01</pdfrwt>
<totfact> 0.23940173E+09</totfact>
</mgrwt>
</event>
<event>
 4    1  0.4039863E+006  0.2259661E+02  0.7546771E-02  0.1698134E+00
         21   -1    0    0  501  502  0.00000000000E+00  0.00000000000E+00  0.13709744664E+03  0.13709744664E+03  0.00000000000E+00 0.  1.
         21   -1    0    0  502  503 -0.00000000000E+00 -0.00000000000E+00 -0.31117032353E+02  0.31117032353E+02  0.00000000000E+00 0. -1.
          5    1    1    2  501    0  0.90209688273E+01  0.20177687551E+02  0.13190367103E+03  0.13382520459E+03  0.47000000000E+01 0.  1.
         -5    1    1    2    0  503 -0.90209688273E+01 -0.20177687551E+02 -0.25923256744E+02  0.34389274399E+02  0.47000000000E+01 0. -1.
<mgrwt>
<rscale>  2 0.22596614E+02</rscale>
<asrwt>0</asrwt>
<pdfrwt beam="1">  1       21 0.21091915E-01 0.22596614E+02</pdfrwt>
<pdfrwt beam="2">  1       21 0.47872358E-02 0.22596614E+02</pdfrwt>
<totfact> 0.50091765E+06</totfact>
</mgrwt>
</event>
<event>
 4    1  0.4039863E+006  0.6238076E+01  0.7546771E-02  0.2385431E+00
         21   -1    0    0  501  502  0.00000000000E+00  0.00000000000E+00  0.15330641452E+03  0.15330641452E+03  0.00000000000E+00 0.  1.
         21   -1    0    0  502  503 -0.00000000000E+00 -0.00000000000E+00 -0.83291801907E+00  0.83291801907E+00  0.00000000000E+00 0. -1.
          5    1    1    2  501    0  0.21402156933E+00  0.40960702369E+01  0.14049886943E+03  0.14063728491E+03  0.47000000000E+01 0.  1.
         -5    1    1    2    0  503 -0.21402156933E+00 -0.40960702369E+01  0.11974627075E+02  0.13502047630E+02  0.47000000000E+01 0. -1.
<mgrwt>
<rscale>  2 0.62380764E+01</rscale>
<asrwt>0</asrwt>
<pdfrwt beam="1">  1       21 0.23585580E-01 0.62380764E+01</pdfrwt>
<pdfrwt beam="2">  1       21 0.12814136E-03 0.62380764E+01</pdfrwt>
<totfact> 0.48971487E+08</totfact>
</mgrwt>
</event>
<event>
 4    1  0.4039863E+006  0.1780193E+02  0.7546771E-02  0.1792939E+00
         21   -1    0    0  501  502  0.00000000000E+00  0.00000000000E+00  0.25920353939E+00  0.25920353939E+00  0.00000000000E+00 0. -1.
         21   -1    0    0  502  503 -0.00000000000E+00 -0.00000000000E+00 -0.12325414838E+04  0.12325414838E+04  0.00000000000E+00 0. -1.
          5    1    1    2  501    0 -0.13115441721E+02  0.11081687084E+02 -0.67143179039E+03  0.67166774356E+03  0.47000000000E+01 0. -1.
         -5    1    1    2    0  503  0.13115441721E+02 -0.11081687084E+02 -0.56085048990E+03  0.56113294380E+03  0.47000000000E+01 0. -1.
<mgrwt>
<rscale>  2 0.17801927E+02</rscale>
<asrwt>0</asrwt>
<pdfrwt beam="1">  1       21 0.39877617E-04 0.17801927E+02</pdfrwt>
<pdfrwt beam="2">  1       21 0.18962105E+00 0.17801927E+02</pdfrwt>
<totfact> 0.62031747E+07</totfact>
</mgrwt>
</event>
<event>
 4    1  0.4039863E+006  0.4903214E+01  0.7546771E-02  0.2584615E+00
         21   -1    0    0  503  502  0.00000000000E+00  0.00000000000E+00  0.56941370774E+00  0.56941370774E+00  0.00000000000E+00 0.  1.
         21   -1    0    0  501  503 -0.00000000000E+00 -0.00000000000E+00 -0.63878376895E+02  0.63878376895E+02  0.00000000000E+00 0.  1.
          5    1    1    2  501    0  0.12902950079E+01  0.53539217291E+00 -0.50417336720E+02  0.50655200601E+02  0.47000000000E+01 0.  1.
         -5    1    1    2    0  502 -0.12902950079E+01 -0.53539217291E+00 -0.12891626467E+02  0.13792590002E+02  0.47000000000E+01 0.  1.
<mgrwt>
<rscale>  2 0.49032138E+01</rscale>
<asrwt>0</asrwt>
<pdfrwt beam="1">  1       21 0.87602077E-04 0.49032138E+01</pdfrwt>
<pdfrwt beam="2">  1       21 0.98274461E-02 0.49032138E+01</pdfrwt>
<totfact> 0.26307081E+09</totfact>
</mgrwt>
</event>
<event>
 4    1  0.4039863E+006  0.5421175E+01  0.7546771E-02  0.2497456E+00
         21   -1    0    0  501  502  0.00000000000E+00  0.00000000000E+00  0.28775474012E+00  0.28775474012E+00  0.00000000000E+00 0.  1.
         21   -1    0    0  502  503 -0.00000000000E+00 -0.00000000000E+00 -0.10828396756E+03  0.10828396756E+03  0.00000000000E+00 0.  1.
          5    1    1    2  501    0  0.21132241051E+01  0.16832782368E+01 -0.41059418166E+02  0.41415757410E+02  0.47000000000E+01 0.  1.
         -5    1    1    2    0  503 -0.21132241051E+01 -0.16832782368E+01 -0.66936794650E+02  0.67155964886E+02  0.47000000000E+01 0.  1.
<mgrwt>
<rscale>  2 0.54211753E+01</rscale>
<asrwt>0</asrwt>
<pdfrwt beam="1">  1       21 0.44269936E-04 0.54211753E+01</pdfrwt>
<pdfrwt beam="2">  1       21 0.16659081E-01 0.54211753E+01</pdfrwt>
<totfact> 0.31777103E+09</totfact>
</mgrwt>
</event>
<event>
 4    1  0.4039863E+006  0.5785333E+01  0.7546771E-02  0.2444229E+00
         21   -1    0    0  501  502  0.00000000000E+00  0.00000000000E+00  0.89075034478E-01  0.89075034478E-01  0.00000000000E+00 0. -1.
         21   -1    0    0  502  503 -0.00000000000E+00 -0.00000000000E+00 -0.40107200108E+03  0.40107200108E+03  0.00000000000E+00 0. -1.
          5    1    1    2  501    0 -0.15658960595E+01  0.29879839887E+01 -0.25088950619E+03  0.25095620015E+03  0.47000000000E+01 0. -1.
         -5    1    1    2    0  503  0.15658960595E+01 -0.29879839887E+01 -0.15009341985E+03  0.15020487596E+03  0.47000000000E+01 0. -1.
<mgrwt>
<rscale>  2 0.57853331E+01</rscale>
<asrwt>0</asrwt>
<pdfrwt beam="1">  1       21 0.13703893E-04 0.57853331E+01</pdfrwt>
<pdfrwt beam="2">  1       21 0.61703199E-01 0.57853331E+01</pdfrwt>
<totfact> 0.17289150E+09</totfact>
</mgrwt>
</event>
<event>
 4    1  0.4039863E+006  0.1246675E+02  0.7546771E-02  0.1956914E+00
         21   -1    0    0  503  502  0.00000000000E+00  0.00000000000E+00  0.27440220410E+01  0.27440220410E+01  0.00000000000E+00 0.  1.
         21   -1    0    0  501  503 -0.00000000000E+00 -0.00000000000E+00 -0.56656589485E+02  0.56656589485E+02  0.00000000000E+00 0. -1.
          5    1    1    2  501    0  0.11094523361E+02 -0.32002189186E+01 -0.26439435725E+02  0.29231209541E+02  0.47000000000E+01 0. -1.
         -5    1    1    2    0  502 -0.11094523361E+02  0.32002189186E+01 -0.27473131719E+02  0.30169401985E+02  0.47000000000E+01 0.  1.
<mgrwt>
<rscale>  2 0.12466750E+02</rscale>
<asrwt>0</asrwt>
<pdfrwt beam="1">  1       21 0.42215723E-03 0.12466750E+02</pdfrwt>
<pdfrwt beam="2">  1       21 0.87163986E-02 0.12466750E+02</pdfrwt>
<totfact> 0.69691831E+08</totfact>
</mgrwt>
</event>
<event>
 4    1  0.4039863E+006  0.5435250E+01  0.7546771E-02  0.2495286E+00
         21   -1    0    0  503  502  0.00000000000E+00  0.00000000000E+00  0.24159392176E+02  0.24159392176E+02  0.00000000000E+00 0. -1.
         21   -1    0    0  501  503 -0.00000000000E+00 -0.00000000000E+00 -0.12731909549E+01  0.12731909549E+01  0.00000000000E+00 0.  1.
          5    1    1    2  501    0 -0.23901679740E+01 -0.13187284093E+01  0.13973086127E+02  0.14992967801E+02  0.47000000000E+01 0. -1.
         -5    1    1    2    0  502  0.23901679740E+01  0.13187284093E+01  0.89131150943E+01  0.10439615330E+02  0.47000000000E+01 0. -1.
<mgrwt>
<rscale>  2 0.54352505E+01</rscale>
<asrwt>0</asrwt>
<pdfrwt beam="1">  1       21 0.37168292E-02 0.54352505E+01</pdfrwt>
<pdfrwt beam="2">  1       21 0.19587555E-03 0.54352505E+01</pdfrwt>
<totfact> 0.41846737E+09</totfact>
</mgrwt>
</event>
<event>
 4    1  0.4039863E+006  0.5783481E+01  0.7546771E-02  0.2444485E+00
         21   -1    0    0  501  502  0.00000000000E+00  0.00000000000E+00  0.12588245154E+03  0.12588245154E+03  0.00000000000E+00 0. -1.
         21   -1    0    0  502  503 -0.00000000000E+00 -0.00000000000E+00 -0.33946958852E+00  0.33946958852E+00  0.00000000000E+00 0. -1.
          5    1    1    2  501    0 -0.52821805758E+00  0.33286091145E+01  0.92188845562E+02  0.92370081189E+02  0.47000000000E+01 0. -1.
         -5    1    1    2    0  503  0.52821805758E+00 -0.33286091145E+01  0.33354136394E+02  0.33851839943E+02  0.47000000000E+01 0. -1.
<mgrwt>
<rscale>  2 0.57834810E+01</rscale>
<asrwt>0</asrwt>
<pdfrwt beam="1">  1       21 0.19366494E-01 0.57834810E+01</pdfrwt>
<pdfrwt beam="2">  1       21 0.52226191E-04 0.57834810E+01</pdfrwt>
<totfact> 0.21221339E+09</totfact>
</mgrwt>
</event>
<event>
 4    1  0.4039863E+006  0.5922490E+01  0.7546771E-02  0.2425622E+00
         21   -1    0    0  501  502  0.00000000000E+00  0.00000000000E+00  0.57977140975E+01  0.57977140975E+01  0.00000000000E+00 0. -1.
         21   -1    0    0  502  503 -0.00000000000E+00 -0.00000000000E+00 -0.63101109986E+01  0.63101109986E+01  0.00000000000E+00 0. -1.
          5    1    1    2  501    0 -0.20098702785E+01 -0.29910373258E+01  0.97304638193E+00  0.60018915420E+01  0.47000000000E+01 0. -1.
         -5    1    1    2    0  503  0.20098702785E+01  0.29910373258E+01 -0.14854432830E+01  0.61059335541E+01  0.47000000000E+01 0. -1.
<mgrwt>
<rscale>  2 0.59224896E+01</rscale>
<asrwt>0</asrwt>
<pdfrwt beam="1">  1       21 0.89195602E-03 0.59224896E+01</pdfrwt>
<pdfrwt beam="2">  1       21 0.97078631E-03 0.59224896E+01</pdfrwt>
<totfact> 0.38210322E+09</totfact>
</mgrwt>
</event>
<event>
 4    1  0.4039863E+006  0.5129104E+01  0.7546771E-02  0.2544748E+00
         21   -1    0    0  503  502  0.00000000000E+00  0.00000000000E+00  0.31649036934E+00  0.31649036934E+00  0.00000000000E+00 0. -1.
         21   -1    0    0  501  503 -0.00000000000E+00 -0.00000000000E+00 -0.30738122722E+03  0.30738122722E+03  0.00000000000E+00 0. -1.
          5    1    1    2  501    0 -0.91042467597E+00  0.18408788613E+01 -0.28494271460E+03  0.28498887401E+03  0.47000000000E+01 0. -1.
         -5    1    1    2    0  502  0.91042467597E+00 -0.18408788613E+01 -0.22122022247E+02  0.22708843572E+02  0.47000000000E+01 0. -1.
<mgrwt>
<rscale>  2 0.51291040E+01</rscale>
<asrwt>0</asrwt>
<pdfrwt beam="1">  1       21 0.48690465E-04 0.51291040E+01</pdfrwt>
<pdfrwt beam="2">  1       21 0.47289770E-01 0.51291040E+01</pdfrwt>
<totfact> 0.47268074E+08</totfact>
</mgrwt>
</event>
<event>
 4    1  0.4039863E+006  0.6734476E+01  0.7546771E-02  0.2328625E+00
         21   -1    0    0  501  502  0.00000000000E+00  0.00000000000E+00  0.47194508246E+00  0.47194508246E+00  0.00000000000E+00 0.  1.
         21   -1    0    0  502  503 -0.00000000000E+00 -0.00000000000E+00 -0.10124203521E+03  0.10124203521E+03  0.00000000000E+00 0.  1.
          5    1    1    2  501    0 -0.19897264524E+01 -0.43936490685E+01 -0.38921851067E+02  0.39500172834E+02  0.47000000000E+01 0.  1.
         -5    1    1    2    0  503  0.19897264524E+01  0.43936490685E+01 -0.61848239057E+02  0.62213807454E+02  0.47000000000E+01 0.  1.
<mgrwt>
<rscale>  2 0.67344757E+01</rscale>
<asrwt>0</asrwt>
<pdfrwt beam="1">  1       21 0.72606816E-04 0.67344757E+01</pdfrwt>
<pdfrwt beam="2">  1       21 0.15575723E-01 0.67344757E+01</pdfrwt>
<totfact> 0.21835020E+09</totfact>
</mgrwt>
</event>
<event>
 4    1  0.4039863E+006  0.5098026E+01  0.7546771E-02  0.2550052E+00
         21   -1    0    0  503  502  0.00000000000E+00  0.00000000000E+00  0.19158763843E+01  0.19158763843E+01  0.00000000000E+00 0.  1.
         21   -1    0    0  501  503 -0.00000000000E+00 -0.00000000000E+00 -0.11384031011E+03  0.11384031011E+03  0.00000000000E+00 0. -1.
          5    1    1    2  501    0 -0.18731887200E+01  0.62532904287E+00 -0.11028250266E+03  0.11040027294E+03  0.47000000000E+01 0. -1.
         -5    1    1    2    0  502  0.18731887200E+01 -0.62532904287E+00 -0.16419310686E+01  0.53559135567E+01  0.47000000000E+01 0.  1.
<mgrwt>
<rscale>  2 0.50980263E+01</rscale>
<asrwt>0</asrwt>
<pdfrwt beam="1">  1       21 0.29475021E-03 0.50980263E+01</pdfrwt>
<pdfrwt beam="2">  1       21 0.17513894E-01 0.50980263E+01</pdfrwt>
<totfact> 0.22003543E+08</totfact>
</mgrwt>
</event>
<event>
 4    1  0.4039863E+006  0.5264687E+01  0.7546771E-02  0.2522237E+00
         21   -1    0    0  501  502  0.00000000000E+00  0.00000000000E+00  0.24828483075E+01  0.24828483075E+01  0.00000000000E+00 0. -1.
         21   -1    0    0  502  503 -0.00000000000E+00 -0.00000000000E+00 -0.11185672337E+02  0.11185672337E+02  0.00000000000E+00 0.  1.
          5    1    1    2  501    0  0.16416880357E+00  0.23664270806E+01 -0.46566487192E+01  0.70286062500E+01  0.47000000000E+01 0.  1.
         -5    1    1    2    0  503 -0.16416880357E+00 -0.23664270806E+01 -0.40461753105E+01  0.66399143946E+01  0.47000000000E+01 0. -1.
<mgrwt>
<rscale>  2 0.52646869E+01</rscale>
<asrwt>0</asrwt>
<pdfrwt beam="1">  1       21 0.38197666E-03 0.52646869E+01</pdfrwt>
<pdfrwt beam="2">  1       21 0.17208727E-02 0.52646869E+01</pdfrwt>
<totfact> 0.49306710E+09</totfact>
</mgrwt>
</event>
<event>
 4    1  0.4039863E+006  0.5805782E+01  0.7546771E-02  0.2441408E+00
         21   -1    0    0  503  502  0.00000000000E+00  0.00000000000E+00  0.10295425664E+03  0.10295425664E+03  0.00000000000E+00 0.  1.
         21   -1    0    0  501  503 -0.00000000000E+00 -0.00000000000E+00 -0.45899585720E+00  0.45899585720E+00  0.00000000000E+00 0. -1.
          5    1    1    2  501    0 -0.36479332362E+00  0.33888101994E+01  0.78933920738E+02  0.79147147465E+02  0.47000000000E+01 0.  1.
         -5    1    1    2    0  502  0.36479332362E+00 -0.33888101994E+01  0.23561340043E+02  0.24266105031E+02  0.47000000000E+01 0. -1.
<mgrwt>
<rscale>  2 0.58057824E+01</rscale>
<asrwt>0</asrwt>
<pdfrwt beam="1">  1       21 0.15839098E-01 0.58057824E+01</pdfrwt>
<pdfrwt beam="2">  1       21 0.70614829E-04 0.58057824E+01</pdfrwt>
<totfact> 0.19600248E+09</totfact>
</mgrwt>
</event>
<event>
 4    1  0.4039863E+006  0.6037937E+01  0.7546771E-02  0.2410512E+00
         21   -1    0    0  501  502  0.00000000000E+00  0.00000000000E+00  0.17715045124E+02  0.17715045124E+02  0.00000000000E+00 0. -1.
         21   -1    0    0  502  503 -0.00000000000E+00 -0.00000000000E+00 -0.33432099963E+01  0.33432099963E+01  0.00000000000E+00 0. -1.
          5    1    1    2  501    0 -0.65879881417E+00  0.37326495842E+01  0.13714305335E+02  0.14984620770E+02  0.47000000000E+01 0.  1.
         -5    1    1    2    0  503  0.65879881417E+00 -0.37326495842E+01  0.65752979281E+00  0.60736343506E+01  0.47000000000E+01 0.  1.
<mgrwt>
<rscale>  2 0.60379375E+01</rscale>
<asrwt>0</asrwt>
<pdfrwt beam="1">  1       21 0.27253915E-02 0.60379375E+01</pdfrwt>
<pdfrwt beam="2">  1       21 0.51434001E-03 0.60379375E+01</pdfrwt>
<totfact> 0.19210605E+09</totfact>
</mgrwt>
</event>
<event>
 4    1  0.4039863E+006  0.4901046E+01  0.7546771E-02  0.2585013E+00
         21   -1    0    0  501  502  0.00000000000E+00  0.00000000000E+00  0.69502155444E+00  0.69502155444E+00  0.00000000000E+00 0.  1.
         21   -1    0    0  502  503 -0.00000000000E+00 -0.00000000000E+00 -0.36046542957E+02  0.36046542957E+02  0.00000000000E+00 0.  1.
          5    1    1    2  501    0 -0.38127809504E+00 -0.13359927377E+01 -0.13945660224E+02  0.14781802619E+02  0.47000000000E+01 0.  1.
         -5    1    1    2    0  503  0.38127809504E+00  0.13359927377E+01 -0.21405861179E+02  0.21959761893E+02  0.47000000000E+01 0.  1.
<mgrwt>
<rscale>  2 0.49010458E+01</rscale>
<asrwt>0</asrwt>
<pdfrwt beam="1">  1       21 0.10692635E-03 0.49010458E+01</pdfrwt>
<pdfrwt beam="2">  1       21 0.55456240E-02 0.49010458E+01</pdfrwt>
<totfact> 0.47237683E+09</totfact>
</mgrwt>
</event>
<event>
 4    1  0.4039863E+006  0.5397440E+01  0.7546771E-02  0.2501135E+00
         21   -1    0    0  501  502  0.00000000000E+00  0.00000000000E+00  0.72158444426E-01  0.72158444426E-01  0.00000000000E+00 0. -1.
         21   -1    0    0  502  503 -0.00000000000E+00 -0.00000000000E+00 -0.45919136204E+03  0.45919136204E+03  0.00000000000E+00 0. -1.
          5    1    1    2  501    0 -0.23825252488E+01 -0.11687317179E+01 -0.30936632905E+03  0.30941340939E+03  0.47000000000E+01 0. -1.
         -5    1    1    2    0  503  0.23825252488E+01  0.11687317179E+01 -0.14975287455E+03  0.14985011110E+03  0.47000000000E+01 0. -1.
<mgrwt>
<rscale>  2 0.53974402E+01</rscale>
<asrwt>0</asrwt>
<pdfrwt beam="1">  1       21 0.11100990E-04 0.53974402E+01</pdfrwt>
<pdfrwt beam="2">  1       21 0.70646792E-01 0.53974402E+01</pdfrwt>
<totfact> 0.16820813E+09</totfact>
</mgrwt>
</event>
<event>
 4    1  0.4039863E+006  0.5695378E+01  0.7546771E-02  0.2456841E+00
         21   -1    0    0  501  502  0.00000000000E+00  0.00000000000E+00  0.10275812948E+04  0.10275812948E+04  0.00000000000E+00 0.  1.
         21   -1    0    0  502  503 -0.00000000000E+00 -0.00000000000E+00 -0.31747590819E-01  0.31747590819E-01  0.00000000000E+00 0. -1.
          5    1    1    2  501    0 -0.31265045216E+01 -0.75650267343E+00  0.55256122974E+03  0.55259058075E+03  0.47000000000E+01 0.  1.
         -5    1    1    2    0  503  0.31265045216E+01  0.75650267343E+00  0.47498831744E+03  0.47502246161E+03  0.47000000000E+01 0. -1.
<mgrwt>
<rscale>  2 0.56953777E+01</rscale>
<asrwt>0</asrwt>
<pdfrwt beam="1">  1       21 0.15806280E+00 0.56953777E+01</pdfrwt>
<pdfrwt beam="2">  1       21 0.48850677E-05 0.56953777E+01</pdfrwt>
<totfact> 0.10249747E+09</totfact>
</mgrwt>
</event>
<event>
 4    1  0.4039863E+006  0.6569887E+01  0.7546771E-02  0.2346671E+00
         21   -1    0    0  501  502  0.00000000000E+00  0.00000000000E+00  0.75972620434E+02  0.75972620434E+02  0.00000000000E+00 0.  1.
         21   -1    0    0  502  503 -0.00000000000E+00 -0.00000000000E+00 -0.13909524664E+01  0.13909524664E+01  0.00000000000E+00 0. -1.
          5    1    1    2  501    0 -0.20762952593E+01 -0.40941923374E+01  0.67041703935E+02  0.67362849401E+02  0.47000000000E+01 0.  1.
         -5    1    1    2    0  503  0.20762952593E+01  0.40941923374E+01  0.75399640323E+01  0.10000723499E+02  0.47000000000E+01 0. -1.
<mgrwt>
<rscale>  2 0.65698868E+01</rscale>
<asrwt>0</asrwt>
<pdfrwt beam="1">  1       21 0.11688092E-01 0.65698868E+01</pdfrwt>
<pdfrwt beam="2">  1       21 0.21399275E-03 0.65698868E+01</pdfrwt>
<totfact> 0.77784420E+08</totfact>
</mgrwt>
</event>
<event>
 4    1  0.4039863E+006  0.7220943E+01  0.7546771E-02  0.2279280E+00
         21   -1    0    0  501  502  0.00000000000E+00  0.00000000000E+00  0.15181094845E+01  0.15181094845E+01  0.00000000000E+00 0.  1.
         21   -1    0    0  502  503 -0.00000000000E+00 -0.00000000000E+00 -0.51616542838E+02  0.51616542838E+02  0.00000000000E+00 0.  1.
          5    1    1    2  501    0 -0.54674629251E+01  0.39858402341E+00 -0.96819071039E+01  0.12078135006E+02  0.47000000000E+01 0.  1.
         -5    1    1    2    0  503  0.54674629251E+01 -0.39858402341E+00 -0.40416526250E+02  0.41056517317E+02  0.47000000000E+01 0.  1.
<mgrwt>
<rscale>  2 0.72209432E+01</rscale>
<asrwt>0</asrwt>
<pdfrwt beam="1">  1       21 0.23355527E-03 0.72209432E+01</pdfrwt>
<pdfrwt beam="2">  1       21 0.79410079E-02 0.72209432E+01</pdfrwt>
<totfact> 0.13420669E+09</totfact>
</mgrwt>
</event>
<event>
 4    1  0.4039863E+006  0.5546875E+01  0.7546771E-02  0.2478415E+00
         21   -1    0    0  503  502  0.00000000000E+00  0.00000000000E+00  0.25473515637E+01  0.25473515637E+01  0.00000000000E+00 0. -1.
         21   -1    0    0  501  503 -0.00000000000E+00 -0.00000000000E+00 -0.10570393125E+03  0.10570393125E+03  0.00000000000E+00 0. -1.
          5    1    1    2  501    0 -0.11964752996E+01 -0.26918904777E+01 -0.10251779573E+03  0.10266774697E+03  0.47000000000E+01 0. -1.
         -5    1    1    2    0  502  0.11964752996E+01  0.26918904777E+01 -0.63878395236E+00  0.55835358353E+01  0.47000000000E+01 0. -1.
<mgrwt>
<rscale>  2 0.55468755E+01</rscale>
<asrwt>0</asrwt>
<pdfrwt beam="1">  1       21 0.39190028E-03 0.55468755E+01</pdfrwt>
<pdfrwt beam="2">  1       21 0.16262142E-01 0.55468755E+01</pdfrwt>
<totfact> 0.17866910E+08</totfact>
</mgrwt>
</event>
<event>
 4    1  0.4039863E+006  0.6065391E+01  0.7546771E-02  0.2406990E+00
         21   -1    0    0  501  502  0.00000000000E+00  0.00000000000E+00  0.12068862306E+02  0.12068862306E+02  0.00000000000E+00 0. -1.
         21   -1    0    0  502  503 -0.00000000000E+00 -0.00000000000E+00 -0.76117757143E+01  0.76117757143E+01  0.00000000000E+00 0.  1.
          5    1    1    2  501    0  0.16629663724E+00 -0.38303143414E+01  0.98478635544E+01  0.11565871308E+02  0.47000000000E+01 0. -1.
         -5    1    1    2    0  503 -0.16629663724E+00  0.38303143414E+01 -0.53907769630E+01  0.81147667121E+01  0.47000000000E+01 0.  1.
<mgrwt>
<rscale>  2 0.60653906E+01</rscale>
<asrwt>0</asrwt>
<pdfrwt beam="1">  1       21 0.18567480E-02 0.60653906E+01</pdfrwt>
<pdfrwt beam="2">  1       21 0.11710424E-02 0.60653906E+01</pdfrwt>
<totfact> 0.10566822E+09</totfact>
</mgrwt>
</event>
<event>
 4    1  0.4039863E+006  0.5553082E+01  0.7546771E-02  0.2477494E+00
         21   -1    0    0  501  502  0.00000000000E+00  0.00000000000E+00  0.11459410176E+00  0.11459410176E+00  0.00000000000E+00 0.  1.
         21   -1    0    0  502  503 -0.00000000000E+00 -0.00000000000E+00 -0.34881200092E+03  0.34881200092E+03  0.00000000000E+00 0. -1.
          5    1    1    2  501    0  0.28065453619E+01  0.93275240919E+00 -0.90945396586E+02  0.91114773139E+02  0.47000000000E+01 0.  1.
         -5    1    1    2    0  503 -0.28065453619E+01 -0.93275240919E+00 -0.25775201023E+03  0.25781182188E+03  0.47000000000E+01 0. -1.
<mgrwt>
<rscale>  2 0.55530824E+01</rscale>
<asrwt>0</asrwt>
<pdfrwt beam="1">  1       21 0.17629976E-04 0.55530824E+01</pdfrwt>
<pdfrwt beam="2">  1       21 0.53663038E-01 0.55530824E+01</pdfrwt>
<totfact> 0.15478536E+09</totfact>
</mgrwt>
</event>
<event>
 4    1  0.4039863E+006  0.5193449E+01  0.7546771E-02  0.2533939E+00
         21   -1    0    0  503  502  0.00000000000E+00  0.00000000000E+00  0.32030622912E+02  0.32030622912E+02  0.00000000000E+00 0. -1.
         21   -1    0    0  501  503 -0.00000000000E+00 -0.00000000000E+00 -0.23111868665E+02  0.23111868665E+02  0.00000000000E+00 0. -1.
          5    1    1    2  501    0 -0.61156091529E+00 -0.21231836651E+01 -0.22604937814E+02  0.23193859731E+02  0.47000000000E+01 0. -1.
         -5    1    1    2    0  502  0.61156091529E+00  0.21231836651E+01  0.31523692062E+02  0.31948631846E+02  0.47000000000E+01 0. -1.
<mgrwt>
<rscale>  2 0.51934493E+01</rscale>
<asrwt>0</asrwt>
<pdfrwt beam="1">  1       21 0.49277881E-02 0.51934493E+01</pdfrwt>
<pdfrwt beam="2">  1       21 0.35556721E-02 0.51934493E+01</pdfrwt>
<totfact> 0.46616653E+07</totfact>
</mgrwt>
</event>
<event>
 4    1  0.4039863E+006  0.1197728E+02  0.7546771E-02  0.1977317E+00
         21   -1    0    0  503  502  0.00000000000E+00  0.00000000000E+00  0.56580652357E+03  0.56580652357E+03  0.00000000000E+00 0.  1.
         21   -1    0    0  501  503 -0.00000000000E+00 -0.00000000000E+00 -0.12382445859E+01  0.12382445859E+01  0.00000000000E+00 0. -1.
          5    1    1    2  501    0  0.13005588647E+01  0.10939555751E+02  0.29449355514E+02  0.31791820860E+02  0.47000000000E+01 0. -1.
         -5    1    1    2    0  502 -0.13005588647E+01 -0.10939555751E+02  0.53511892347E+03  0.53525294730E+03  0.47000000000E+01 0.  1.
<mgrwt>
<rscale>  2 0.11977284E+02</rscale>
<asrwt>0</asrwt>
<pdfrwt beam="1">  1       21 0.87046951E-01 0.11977284E+02</pdfrwt>
<pdfrwt beam="2">  1       21 0.19049962E-03 0.11977284E+02</pdfrwt>
<totfact> 0.35835731E+07</totfact>
</mgrwt>
</event>
<event>
 4    1  0.4039863E+006  0.6928430E+01  0.7546771E-02  0.2308270E+00
         21   -1    0    0  503  502  0.00000000000E+00  0.00000000000E+00  0.12163066769E+01  0.12163066769E+01  0.00000000000E+00 0.  1.
         21   -1    0    0  501  503 -0.00000000000E+00 -0.00000000000E+00 -0.39473430945E+02  0.39473430945E+02  0.00000000000E+00 0.  1.
          5    1    1    2  501    0 -0.40656674313E+01 -0.30632487329E+01 -0.19401691397E+02  0.20601669192E+02  0.47000000000E+01 0.  1.
         -5    1    1    2    0  502  0.40656674313E+01  0.30632487329E+01 -0.18855432872E+02  0.20088068430E+02  0.47000000000E+01 0.  1.
<mgrwt>
<rscale>  2 0.69284302E+01</rscale>
<asrwt>0</asrwt>
<pdfrwt beam="1">  1       21 0.18712412E-03 0.69284302E+01</pdfrwt>
<pdfrwt beam="2">  1       21 0.60728350E-02 0.69284302E+01</pdfrwt>
<totfact> 0.26550433E+09</totfact>
</mgrwt>
</event>
<event>
 4    1  0.4039863E+006  0.5186205E+01  0.7546771E-02  0.2535145E+00
         21   -1    0    0  501  502  0.00000000000E+00  0.00000000000E+00  0.55101837649E+00  0.55101837649E+00  0.00000000000E+00 0.  1.
         21   -1    0    0  502  503 -0.00000000000E+00 -0.00000000000E+00 -0.57194600784E+02  0.57194600784E+02  0.00000000000E+00 0.  1.
          5    1    1    2  501    0  0.64930888683E+00 -0.20940682973E+01 -0.17268759703E+02  0.18030717838E+02  0.47000000000E+01 0. -1.
         -5    1    1    2    0  503 -0.64930888683E+00  0.20940682973E+01 -0.39374822705E+02  0.39714901323E+02  0.47000000000E+01 0. -1.
<mgrwt>
<rscale>  2 0.51862052E+01</rscale>
<asrwt>0</asrwt>
<pdfrwt beam="1">  1       21 0.84772094E-04 0.51862052E+01</pdfrwt>
<pdfrwt beam="2">  1       21 0.87991656E-02 0.51862052E+01</pdfrwt>
<totfact> 0.34318290E+09</totfact>
</mgrwt>
</event>
<event>
 4    1  0.4039863E+006  0.7391725E+01  0.7546771E-02  0.2263225E+00
         21   -1    0    0  503  502  0.00000000000E+00  0.00000000000E+00  0.13755510838E+01  0.13755510838E+01  0.00000000000E+00 0. -1.
         21   -1    0    0  501  503 -0.00000000000E+00 -0.00000000000E+00 -0.55787859697E+02  0.55787859697E+02  0.00000000000E+00 0. -1.
          5    1    1    2  501    0 -0.51204811401E+01 -0.25156066153E+01 -0.42544915355E+02  0.43182258236E+02  0.47000000000E+01 0. -1.
         -5    1    1    2    0  502  0.51204811401E+01  0.25156066153E+01 -0.11867393258E+02  0.13981152545E+02  0.47000000000E+01 0. -1.
<mgrwt>
<rscale>  2 0.73917254E+01</rscale>
<asrwt>0</asrwt>
<pdfrwt beam="1">  1       21 0.21162331E-03 0.73917254E+01</pdfrwt>
<pdfrwt beam="2">  1       21 0.85827449E-02 0.73917254E+01</pdfrwt>
<totfact> 0.13872291E+09</totfact>
</mgrwt>
</event>
<event>
 4    1  0.4039863E+006  0.5773133E+01  0.7546771E-02  0.2445920E+00
         21   -1    0    0  503  502  0.00000000000E+00  0.00000000000E+00  0.37546088619E-01  0.37546088619E-01  0.00000000000E+00 0. -1.
         21   -1    0    0  501  503 -0.00000000000E+00 -0.00000000000E+00 -0.25265366556E+04  0.25265366556E+04  0.00000000000E+00 0. -1.
          5    1    1    2  501    0 -0.12913042358E+01 -0.30937993985E+01 -0.22806905145E+04  0.22806978213E+04  0.47000000000E+01 0. -1.
         -5    1    1    2    0  502  0.12913042358E+01  0.30937993985E+01 -0.24580859503E+03  0.24587638043E+03  0.47000000000E+01 0. -1.
<mgrwt>
<rscale>  2 0.57731327E+01</rscale>
<asrwt>0</asrwt>
<pdfrwt beam="1">  1       21 0.57771645E-05 0.57731327E+01</pdfrwt>
<pdfrwt beam="2">  1       21 0.38864122E+00 0.57731327E+01</pdfrwt>
<totfact> 0.84024166E+07</totfact>
</mgrwt>
</event>
<event>
 4    1  0.4039863E+006  0.4964290E+01  0.7546771E-02  0.2573528E+00
         21   -1    0    0  503  502  0.00000000000E+00  0.00000000000E+00  0.24494509847E+01  0.24494509847E+01  0.00000000000E+00 0.  1.
         21   -1    0    0  501  503 -0.00000000000E+00 -0.00000000000E+00 -0.10579832442E+02  0.10579832442E+02  0.00000000000E+00 0.  1.
          5    1    1    2  501    0 -0.69956692046E+00  0.14369346892E+01 -0.55077118595E+01  0.74147869224E+01  0.47000000000E+01 0.  1.
         -5    1    1    2    0  502  0.69956692046E+00 -0.14369346892E+01 -0.26226695979E+01  0.56144965043E+01  0.47000000000E+01 0.  1.
<mgrwt>
<rscale>  2 0.49642900E+01</rscale>
<asrwt>0</asrwt>
<pdfrwt beam="1">  1       21 0.37683860E-03 0.49642900E+01</pdfrwt>
<pdfrwt beam="2">  1       21 0.16276666E-02 0.49642900E+01</pdfrwt>
<totfact> 0.51094428E+09</totfact>
</mgrwt>
</event>
<event>
 4    1  0.4039863E+006  0.6216570E+01  0.7546771E-02  0.2388061E+00
         21   -1    0    0  501  502  0.00000000000E+00  0.00000000000E+00  0.64678057248E-01  0.64678057248E-01  0.00000000000E+00 0.  1.
         21   -1    0    0  502  503 -0.00000000000E+00 -0.00000000000E+00 -0.79891599331E+03  0.79891599331E+03  0.00000000000E+00 0. -1.
          5    1    1    2  501    0  0.16784141214E+01 -0.37065713443E+01 -0.19884336245E+03  0.19894051507E+03  0.47000000000E+01 0.  1.
         -5    1    1    2    0  503 -0.16784141214E+01  0.37065713443E+01 -0.60000795280E+03  0.60004015629E+03  0.47000000000E+01 0. -1.
<mgrwt>
<rscale>  2 0.62165702E+01</rscale>
<asrwt>0</asrwt>
<pdfrwt beam="1">  1       21 0.99505415E-05 0.62165702E+01</pdfrwt>
<pdfrwt beam="2">  1       21 0.12290927E+00 0.62165702E+01</pdfrwt>
<totfact> 0.71360183E+08</totfact>
</mgrwt>
</event>
<event>
 4    1  0.4039863E+006  0.6354944E+01  0.7546771E-02  0.2371396E+00
         21   -1    0    0  503  502  0.00000000000E+00  0.00000000000E+00  0.20100866709E+01  0.20100866709E+01  0.00000000000E+00 0.  1.
         21   -1    0    0  501  503 -0.00000000000E+00 -0.00000000000E+00 -0.26642991709E+02  0.26642991709E+02  0.00000000000E+00 0. -1.
          5    1    1    2  501    0  0.13667495720E+01  0.40530618853E+01 -0.19420821723E+02  0.20434129085E+02  0.47000000000E+01 0. -1.
         -5    1    1    2    0  502 -0.13667495720E+01 -0.40530618853E+01 -0.52120833148E+01  0.82189492953E+01  0.47000000000E+01 0.  1.
<mgrwt>
<rscale>  2 0.63549441E+01</rscale>
<asrwt>0</asrwt>
<pdfrwt beam="1">  1       21 0.30924413E-03 0.63549441E+01</pdfrwt>
<pdfrwt beam="2">  1       21 0.40989214E-02 0.63549441E+01</pdfrwt>
<totfact> 0.22335086E+09</totfact>
</mgrwt>
</event>
<event>
 4    1  0.4039863E+006  0.4833422E+01  0.7546771E-02  0.2597581E+00
         21   -1    0    0  503  502  0.00000000000E+00  0.00000000000E+00  0.40186418808E+02  0.40186418808E+02  0.00000000000E+00 0.  1.
         21   -1    0    0  501  503 -0.00000000000E+00 -0.00000000000E+00 -0.93303596861E+00  0.93303596861E+00  0.00000000000E+00 0.  1.
          5    1    1    2  501    0 -0.28163254118E+00  0.10920838238E+01  0.70039993376E+01  0.85098748926E+01  0.47000000000E+01 0.  1.
         -5    1    1    2    0  502  0.28163254118E+00 -0.10920838238E+01  0.32249383502E+02  0.32609579884E+02  0.47000000000E+01 0.  1.
<mgrwt>
<rscale>  2 0.48334216E+01</rscale>
<asrwt>0</asrwt>
<pdfrwt beam="1">  1       21 0.61825246E-02 0.48334216E+01</pdfrwt>
<pdfrwt beam="2">  1       21 0.14354403E-03 0.48334216E+01</pdfrwt>
<totfact> 0.26821055E+09</totfact>
</mgrwt>
</event>
<event>
 4    1  0.4039863E+006  0.7722080E+01  0.7546771E-02  0.2233819E+00
         21   -1    0    0  501  502  0.00000000000E+00  0.00000000000E+00  0.92302256151E+02  0.92302256151E+02  0.00000000000E+00 0. -1.
         21   -1    0    0  502  503 -0.00000000000E+00 -0.00000000000E+00 -0.66420925534E+00  0.66420925534E+00  0.00000000000E+00 0.  1.
          5    1    1    2  501    0 -0.55221128894E+01  0.26545774919E+01  0.53508008565E+02  0.54062348201E+02  0.47000000000E+01 0. -1.
         -5    1    1    2    0  503  0.55221128894E+01 -0.26545774919E+01  0.38130038331E+02  0.38904117206E+02  0.47000000000E+01 0.  1.
<mgrwt>
<rscale>  2 0.77220795E+01</rscale>
<asrwt>0</asrwt>
<pdfrwt beam="1">  1       21 0.14200337E-01 0.77220795E+01</pdfrwt>
<pdfrwt beam="2">  1       21 0.10218611E-03 0.77220795E+01</pdfrwt>
<totfact> 0.17590393E+09</totfact>
</mgrwt>
</event>
<event>
 4    1  0.4039863E+006  0.5659587E+01  0.7546771E-02  0.2461953E+00
         21   -1    0    0  501  502  0.00000000000E+00  0.00000000000E+00  0.34047173488E+01  0.34047173488E+01  0.00000000000E+00 0. -1.
         21   -1    0    0  502  503 -0.00000000000E+00 -0.00000000000E+00 -0.14648949860E+02  0.14648949860E+02  0.00000000000E+00 0. -1.
          5    1    1    2  501    0  0.28974559074E+01  0.12432514412E+01 -0.22272032036E+00  0.56639676219E+01  0.47000000000E+01 0. -1.
         -5    1    1    2    0  503 -0.28974559074E+01 -0.12432514412E+01 -0.11021512191E+02  0.12389699587E+02  0.47000000000E+01 0. -1.
<mgrwt>
<rscale>  2 0.56595870E+01</rscale>
<asrwt>0</asrwt>
<pdfrwt beam="1">  1       21 0.52380266E-03 0.56595870E+01</pdfrwt>
<pdfrwt beam="2">  1       21 0.22536846E-02 0.56595870E+01</pdfrwt>
<totfact> 0.23282418E+09</totfact>
</mgrwt>
</event>
<event>
 4    1  0.4039863E+006  0.1061044E+02  0.7546771E-02  0.2041825E+00
         21   -1    0    0  503  502  0.00000000000E+00  0.00000000000E+00  0.35793007075E+02  0.35793007075E+02  0.00000000000E+00 0.  1.
         21   -1    0    0  501  503 -0.00000000000E+00 -0.00000000000E+00 -0.31456203502E+01  0.31456203502E+01  0.00000000000E+00 0.  1.
          5    1    1    2  501    0  0.61802563207E+01 -0.72315821320E+01  0.16141469297E+02  0.19316531246E+02  0.47000000000E+01 0.  1.
         -5    1    1    2    0  502 -0.61802563207E+01  0.72315821320E+01  0.16505917428E+02  0.19622096179E+02  0.47000000000E+01 0.  1.
<mgrwt>
<rscale>  2 0.10610436E+02</rscale>
<asrwt>0</asrwt>
<pdfrwt beam="1">  1       21 0.55066162E-02 0.10610436E+02</pdfrwt>
<pdfrwt beam="2">  1       21 0.48394162E-03 0.10610436E+02</pdfrwt>
<totfact> 0.10819206E+09</totfact>
</mgrwt>
</event>
<event>
 4    1  0.4039863E+006  0.6061227E+01  0.7546771E-02  0.2407522E+00
         21   -1    0    0  503  502  0.00000000000E+00  0.00000000000E+00  0.10513378199E+00  0.10513378199E+00  0.00000000000E+00 0.  1.
         21   -1    0    0  501  503 -0.00000000000E+00 -0.00000000000E+00 -0.38814366870E+03  0.38814366870E+03  0.00000000000E+00 0.  1.
          5    1    1    2  501    0  0.36829724074E+01 -0.10412421939E+01 -0.25531525823E+03  0.25538719537E+03  0.47000000000E+01 0.  1.
         -5    1    1    2    0  502 -0.36829724074E+01  0.10412421939E+01 -0.13272327669E+03  0.13286160712E+03  0.47000000000E+01 0.  1.
<mgrwt>
<rscale>  2 0.60612269E+01</rscale>
<asrwt>0</asrwt>
<pdfrwt beam="1">  1       21 0.16174215E-04 0.60612269E+01</pdfrwt>
<pdfrwt beam="2">  1       21 0.59715196E-01 0.60612269E+01</pdfrwt>
<totfact> 0.15254842E+09</totfact>
</mgrwt>
</event>
<event>
 4    1  0.4039863E+006  0.7372207E+01  0.7546771E-02  0.2265029E+00
         21   -1    0    0  503  502  0.00000000000E+00  0.00000000000E+00  0.15680948827E+03  0.15680948827E+03  0.00000000000E+00 0. -1.
         21   -1    0    0  501  503 -0.00000000000E+00 -0.00000000000E+00 -0.38254047394E+00  0.38254047394E+00  0.00000000000E+00 0. -1.
          5    1    1    2  501    0 -0.56248696563E+01 -0.78758068560E+00  0.54120981904E+02  0.54620784728E+02  0.47000000000E+01 0. -1.
         -5    1    1    2    0  502  0.56248696563E+01  0.78758068560E+00  0.10230596589E+03  0.10257124401E+03  0.47000000000E+01 0. -1.
<mgrwt>
<rscale>  2 0.73722074E+01</rscale>
<asrwt>0</asrwt>
<pdfrwt beam="1">  1       21 0.24124485E-01 0.73722074E+01</pdfrwt>
<pdfrwt beam="2">  1       21 0.58852506E-04 0.73722074E+01</pdfrwt>
<totfact> 0.15160679E+09</totfact>
</mgrwt>
</event>
<event>
 4    1  0.4039863E+006  0.4722204E+01  0.7546771E-02  0.2618927E+00
         21   -1    0    0  503  502  0.00000000000E+00  0.00000000000E+00  0.17018629108E+00  0.17018629108E+00  0.00000000000E+00 0. -1.
         21   -1    0    0  501  503 -0.00000000000E+00 -0.00000000000E+00 -0.42816392546E+03  0.42816392546E+03  0.00000000000E+00 0. -1.
          5    1    1    2  501    0 -0.35271770402E+00  0.29119865388E+00 -0.39240927658E+03  0.39243768875E+03  0.47000000000E+01 0. -1.
         -5    1    1    2    0  502  0.35271770402E+00 -0.29119865388E+00 -0.35584462588E+02  0.35896422999E+02  0.47000000000E+01 0. -1.
<mgrwt>
<rscale>  2 0.47222036E+01</rscale>
<asrwt>0</asrwt>
<pdfrwt beam="1">  1       21 0.26182414E-04 0.47222036E+01</pdfrwt>
<pdfrwt beam="2">  1       21 0.65871606E-01 0.47222036E+01</pdfrwt>
<totfact> 0.55218889E+08</totfact>
</mgrwt>
</event>
<event>
 4    1  0.4039863E+006  0.5674779E+01  0.7546771E-02  0.2459777E+00
         21   -1    0    0  503  502  0.00000000000E+00  0.00000000000E+00  0.79787263719E+03  0.79787263719E+03  0.00000000000E+00 0. -1.
         21   -1    0    0  501  503 -0.00000000000E+00 -0.00000000000E+00 -0.18596413160E+00  0.18596413160E+00  0.00000000000E+00 0. -1.
          5    1    1    2  501    0 -0.28746347784E+01  0.13599951324E+01  0.45761622815E+02  0.46112137605E+02  0.47000000000E+01 0. -1.
         -5    1    1    2    0  502  0.28746347784E+01 -0.13599951324E+01  0.75192505024E+03  0.75194646371E+03  0.47000000000E+01 0. -1.
<mgrwt>
<rscale>  2 0.56747786E+01</rscale>
<asrwt>0</asrwt>
<pdfrwt beam="1">  1       21 0.12274690E+00 0.56747786E+01</pdfrwt>
<pdfrwt beam="2">  1       21 0.28610505E-04 0.56747786E+01</pdfrwt>
<totfact> 0.16541099E+08</totfact>
</mgrwt>
</event>
<event>
 4    1  0.4039863E+006  0.9213989E+01  0.7546771E-02  0.2122689E+00
         21   -1    0    0  501  502  0.00000000000E+00  0.00000000000E+00  0.24598702901E+01  0.24598702901E+01  0.00000000000E+00 0. -1.
         21   -1    0    0  502  503 -0.00000000000E+00 -0.00000000000E+00 -0.59079915238E+02  0.59079915238E+02  0.00000000000E+00 0.  1.
          5    1    1    2  501    0 -0.51480537458E+01  0.60253745358E+01 -0.84682240706E+01  0.12514328371E+02  0.47000000000E+01 0. -1.
         -5    1    1    2    0  503  0.51480537458E+01 -0.60253745358E+01 -0.48151820877E+02  0.49025457157E+02  0.47000000000E+01 0.  1.
<mgrwt>
<rscale>  2 0.92139891E+01</rscale>
<asrwt>0</asrwt>
<pdfrwt beam="1">  1       21 0.37844159E-03 0.92139891E+01</pdfrwt>
<pdfrwt beam="2">  1       21 0.90892176E-02 0.92139891E+01</pdfrwt>
<totfact> 0.64928424E+08</totfact>
</mgrwt>
</event>
<event>
 4    1  0.4039863E+006  0.8694454E+01  0.7546771E-02  0.2157914E+00
         21   -1    0    0  501  502  0.00000000000E+00  0.00000000000E+00  0.51252254639E+00  0.51252254639E+00  0.00000000000E+00 0. -1.
         21   -1    0    0  502  503 -0.00000000000E+00 -0.00000000000E+00 -0.14952327981E+03  0.14952327981E+03  0.00000000000E+00 0. -1.
          5    1    1    2  501    0  0.55984518964E+01  0.47075321624E+01 -0.83246782712E+02  0.83699583957E+02  0.47000000000E+01 0. -1.
         -5    1    1    2    0  503 -0.55984518964E+01 -0.47075321624E+01 -0.65763974556E+02  0.66336218404E+02  0.47000000000E+01 0. -1.
<mgrwt>
<rscale>  2 0.86944536E+01</rscale>
<asrwt>0</asrwt>
<pdfrwt beam="1">  1       21 0.78849499E-04 0.86944536E+01</pdfrwt>
<pdfrwt beam="2">  1       21 0.23003617E-01 0.86944536E+01</pdfrwt>
<totfact> 0.12274622E+09</totfact>
</mgrwt>
</event>
<event>
 4    1  0.4039863E+006  0.8106920E+01  0.7546771E-02  0.2202030E+00
         21   -1    0    0  503  502  0.00000000000E+00  0.00000000000E+00  0.13351242651E+00  0.13351242651E+00  0.00000000000E+00 0. -1.
         21   -1    0    0  501  503 -0.00000000000E+00 -0.00000000000E+00 -0.55750167764E+03  0.55750167764E+03  0.00000000000E+00 0. -1.
          5    1    1    2  501    0  0.56946462394E+01  0.33471109855E+01 -0.37406831347E+03  0.37415615095E+03  0.47000000000E+01 0. -1.
         -5    1    1    2    0  502 -0.56946462394E+01 -0.33471109855E+01 -0.18329985174E+03  0.18347903912E+03  0.47000000000E+01 0. -1.
<mgrwt>
<rscale>  2 0.81069197E+01</rscale>
<asrwt>0</asrwt>
<pdfrwt beam="1">  1       21 0.20540676E-04 0.81069197E+01</pdfrwt>
<pdfrwt beam="2">  1       21 0.85768227E-01 0.81069197E+01</pdfrwt>
<totfact> 0.66299130E+08</totfact>
</mgrwt>
</event>
<event>
 4    1  0.4039863E+006  0.5624617E+01  0.7546771E-02  0.2467001E+00
         21   -1    0    0  503  502  0.00000000000E+00  0.00000000000E+00  0.36776484723E+00  0.36776484723E+00  0.00000000000E+00 0.  1.
         21   -1    0    0  501  503 -0.00000000000E+00 -0.00000000000E+00 -0.10524259888E+03  0.10524259888E+03  0.00000000000E+00 0.  1.
          5    1    1    2  501    0 -0.11096478407E+01  0.28835739743E+01 -0.75003200108E+02  0.75213804209E+02  0.47000000000E+01 0.  1.
         -5    1    1    2    0  502  0.11096478407E+01 -0.28835739743E+01 -0.29871633928E+02  0.30396559522E+02  0.47000000000E+01 0.  1.
<mgrwt>
<rscale>  2 0.56246171E+01</rscale>
<asrwt>0</asrwt>
<pdfrwt beam="1">  1       21 0.56579297E-04 0.56246171E+01</pdfrwt>
<pdfrwt beam="2">  1       21 0.16191143E-01 0.56246171E+01</pdfrwt>
<totfact> 0.24770351E+09</totfact>
</mgrwt>
</event>
<event>
 4    1  0.4039863E+006  0.1087486E+02  0.7546771E-02  0.2028370E+00
         21   -1    0    0  501  502  0.00000000000E+00  0.00000000000E+00  0.12809584699E+01  0.12809584699E+01  0.00000000000E+00 0. -1.
         21   -1    0    0  502  503 -0.00000000000E+00 -0.00000000000E+00 -0.92381594845E+02  0.92381594845E+02  0.00000000000E+00 0.  1.
          5    1    1    2  501    0  0.12112612809E+01 -0.97316685874E+01 -0.44375598326E+02  0.45688688471E+02  0.47000000000E+01 0.  1.
         -5    1    1    2    0  503 -0.12112612809E+01  0.97316685874E+01 -0.46725038049E+02  0.47973864844E+02  0.47000000000E+01 0.  1.
<mgrwt>
<rscale>  2 0.10874858E+02</rscale>
<asrwt>0</asrwt>
<pdfrwt beam="1">  1       21 0.19707048E-03 0.10874858E+02</pdfrwt>
<pdfrwt beam="2">  1       21 0.14212557E-01 0.10874858E+02</pdfrwt>
<totfact> 0.87109434E+08</totfact>
</mgrwt>
</event>
<event>
 4    1  0.4039863E+006  0.8408070E+01  0.7546771E-02  0.2178801E+00
         21   -1    0    0  503  502  0.00000000000E+00  0.00000000000E+00  0.21365388503E+00  0.21365388503E+00  0.00000000000E+00 0. -1.
         21   -1    0    0  501  503 -0.00000000000E+00 -0.00000000000E+00 -0.36094788329E+03  0.36094788329E+03  0.00000000000E+00 0.  1.
          5    1    1    2  501    0  0.39688187490E-01 -0.69716612067E+01 -0.12825501760E+03  0.12853032784E+03  0.47000000000E+01 0.  1.
         -5    1    1    2    0  502 -0.39688187490E-01  0.69716612067E+01 -0.23247921181E+03  0.23263120934E+03  0.47000000000E+01 0. -1.
<mgrwt>
<rscale>  2 0.84080696E+01</rscale>
<asrwt>0</asrwt>
<pdfrwt beam="1">  1       21 0.32869812E-04 0.84080696E+01</pdfrwt>
<pdfrwt beam="2">  1       21 0.55530472E-01 0.84080696E+01</pdfrwt>
<totfact> 0.83287797E+08</totfact>
</mgrwt>
</event>
<event>
 4    1  0.4039863E+006  0.1905151E+02  0.7546771E-02  0.1764875E+00
         21   -1    0    0  501  502  0.00000000000E+00  0.00000000000E+00  0.47399067472E+01  0.47399067472E+01  0.00000000000E+00 0. -1.
         21   -1    0    0  502  503 -0.00000000000E+00 -0.00000000000E+00 -0.78450115564E+02  0.78450115564E+02  0.00000000000E+00 0.  1.
          5    1    1    2  501    0 -0.45218854795E+01  0.17900356754E+02 -0.30425074432E+02  0.35897707091E+02  0.47000000000E+01 0.  1.
         -5    1    1    2    0  503  0.45218854795E+01 -0.17900356754E+02 -0.43285134385E+02  0.47292315221E+02  0.47000000000E+01 0. -1.
<mgrwt>
<rscale>  2 0.19051515E+02</rscale>
<asrwt>0</asrwt>
<pdfrwt beam="1">  1       21 0.72921645E-03 0.19051515E+02</pdfrwt>
<pdfrwt beam="2">  1       21 0.12069248E-01 0.19051515E+02</pdfrwt>
<totfact> 0.22016948E+08</totfact>
</mgrwt>
</event>
<event>
 4    1  0.4039863E+006  0.5546329E+01  0.7546771E-02  0.2478496E+00
         21   -1    0    0  501  502  0.00000000000E+00  0.00000000000E+00  0.14201714791E+03  0.14201714791E+03  0.00000000000E+00 0.  1.
         21   -1    0    0  502  503 -0.00000000000E+00 -0.00000000000E+00 -0.53164599352E+00  0.53164599352E+00  0.00000000000E+00 0.  1.
          5    1    1    2  501    0 -0.20057935066E+01  0.21560509410E+01  0.12560898335E+03  0.12573137421E+03  0.47000000000E+01 0.  1.
         -5    1    1    2    0  503  0.20057935066E+01 -0.21560509410E+01  0.15876518563E+02  0.16817419687E+02  0.47000000000E+01 0.  1.
<mgrwt>
<rscale>  2 0.55463288E+01</rscale>
<asrwt>0</asrwt>
<pdfrwt beam="1">  1       21 0.21848762E-01 0.55463288E+01</pdfrwt>
<pdfrwt beam="2">  1       21 0.81791804E-04 0.55463288E+01</pdfrwt>
<totfact> 0.92773846E+08</totfact>
</mgrwt>
</event>
<event>
 4    1  0.4039863E+006  0.5806168E+01  0.7546771E-02  0.2441355E+00
         21   -1    0    0  503  502  0.00000000000E+00  0.00000000000E+00  0.28179490878E+01  0.28179490878E+01  0.00000000000E+00 0. -1.
         21   -1    0    0  501  503 -0.00000000000E+00 -0.00000000000E+00 -0.18203113284E+02  0.18203113284E+02  0.00000000000E+00 0.  1.
          5    1    1    2  501    0 -0.29141493008E+01  0.17689871901E+01 -0.13846368589E+02  0.15014443211E+02  0.47000000000E+01 0.  1.
         -5    1    1    2    0  502  0.29141493008E+01 -0.17689871901E+01 -0.15387956073E+01  0.60066191611E+01  0.47000000000E+01 0. -1.
<mgrwt>
<rscale>  2 0.58061676E+01</rscale>
<asrwt>0</asrwt>
<pdfrwt beam="1">  1       21 0.43353064E-03 0.58061676E+01</pdfrwt>
<pdfrwt beam="2">  1       21 0.28004789E-02 0.58061676E+01</pdfrwt>
<totfact> 0.22625530E+09</totfact>
</mgrwt>
</event>
<event>
 4    1  0.4039863E+006  0.4714895E+01  0.7546771E-02  0.2620361E+00
         21   -1    0    0  503  502  0.00000000000E+00  0.00000000000E+00  0.26107622554E+02  0.26107622554E+02  0.00000000000E+00 0.  1.
         21   -1    0    0  501  503 -0.00000000000E+00 -0.00000000000E+00 -0.12101056352E+01  0.12101056352E+01  0.00000000000E+00 0.  1.
          5    1    1    2  501    0 -0.24438258550E+00  0.28374067474E+00  0.50130734692E+01  0.68819428381E+01  0.47000000000E+01 0.  1.
         -5    1    1    2    0  502  0.24438258550E+00 -0.28374067474E+00  0.19884443449E+02  0.20435785351E+02  0.47000000000E+01 0.  1.
<mgrwt>
<rscale>  2 0.47148947E+01</rscale>
<asrwt>0</asrwt>
<pdfrwt beam="1">  1       21 0.40165569E-02 0.47148947E+01</pdfrwt>
<pdfrwt beam="2">  1       21 0.18617012E-03 0.47148947E+01</pdfrwt>
<totfact> 0.34610711E+09</totfact>
</mgrwt>
</event>
<event>
 4    1  0.4039863E+006  0.6395987E+01  0.7546771E-02  0.2366569E+00
         21   -1    0    0  501  502  0.00000000000E+00  0.00000000000E+00  0.35929054979E+01  0.35929054979E+01  0.00000000000E+00 0.  1.
         21   -1    0    0  502  503 -0.00000000000E+00 -0.00000000000E+00 -0.25776427980E+02  0.25776427980E+02  0.00000000000E+00 0.  1.
          5    1    1    2  501    0  0.39496806032E+01  0.17940663178E+01 -0.11964747566E+00  0.63971060909E+01  0.47000000000E+01 0.  1.
         -5    1    1    2    0  503 -0.39496806032E+01 -0.17940663178E+01 -0.22063875007E+02  0.22972227387E+02  0.47000000000E+01 0.  1.
<mgrwt>
<rscale>  2 0.63959871E+01</rscale>
<asrwt>0</asrwt>
<pdfrwt beam="1">  1       21 0.55275468E-03 0.63959871E+01</pdfrwt>
<pdfrwt beam="2">  1       21 0.39656044E-02 0.63959871E+01</pdfrwt>
<totfact> 0.10527393E+09</totfact>
</mgrwt>
</event>
<event>
 4    1  0.4039863E+006  0.9282798E+01  0.7546771E-02  0.2118260E+00
         21   -1    0    0  503  502  0.00000000000E+00  0.00000000000E+00  0.13342323011E+03  0.13342323011E+03  0.00000000000E+00 0. -1.
         21   -1    0    0  501  503 -0.00000000000E+00 -0.00000000000E+00 -0.28342183585E+01  0.28342183585E+01  0.00000000000E+00 0.  1.
          5    1    1    2  501    0 -0.59478085282E+01  0.53576034642E+01  0.54292836735E+01  0.10753951012E+02  0.47000000000E+01 0.  1.
         -5    1    1    2    0  502  0.59478085282E+01 -0.53576034642E+01  0.12515972808E+03  0.12550349746E+03  0.47000000000E+01 0. -1.
<mgrwt>
<rscale>  2 0.92827981E+01</rscale>
<asrwt>0</asrwt>
<pdfrwt beam="1">  1       21 0.20526646E-01 0.92827981E+01</pdfrwt>
<pdfrwt beam="2">  1       21 0.43603370E-03 0.92827981E+01</pdfrwt>
<totfact> 0.14303332E+08</totfact>
</mgrwt>
</event>
<event>
 4    1  0.4039863E+006  0.5674169E+01  0.7546771E-02  0.2459864E+00
         21   -1    0    0  503  502  0.00000000000E+00  0.00000000000E+00  0.33291329335E+00  0.33291329335E+00  0.00000000000E+00 0.  1.
         21   -1    0    0  501  503 -0.00000000000E+00 -0.00000000000E+00 -0.17663147167E+03  0.17663147167E+03  0.00000000000E+00 0.  1.
          5    1    1    2  501    0 -0.53612356464E+00 -0.31334906556E+01 -0.14766783209E+03  0.14777680748E+03  0.47000000000E+01 0.  1.
         -5    1    1    2    0  502  0.53612356464E+00  0.31334906556E+01 -0.28630726283E+02  0.29187577489E+02  0.47000000000E+01 0.  1.
<mgrwt>
<rscale>  2 0.56741689E+01</rscale>
<asrwt>0</asrwt>
<pdfrwt beam="1">  1       21 0.51217354E-04 0.56741689E+01</pdfrwt>
<pdfrwt beam="2">  1       21 0.27174113E-01 0.56741689E+01</pdfrwt>
<totfact> 0.12342557E+09</totfact>
</mgrwt>
</event>
<event>
 4    1  0.4039863E+006  0.6809098E+01  0.7546771E-02  0.2320681E+00
         21   -1    0    0  501  502  0.00000000000E+00  0.00000000000E+00  0.65630977595E+02  0.65630977595E+02  0.00000000000E+00 0.  1.
         21   -1    0    0  502  503 -0.00000000000E+00 -0.00000000000E+00 -0.71504258496E+01  0.71504258496E+01  0.00000000000E+00 0.  1.
          5    1    1    2  501    0 -0.29147544276E+01  0.39721560426E+01  0.63786615484E+02  0.64149015050E+02  0.47000000000E+01 0.  1.
         -5    1    1    2    0  503  0.29147544276E+01 -0.39721560426E+01 -0.53060637385E+01  0.86323883947E+01  0.47000000000E+01 0.  1.
<mgrwt>
<rscale>  2 0.68090981E+01</rscale>
<asrwt>0</asrwt>
<pdfrwt beam="1">  1       21 0.10097073E-01 0.68090981E+01</pdfrwt>
<pdfrwt beam="2">  1       21 0.11000656E-02 0.68090981E+01</pdfrwt>
<totfact> 0.10149479E+08</totfact>
</mgrwt>
</event>
<event>
 4    1  0.4039863E+006  0.9137938E+01  0.7546771E-02  0.2127646E+00
         21   -1    0    0  501  502  0.00000000000E+00  0.00000000000E+00  0.14144622472E+00  0.14144622472E+00  0.00000000000E+00 0.  1.
         21   -1    0    0  502  503 -0.00000000000E+00 -0.00000000000E+00 -0.17382631816E+04  0.17382631816E+04  0.00000000000E+00 0. -1.
          5    1    1    2  501    0 -0.47132508458E+01 -0.62607643965E+01 -0.16271273895E+03  0.16296912997E+03  0.47000000000E+01 0.  1.
         -5    1    1    2    0  503  0.47132508458E+01  0.62607643965E+01 -0.15754089964E+04  0.15754354978E+04  0.47000000000E+01 0. -1.
<mgrwt>
<rscale>  2 0.91379376E+01</rscale>
<asrwt>0</asrwt>
<pdfrwt beam="1">  1       21 0.21761749E-04 0.91379376E+01</pdfrwt>
<pdfrwt beam="2">  1       21 0.26741538E+00 0.91379376E+01</pdfrwt>
<totfact> 0.50486986E+07</totfact>
</mgrwt>
</event>
<event>
 4    1  0.4039863E+006  0.1048019E+02  0.7546771E-02  0.2048647E+00
         21   -1    0    0  501  502  0.00000000000E+00  0.00000000000E+00  0.27085157921E+02  0.27085157921E+02  0.00000000000E+00 0.  1.
         21   -1    0    0  502  503 -0.00000000000E+00 -0.00000000000E+00 -0.79088286642E+01  0.79088286642E+01  0.00000000000E+00 0. -1.
          5    1    1    2  501    0  0.63140419839E+01 -0.69193394183E+01  0.21801803605E+02  0.24189936432E+02  0.47000000000E+01 0.  1.
         -5    1    1    2    0  503 -0.63140419839E+01  0.69193394183E+01 -0.26254743481E+01  0.10804050153E+02  0.47000000000E+01 0. -1.
<mgrwt>
<rscale>  2 0.10480190E+02</rscale>
<asrwt>0</asrwt>
<pdfrwt beam="1">  1       21 0.41669473E-02 0.10480190E+02</pdfrwt>
<pdfrwt beam="2">  1       21 0.12167429E-02 0.10480190E+02</pdfrwt>
<totfact> 0.43459056E+08</totfact>
</mgrwt>
</event>
<event>
 4    1  0.4039863E+006  0.6852460E+01  0.7546771E-02  0.2316130E+00
         21   -1    0    0  501  502  0.00000000000E+00  0.00000000000E+00  0.89027327695E+01  0.89027327695E+01  0.00000000000E+00 0. -1.
         21   -1    0    0  502  503 -0.00000000000E+00 -0.00000000000E+00 -0.60735151371E+01  0.60735151371E+01  0.00000000000E+00 0. -1.
          5    1    1    2  501    0  0.44078430417E+01  0.23317657612E+01  0.41308522496E+01  0.80012594105E+01  0.47000000000E+01 0. -1.
         -5    1    1    2    0  503 -0.44078430417E+01 -0.23317657612E+01 -0.13016346172E+01  0.69749884962E+01  0.47000000000E+01 0. -1.
<mgrwt>
<rscale>  2 0.68524603E+01</rscale>
<asrwt>0</asrwt>
<pdfrwt beam="1">  1       21 0.13696512E-02 0.68524603E+01</pdfrwt>
<pdfrwt beam="2">  1       21 0.93438694E-03 0.68524603E+01</pdfrwt>
<totfact> 0.24858507E+09</totfact>
</mgrwt>
</event>
<event>
 4    1  0.4039863E+006  0.1009997E+02  0.7546771E-02  0.2069342E+00
         21   -1    0    0  501  502  0.00000000000E+00  0.00000000000E+00  0.64994188872E+00  0.64994188872E+00  0.00000000000E+00 0. -1.
         21   -1    0    0  502  503 -0.00000000000E+00 -0.00000000000E+00 -0.35714837508E+03  0.35714837508E+03  0.00000000000E+00 0.  1.
          5    1    1    2  501    0 -0.44284418722E+01  0.77658444226E+01 -0.44308546430E+02  0.45445095706E+02  0.47000000000E+01 0. -1.
         -5    1    1    2    0  503  0.44284418722E+01 -0.77658444226E+01 -0.31218988676E+03  0.31235322126E+03  0.47000000000E+01 0.  1.
<mgrwt>
<rscale>  2 0.10099972E+02</rscale>
<asrwt>0</asrwt>
<pdfrwt beam="1">  1       21 0.99990897E-04 0.10099972E+02</pdfrwt>
<pdfrwt beam="2">  1       21 0.54945994E-01 0.10099972E+02</pdfrwt>
<totfact> 0.20422361E+08</totfact>
</mgrwt>
</event>
<event>
 4    1  0.4039863E+006  0.1181564E+02  0.7546771E-02  0.1984340E+00
         21   -1    0    0  501  502  0.00000000000E+00  0.00000000000E+00  0.17302799489E+01  0.17302799489E+01  0.00000000000E+00 0.  1.
         21   -1    0    0  502  503 -0.00000000000E+00 -0.00000000000E+00 -0.12186478839E+03  0.12186478839E+03  0.00000000000E+00 0. -1.
          5    1    1    2  501    0  0.45571059374E+01 -0.98362681962E+01 -0.24144572338E+02  0.26880657729E+02  0.47000000000E+01 0.  1.
         -5    1    1    2    0  503 -0.45571059374E+01  0.98362681962E+01 -0.95989936103E+02  0.96714410610E+02  0.47000000000E+01 0. -1.
<mgrwt>
<rscale>  2 0.11815642E+02</rscale>
<asrwt>0</asrwt>
<pdfrwt beam="1">  1       21 0.26619694E-03 0.11815642E+02</pdfrwt>
<pdfrwt beam="2">  1       21 0.18748427E-01 0.11815642E+02</pdfrwt>
<totfact> 0.37549942E+08</totfact>
</mgrwt>
</event>
<event>
 4    1  0.4039863E+006  0.7901443E+01  0.7546771E-02  0.2218693E+00
         21   -1    0    0  503  502  0.00000000000E+00  0.00000000000E+00  0.16667545502E+03  0.16667545502E+03  0.00000000000E+00 0.  1.
         21   -1    0    0  501  503 -0.00000000000E+00 -0.00000000000E+00 -0.37509917322E+00  0.37509917322E+00  0.00000000000E+00 0. -1.
          5    1    1    2  501    0  0.35877007022E+00  0.63414574286E+01  0.80033899289E+02  0.80422993190E+02  0.47000000000E+01 0.  1.
         -5    1    1    2    0  502 -0.35877007022E+00 -0.63414574286E+01  0.86266456556E+02  0.86627561001E+02  0.47000000000E+01 0. -1.
<mgrwt>
<rscale>  2 0.79014428E+01</rscale>
<asrwt>0</asrwt>
<pdfrwt beam="1">  1       21 0.25642319E-01 0.79014428E+01</pdfrwt>
<pdfrwt beam="2">  1       21 0.57707698E-04 0.79014428E+01</pdfrwt>
<totfact> 0.14722630E+09</totfact>
</mgrwt>
</event>
<event>
 4    1  0.4039863E+006  0.5203304E+01  0.7546771E-02  0.2532304E+00
         21   -1    0    0  503  502  0.00000000000E+00  0.00000000000E+00  0.57966925659E+03  0.57966925659E+03  0.00000000000E+00 0.  1.
         21   -1    0    0  501  503 -0.00000000000E+00 -0.00000000000E+00 -0.27812941947E+01  0.27812941947E+01  0.00000000000E+00 0.  1.
          5    1    1    2  501    0  0.14739537536E+01  0.16768529273E+01 -0.32565137328E+00  0.52134848446E+01  0.47000000000E+01 0.  1.
         -5    1    1    2    0  502 -0.14739537536E+01 -0.16768529273E+01  0.57721361377E+03  0.57723706595E+03  0.47000000000E+01 0.  1.
<mgrwt>
<rscale>  2 0.52033043E+01</rscale>
<asrwt>0</asrwt>
<pdfrwt beam="1">  1       21 0.89179789E-01 0.52033043E+01</pdfrwt>
<pdfrwt beam="2">  1       21 0.42789188E-03 0.52033043E+01</pdfrwt>
<totfact> 0.79301236E+06</totfact>
</mgrwt>
</event>
<event>
 4    1  0.4039863E+006  0.5133120E+01  0.7546771E-02  0.2544067E+00
         21   -1    0    0  503  502  0.00000000000E+00  0.00000000000E+00  0.61685636892E+00  0.61685636892E+00  0.00000000000E+00 0. -1.
         21   -1    0    0  501  503 -0.00000000000E+00 -0.00000000000E+00 -0.43617080220E+02  0.43617080220E+02  0.00000000000E+00 0. -1.
          5    1    1    2  501    0  0.20323322471E+01 -0.35853649439E+00 -0.18319155376E+02  0.19024730654E+02  0.47000000000E+01 0. -1.
         -5    1    1    2    0  502 -0.20323322471E+01  0.35853649439E+00 -0.24681068475E+02  0.25209205935E+02  0.47000000000E+01 0. -1.
<mgrwt>
<rscale>  2 0.51331202E+01</rscale>
<asrwt>0</asrwt>
<pdfrwt beam="1">  1       21 0.94900948E-04 0.51331202E+01</pdfrwt>
<pdfrwt beam="2">  1       21 0.67103223E-02 0.51331202E+01</pdfrwt>
<totfact> 0.43835573E+09</totfact>
</mgrwt>
</event>
<event>
 4    1  0.4039863E+006  0.6878757E+01  0.7546771E-02  0.2313393E+00
         21   -1    0    0  501  502  0.00000000000E+00  0.00000000000E+00  0.93969196436E+00  0.93969196436E+00  0.00000000000E+00 0. -1.
         21   -1    0    0  502  503 -0.00000000000E+00 -0.00000000000E+00 -0.52629520756E+02  0.52629520756E+02  0.00000000000E+00 0. -1.
          5    1    1    2  501    0 -0.49675872672E+01 -0.74187289636E+00 -0.20275546123E+02  0.21410629819E+02  0.47000000000E+01 0. -1.
         -5    1    1    2    0  503  0.49675872672E+01  0.74187289636E+00 -0.31414282669E+02  0.32158582902E+02  0.47000000000E+01 0. -1.
<mgrwt>
<rscale>  2 0.68787571E+01</rscale>
<asrwt>0</asrwt>
<pdfrwt beam="1">  1       21 0.14456794E-03 0.68787571E+01</pdfrwt>
<pdfrwt beam="2">  1       21 0.80968526E-02 0.68787571E+01</pdfrwt>
<totfact> 0.24254485E+09</totfact>
</mgrwt>
</event>
<event>
 4    1  0.4039863E+006  0.4959161E+01  0.7546771E-02  0.2574450E+00
         21   -1    0    0  501  502  0.00000000000E+00  0.00000000000E+00  0.81685883462E+01  0.81685883462E+01  0.00000000000E+00 0. -1.
         21   -1    0    0  502  503 -0.00000000000E+00 -0.00000000000E+00 -0.38662359973E+01  0.38662359973E+01  0.00000000000E+00 0. -1.
          5    1    1    2  501    0 -0.67286857891E+00 -0.14319653003E+01  0.49817948907E+01  0.70293354649E+01  0.47000000000E+01 0. -1.
         -5    1    1    2    0  503  0.67286857891E+00  0.14319653003E+01 -0.67944254175E+00  0.50054888785E+01  0.47000000000E+01 0. -1.
<mgrwt>
<rscale>  2 0.49591609E+01</rscale>
<asrwt>0</asrwt>
<pdfrwt beam="1">  1       21 0.12567059E-02 0.49591609E+01</pdfrwt>
<pdfrwt beam="2">  1       21 0.59480554E-03 0.49591609E+01</pdfrwt>
<totfact> 0.39264020E+09</totfact>
</mgrwt>
</event>
<event>
 4    1  0.4039863E+006  0.6984303E+01  0.7546771E-02  0.2302579E+00
         21   -1    0    0  503  502  0.00000000000E+00  0.00000000000E+00  0.97055734344E+03  0.97055734344E+03  0.00000000000E+00 0.  1.
         21   -1    0    0  501  503 -0.00000000000E+00 -0.00000000000E+00 -0.75810310042E-01  0.75810310042E-01  0.00000000000E+00 0.  1.
          5    1    1    2  501    0 -0.11563316693E+01  0.50352151768E+01  0.20349551794E+03  0.20361533910E+03  0.47000000000E+01 0.  1.
         -5    1    1    2    0  502  0.11563316693E+01 -0.50352151768E+01  0.76698601519E+03  0.76701781465E+03  0.47000000000E+01 0.  1.
<mgrwt>
<rscale>  2 0.69843035E+01</rscale>
<asrwt>0</asrwt>
<pdfrwt beam="1">  1       21 0.14930656E+00 0.69843035E+01</pdfrwt>
<pdfrwt beam="2">  1       21 0.11663902E-04 0.69843035E+01</pdfrwt>
<totfact> 0.40814651E+08</totfact>
</mgrwt>
</event>
<event>
 4    1  0.4039863E+006  0.6764054E+01  0.7546771E-02  0.2325459E+00
         21   -1    0    0  501  502  0.00000000000E+00  0.00000000000E+00  0.42475185624E-01  0.42475185624E-01  0.00000000000E+00 0. -1.
         21   -1    0    0  502  503 -0.00000000000E+00 -0.00000000000E+00 -0.21806593403E+04  0.21806593403E+04  0.00000000000E+00 0. -1.
          5    1    1    2  501    0 -0.42028359883E+01  0.24492025018E+01 -0.31467039349E+03  0.31474308406E+03  0.47000000000E+01 0. -1.
         -5    1    1    2    0  503  0.42028359883E+01 -0.24492025018E+01 -0.18659464716E+04  0.18659587314E+04  0.47000000000E+01 0. -1.
<mgrwt>
<rscale>  2 0.67640538E+01</rscale>
<asrwt>0</asrwt>
<pdfrwt beam="1">  1       21 0.65342159E-05 0.67640538E+01</pdfrwt>
<pdfrwt beam="2">  1       21 0.33550803E+00 0.67640538E+01</pdfrwt>
<totfact> 0.12292328E+08</totfact>
</mgrwt>
</event>
<event>
 4    1  0.4039863E+006  0.7854191E+01  0.7546771E-02  0.2222623E+00
         21   -1    0    0  501  502  0.00000000000E+00  0.00000000000E+00  0.27684491227E+02  0.27684491227E+02  0.00000000000E+00 0. -1.
         21   -1    0    0  502  503 -0.00000000000E+00 -0.00000000000E+00 -0.47793553361E+02  0.47793553361E+02  0.00000000000E+00 0. -1.
          5    1    1    2  501    0 -0.52363216060E+01 -0.34898783535E+01  0.26794244172E+02  0.27921673224E+02  0.47000000000E+01 0. -1.
         -5    1    1    2    0  503  0.52363216060E+01  0.34898783535E+01 -0.46903306306E+02  0.47556371364E+02  0.47000000000E+01 0. -1.
<mgrwt>
<rscale>  2 0.78541909E+01</rscale>
<asrwt>0</asrwt>
<pdfrwt beam="1">  1       21 0.42591526E-02 0.78541909E+01</pdfrwt>
<pdfrwt beam="2">  1       21 0.73528543E-02 0.78541909E+01</pdfrwt>
<totfact> 0.24788692E+07</totfact>
</mgrwt>
</event>
<event>
 4    1  0.4039863E+006  0.8270410E+01  0.7546771E-02  0.2189251E+00
         21   -1    0    0  501  502  0.00000000000E+00  0.00000000000E+00  0.57479080709E+01  0.57479080709E+01  0.00000000000E+00 0. -1.
         21   -1    0    0  502  503 -0.00000000000E+00 -0.00000000000E+00 -0.14773431187E+02  0.14773431187E+02  0.00000000000E+00 0.  1.
          5    1    1    2  501    0  0.50077774537E+01  0.46078034447E+01  0.12471171049E-01  0.82704197681E+01  0.47000000000E+01 0. -1.
         -5    1    1    2    0  503 -0.50077774537E+01 -0.46078034447E+01 -0.90379942873E+01  0.12250919490E+02  0.47000000000E+01 0.  1.
<mgrwt>
<rscale>  2 0.82704104E+01</rscale>
<asrwt>0</asrwt>
<pdfrwt beam="1">  1       21 0.88429354E-03 0.82704104E+01</pdfrwt>
<pdfrwt beam="2">  1       21 0.22728356E-02 0.82704104E+01</pdfrwt>
<totfact> 0.14815104E+09</totfact>
</mgrwt>
</event>
<event>
 4    1  0.4039863E+006  0.9026838E+01  0.7546771E-02  0.2135006E+00
         21   -1    0    0  501  502  0.00000000000E+00  0.00000000000E+00  0.22631444951E+00  0.22631444951E+00  0.00000000000E+00 0.  1.
         21   -1    0    0  502  503 -0.00000000000E+00 -0.00000000000E+00 -0.41568644122E+03  0.41568644122E+03  0.00000000000E+00 0. -1.
          5    1    1    2  501    0  0.55945107039E+01 -0.53004955302E+01 -0.13164817022E+03  0.13195728296E+03  0.47000000000E+01 0.  1.
         -5    1    1    2    0  503 -0.55945107039E+01  0.53004955302E+01 -0.28381195656E+03  0.28395547272E+03  0.47000000000E+01 0. -1.
<mgrwt>
<rscale>  2 0.90268379E+01</rscale>
<asrwt>0</asrwt>
<pdfrwt beam="1">  1       21 0.34818039E-04 0.90268379E+01</pdfrwt>
<pdfrwt beam="2">  1       21 0.63950968E-01 0.90268379E+01</pdfrwt>
<totfact> 0.61263196E+08</totfact>
</mgrwt>
</event>
<event>
 4    1  0.4039863E+006  0.6540847E+01  0.7546771E-02  0.2349933E+00
         21   -1    0    0  503  502  0.00000000000E+00  0.00000000000E+00  0.37107025989E+00  0.37107025989E+00  0.00000000000E+00 0.  1.
         21   -1    0    0  501  503 -0.00000000000E+00 -0.00000000000E+00 -0.26987015235E+03  0.26987015235E+03  0.00000000000E+00 0. -1.
          5    1    1    2  501    0  0.41955243821E+01  0.17579120466E+01 -0.23701135888E+03  0.23710159619E+03  0.47000000000E+01 0. -1.
         -5    1    1    2    0  502 -0.41955243821E+01 -0.17579120466E+01 -0.32487723207E+02  0.33139626413E+02  0.47000000000E+01 0.  1.
<mgrwt>
<rscale>  2 0.65408470E+01</rscale>
<asrwt>0</asrwt>
<pdfrwt beam="1">  1       21 0.57087731E-04 0.65408470E+01</pdfrwt>
<pdfrwt beam="2">  1       21 0.41518486E-01 0.65408470E+01</pdfrwt>
<totfact> 0.57432502E+08</totfact>
</mgrwt>
</event>
<event>
 4    1  0.4039863E+006  0.5070853E+01  0.7546771E-02  0.2554736E+00
         21   -1    0    0  503  502  0.00000000000E+00  0.00000000000E+00  0.17829517868E+00  0.17829517868E+00  0.00000000000E+00 0.  1.
         21   -1    0    0  501  503 -0.00000000000E+00 -0.00000000000E+00 -0.33085148737E+03  0.33085148737E+03  0.00000000000E+00 0. -1.
          5    1    1    2  501    0  0.44879367139E+00 -0.18499006869E+01 -0.28964891735E+03  0.28969330139E+03  0.47000000000E+01 0. -1.
         -5    1    1    2    0  502 -0.44879367139E+00  0.18499006869E+01 -0.41024274842E+02  0.41336481159E+02  0.47000000000E+01 0. -1.
<mgrwt>
<rscale>  2 0.50708528E+01</rscale>
<asrwt>0</asrwt>
<pdfrwt beam="1">  1       21 0.27430041E-04 0.50708528E+01</pdfrwt>
<pdfrwt beam="2">  1       21 0.50900204E-01 0.50708528E+01</pdfrwt>
<totfact> 0.87961948E+08</totfact>
</mgrwt>
</event>
<event>
 4    1  0.4039863E+006  0.5730647E+01  0.7546771E-02  0.2451856E+00
         21   -1    0    0  501  502  0.00000000000E+00  0.00000000000E+00  0.22775094182E+03  0.22775094182E+03  0.00000000000E+00 0. -1.
         21   -1    0    0  502  503 -0.00000000000E+00 -0.00000000000E+00 -0.24008993977E+00  0.24008993977E+00  0.00000000000E+00 0. -1.
          5    1    1    2  501    0 -0.31919487248E+01 -0.74951947354E+00  0.18579994202E+03  0.18588829649E+03  0.47000000000E+01 0. -1.
         -5    1    1    2    0  503  0.31919487248E+01  0.74951947354E+00  0.41710909860E+02  0.42102735273E+02  0.47000000000E+01 0. -1.
<mgrwt>
<rscale>  2 0.57306471E+01</rscale>
<asrwt>0</asrwt>
<pdfrwt beam="1">  1       21 0.35038434E-01 0.57306471E+01</pdfrwt>
<pdfrwt beam="2">  1       21 0.36937096E-04 0.57306471E+01</pdfrwt>
<totfact> 0.12540996E+09</totfact>
</mgrwt>
</event>
<event>
 4    1  0.4039863E+006  0.9955935E+01  0.7546771E-02  0.2077504E+00
         21   -1    0    0  501  502  0.00000000000E+00  0.00000000000E+00  0.11379993969E+00  0.11379993969E+00  0.00000000000E+00 0. -1.
         21   -1    0    0  502  503 -0.00000000000E+00 -0.00000000000E+00 -0.92073774805E+03  0.92073774805E+03  0.00000000000E+00 0.  1.
          5    1    1    2  501    0 -0.86668444573E+01  0.13843588554E+01 -0.35330788355E+03  0.35344813087E+03  0.47000000000E+01 0. -1.
         -5    1    1    2    0  503  0.86668444573E+01 -0.13843588554E+01 -0.56731606456E+03  0.56740341711E+03  0.47000000000E+01 0.  1.
<mgrwt>
<rscale>  2 0.99559350E+01</rscale>
<asrwt>0</asrwt>
<pdfrwt beam="1">  1       21 0.17508064E-04 0.99559350E+01</pdfrwt>
<pdfrwt beam="2">  1       21 0.14164888E+00 0.99559350E+01</pdfrwt>
<totfact> 0.31532867E+08</totfact>
</mgrwt>
</event>
<event>
 4    1  0.4039863E+006  0.1003059E+02  0.7546771E-02  0.2073251E+00
         21   -1    0    0  501  502  0.00000000000E+00  0.00000000000E+00  0.81727409750E+01  0.81727409750E+01  0.00000000000E+00 0. -1.
         21   -1    0    0  502  503 -0.00000000000E+00 -0.00000000000E+00 -0.18847792800E+02  0.18847792800E+02  0.00000000000E+00 0. -1.
          5    1    1    2  501    0 -0.51837005042E+01 -0.71869365671E+01  0.26189981248E+01  0.10366868347E+02  0.47000000000E+01 0. -1.
         -5    1    1    2    0  503  0.51837005042E+01  0.71869365671E+01 -0.13294049950E+02  0.16653665429E+02  0.47000000000E+01 0. -1.
<mgrwt>
<rscale>  2 0.10030594E+02</rscale>
<asrwt>0</asrwt>
<pdfrwt beam="1">  1       21 0.12573448E-02 0.10030594E+02</pdfrwt>
<pdfrwt beam="2">  1       21 0.28996604E-02 0.10030594E+02</pdfrwt>
<totfact> 0.69939871E+08</totfact>
</mgrwt>
</event>
<event>
 4    1  0.4039863E+006  0.4974370E+01  0.7546771E-02  0.2571721E+00
         21   -1    0    0  501  502  0.00000000000E+00  0.00000000000E+00  0.36179165488E+00  0.36179165488E+00  0.00000000000E+00 0. -1.
         21   -1    0    0  502  503 -0.00000000000E+00 -0.00000000000E+00 -0.75368447110E+02  0.75368447110E+02  0.00000000000E+00 0. -1.
          5    1    1    2  501    0  0.14890416348E+00  0.16224022973E+01 -0.49021959195E+02  0.49273693234E+02  0.47000000000E+01 0. -1.
         -5    1    1    2    0  503 -0.14890416348E+00 -0.16224022973E+01 -0.25984696261E+02  0.26456545531E+02  0.47000000000E+01 0. -1.
<mgrwt>
<rscale>  2 0.49743705E+01</rscale>
<asrwt>0</asrwt>
<pdfrwt beam="1">  1       21 0.55660244E-04 0.49743705E+01</pdfrwt>
<pdfrwt beam="2">  1       21 0.11595148E-01 0.49743705E+01</pdfrwt>
<totfact> 0.37867746E+09</totfact>
</mgrwt>
</event>
<event>
 4    1  0.4039863E+006  0.8763441E+01  0.7546771E-02  0.2153046E+00
         21   -1    0    0  503  502  0.00000000000E+00  0.00000000000E+00  0.90234655454E+02  0.90234655454E+02  0.00000000000E+00 0. -1.
         21   -1    0    0  501  503 -0.00000000000E+00 -0.00000000000E+00 -0.19924923777E+01  0.19924923777E+01  0.00000000000E+00 0. -1.
          5    1    1    2  501    0  0.39080308945E+01  0.62797449009E+01  0.92191350937E+01  0.12719683698E+02  0.47000000000E+01 0. -1.
         -5    1    1    2    0  502 -0.39080308945E+01 -0.62797449009E+01  0.79023027983E+02  0.79507464134E+02  0.47000000000E+01 0. -1.
<mgrwt>
<rscale>  2 0.87634412E+01</rscale>
<asrwt>0</asrwt>
<pdfrwt beam="1">  1       21 0.13882252E-01 0.87634412E+01</pdfrwt>
<pdfrwt beam="2">  1       21 0.30653736E-03 0.87634412E+01</pdfrwt>
<totfact> 0.43274679E+08</totfact>
</mgrwt>
</event>
<event>
 4    1  0.4039863E+006  0.9761036E+01  0.7546771E-02  0.2088848E+00
         21   -1    0    0  503  502  0.00000000000E+00  0.00000000000E+00  0.26429275784E+03  0.26429275784E+03  0.00000000000E+00 0. -1.
         21   -1    0    0  501  503 -0.00000000000E+00 -0.00000000000E+00 -0.47692791086E+00  0.47692791086E+00  0.00000000000E+00 0. -1.
          5    1    1    2  501    0  0.35000510177E+01  0.78062450426E+01  0.66498769685E+02  0.67211339731E+02  0.47000000000E+01 0. -1.
         -5    1    1    2    0  502 -0.35000510177E+01 -0.78062450426E+01  0.19731706024E+03  0.19755834602E+03  0.47000000000E+01 0. -1.
<mgrwt>
<rscale>  2 0.97610357E+01</rscale>
<asrwt>0</asrwt>
<pdfrwt beam="1">  1       21 0.40660307E-01 0.97610357E+01</pdfrwt>
<pdfrwt beam="2">  1       21 0.73373736E-04 0.97610357E+01</pdfrwt>
<totfact> 0.53651928E+08</totfact>
</mgrwt>
</event>
<event>
 4    1  0.4039863E+006  0.8780897E+01  0.7546771E-02  0.2151824E+00
         21   -1    0    0  503  502  0.00000000000E+00  0.00000000000E+00  0.14456109240E+03  0.14456109240E+03  0.00000000000E+00 0.  1.
         21   -1    0    0  501  503 -0.00000000000E+00 -0.00000000000E+00 -0.13539565396E+02  0.13539565396E+02  0.00000000000E+00 0.  1.
          5    1    1    2  501    0 -0.73309489149E+01 -0.11275404002E+01 -0.11966897523E+02  0.14842870197E+02  0.47000000000E+01 0.  1.
         -5    1    1    2    0  502  0.73309489149E+01  0.11275404002E+01  0.14298842453E+03  0.14325778760E+03  0.47000000000E+01 0.  1.
<mgrwt>
<rscale>  2 0.87808974E+01</rscale>
<asrwt>0</asrwt>
<pdfrwt beam="1">  1       21 0.22240167E-01 0.87808974E+01</pdfrwt>
<pdfrwt beam="2">  1       21 0.20830102E-02 0.87808974E+01</pdfrwt>
<totfact> 0.12785815E+07</totfact>
</mgrwt>
</event>
<event>
 4    1  0.4039863E+006  0.5604683E+01  0.7546771E-02  0.2469902E+00
         21   -1    0    0  501  502  0.00000000000E+00  0.00000000000E+00  0.88202124911E+01  0.88202124911E+01  0.00000000000E+00 0.  1.
         21   -1    0    0  502  503 -0.00000000000E+00 -0.00000000000E+00 -0.16150397875E+02  0.16150397875E+02  0.00000000000E+00 0.  1.
          5    1    1    2  501    0  0.94390168674E+00 -0.29037081635E+01  0.73579833545E+01  0.92494535264E+01  0.47000000000E+01 0.  1.
         -5    1    1    2    0  503 -0.94390168674E+00  0.29037081635E+01 -0.14688168738E+02  0.15721156840E+02  0.47000000000E+01 0.  1.
<mgrwt>
<rscale>  2 0.56046830E+01</rscale>
<asrwt>0</asrwt>
<pdfrwt beam="1">  1       21 0.13569558E-02 0.56046830E+01</pdfrwt>
<pdfrwt beam="2">  1       21 0.24846766E-02 0.56046830E+01</pdfrwt>
<totfact> 0.52930707E+08</totfact>
</mgrwt>
</event>
<event>
 4    1  0.4039863E+006  0.4864627E+01  0.7546771E-02  0.2591744E+00
         21   -1    0    0  501  502  0.00000000000E+00  0.00000000000E+00  0.28036904887E+00  0.28036904887E+00  0.00000000000E+00 0.  1.
         21   -1    0    0  502  503 -0.00000000000E+00 -0.00000000000E+00 -0.84470978346E+02  0.84470978346E+02  0.00000000000E+00 0.  1.
          5    1    1    2  501    0  0.70164975280E+00  0.10403285148E+01 -0.43278129032E+02  0.43550672192E+02  0.47000000000E+01 0. -1.
         -5    1    1    2    0  503 -0.70164975280E+00 -0.10403285148E+01 -0.40912480265E+02  0.41200675203E+02  0.47000000000E+01 0. -1.
<mgrwt>
<rscale>  2 0.48646270E+01</rscale>
<asrwt>0</asrwt>
<pdfrwt beam="1">  1       21 0.43133630E-04 0.48646270E+01</pdfrwt>
<pdfrwt beam="2">  1       21 0.12995556E-01 0.48646270E+01</pdfrwt>
<totfact> 0.43574341E+09</totfact>
</mgrwt>
</event>
<event>
 4    1  0.4039863E+006  0.5783732E+01  0.7546771E-02  0.2444451E+00
         21   -1    0    0  501  502  0.00000000000E+00  0.00000000000E+00  0.19431549690E+00  0.19431549690E+00  0.00000000000E+00 0.  1.
         21   -1    0    0  502  503 -0.00000000000E+00 -0.00000000000E+00 -0.17293226424E+03  0.17293226424E+03  0.00000000000E+00 0.  1.
          5    1    1    2  501    0  0.19115512173E+01 -0.27762424260E+01 -0.80549600114E+02  0.80756978823E+02  0.47000000000E+01 0.  1.
         -5    1    1    2    0  503 -0.19115512173E+01  0.27762424260E+01 -0.92188348630E+02  0.92369600915E+02  0.47000000000E+01 0.  1.
<mgrwt>
<rscale>  2 0.57837315E+01</rscale>
<asrwt>0</asrwt>
<pdfrwt beam="1">  1       21 0.29894764E-04 0.57837315E+01</pdfrwt>
<pdfrwt beam="2">  1       21 0.26604899E-01 0.57837315E+01</pdfrwt>
<totfact> 0.26616565E+09</totfact>
</mgrwt>
</event>
<event>
 4    1  0.4039863E+006  0.7821794E+01  0.7546771E-02  0.2225341E+00
         21   -1    0    0  503  502  0.00000000000E+00  0.00000000000E+00  0.73450714582E+01  0.73450714582E+01  0.00000000000E+00 0.  1.
         21   -1    0    0  501  503 -0.00000000000E+00 -0.00000000000E+00 -0.94166802481E+01  0.94166802481E+01  0.00000000000E+00 0. -1.
          5    1    1    2  501    0  0.31045984429E+01 -0.54269633264E+01 -0.38835402895E+01  0.87328315923E+01  0.47000000000E+01 0. -1.
         -5    1    1    2    0  502 -0.31045984429E+01  0.54269633264E+01  0.18119314997E+01  0.80289201140E+01  0.47000000000E+01 0.  1.
<mgrwt>
<rscale>  2 0.78217941E+01</rscale>
<asrwt>0</asrwt>
<pdfrwt beam="1">  1       21 0.11300110E-02 0.78217941E+01</pdfrwt>
<pdfrwt beam="2">  1       21 0.14487200E-02 0.78217941E+01</pdfrwt>
<totfact> 0.19331784E+09</totfact>
</mgrwt>
</event>
<event>
 4    1  0.4039863E+006  0.6126883E+01  0.7546771E-02  0.2399196E+00
         21   -1    0    0  503  502  0.00000000000E+00  0.00000000000E+00  0.40825749956E+03  0.40825749956E+03  0.00000000000E+00 0.  1.
         21   -1    0    0  501  503 -0.00000000000E+00 -0.00000000000E+00 -0.94889774671E-01  0.94889774671E-01  0.00000000000E+00 0. -1.
          5    1    1    2  501    0  0.38981182961E+01  0.50336120399E+00  0.24002783967E+03  0.24010602348E+03  0.47000000000E+01 0.  1.
         -5    1    1    2    0  502 -0.38981182961E+01 -0.50336120399E+00  0.16813477012E+03  0.16824636585E+03  0.47000000000E+01 0.  1.
<mgrwt>
<rscale>  2 0.61268833E+01</rscale>
<asrwt>0</asrwt>
<pdfrwt beam="1">  1       21 0.62807440E-01 0.61268833E+01</pdfrwt>
<pdfrwt beam="2">  1       21 0.14598754E-04 0.61268833E+01</pdfrwt>
<totfact> 0.16042690E+09</totfact>
</mgrwt>
</event>
<event>
 4    1  0.4039863E+006  0.5961407E+01  0.7546771E-02  0.2420474E+00
         21   -1    0    0  501  502  0.00000000000E+00  0.00000000000E+00  0.12460165526E+01  0.12460165526E+01  0.00000000000E+00 0. -1.
         21   -1    0    0  502  503 -0.00000000000E+00 -0.00000000000E+00 -0.34383048352E+02  0.34383048352E+02  0.00000000000E+00 0. -1.
          5    1    1    2  501    0  0.22145344809E+00 -0.36605101684E+01 -0.92131380103E+01  0.10973617832E+02  0.47000000000E+01 0. -1.
         -5    1    1    2    0  503 -0.22145344809E+00  0.36605101684E+01 -0.23923893789E+02  0.24655447073E+02  0.47000000000E+01 0. -1.
<mgrwt>
<rscale>  2 0.59614072E+01</rscale>
<asrwt>0</asrwt>
<pdfrwt beam="1">  1       21 0.19169486E-03 0.59614072E+01</pdfrwt>
<pdfrwt beam="2">  1       21 0.52896996E-02 0.59614072E+01</pdfrwt>
<totfact> 0.27903530E+09</totfact>
</mgrwt>
</event>
<event>
 4    1  0.4039863E+006  0.5027110E+01  0.7546771E-02  0.2562367E+00
         21   -1    0    0  503  502  0.00000000000E+00  0.00000000000E+00  0.74033872257E+01  0.74033872257E+01  0.00000000000E+00 0.  1.
         21   -1    0    0  501  503 -0.00000000000E+00 -0.00000000000E+00 -0.36258063967E+01  0.36258063967E+01  0.00000000000E+00 0. -1.
          5    1    1    2  501    0 -0.16719970847E+01  0.62150159025E+00  0.55452870591E+00  0.50576022544E+01  0.47000000000E+01 0. -1.
         -5    1    1    2    0  502  0.16719970847E+01 -0.62150159025E+00  0.32230521231E+01  0.59715913680E+01  0.47000000000E+01 0. -1.
<mgrwt>
<rscale>  2 0.50271104E+01</rscale>
<asrwt>0</asrwt>
<pdfrwt beam="1">  1       21 0.11389826E-02 0.50271104E+01</pdfrwt>
<pdfrwt beam="2">  1       21 0.55781637E-03 0.50271104E+01</pdfrwt>
<totfact> 0.49942115E+09</totfact>
</mgrwt>
</event>
<event>
 4    1  0.4039863E+006  0.6034090E+01  0.7546771E-02  0.2411008E+00
         21   -1    0    0  503  502  0.00000000000E+00  0.00000000000E+00  0.48393483137E+00  0.48393483137E+00  0.00000000000E+00 0.  1.
         21   -1    0    0  501  503 -0.00000000000E+00 -0.00000000000E+00 -0.88627807236E+02  0.88627807236E+02  0.00000000000E+00 0.  1.
          5    1    1    2  501    0 -0.13779213695E+01  0.35244256167E+01 -0.61390370527E+02  0.61686204590E+02  0.47000000000E+01 0.  1.
         -5    1    1    2    0  502  0.13779213695E+01 -0.35244256167E+01 -0.26753501877E+02  0.27425537477E+02  0.47000000000E+01 0.  1.
<mgrwt>
<rscale>  2 0.60340901E+01</rscale>
<asrwt>0</asrwt>
<pdfrwt beam="1">  1       21 0.74451518E-04 0.60340901E+01</pdfrwt>
<pdfrwt beam="2">  1       21 0.13635046E-01 0.60340901E+01</pdfrwt>
<totfact> 0.23870634E+09</totfact>
</mgrwt>
</event>
<event>
 4    1  0.4039863E+006  0.6036689E+01  0.7546771E-02  0.2410673E+00
         21   -1    0    0  503  502  0.00000000000E+00  0.00000000000E+00  0.88930379127E+02  0.88930379127E+02  0.00000000000E+00 0.  1.
         21   -1    0    0  501  503 -0.00000000000E+00 -0.00000000000E+00 -0.54974372005E+00  0.54974372005E+00  0.00000000000E+00 0. -1.
          5    1    1    2  501    0 -0.83095418252E+00  0.36960968589E+01  0.21615255555E+02  0.22442390460E+02  0.47000000000E+01 0. -1.
         -5    1    1    2    0  502  0.83095418252E+00 -0.36960968589E+01  0.66765379852E+02  0.67037732387E+02  0.47000000000E+01 0.  1.
<mgrwt>
<rscale>  2 0.60366892E+01</rscale>
<asrwt>0</asrwt>
<pdfrwt beam="1">  1       21 0.13681585E-01 0.60366892E+01</pdfrwt>
<pdfrwt beam="2">  1       21 0.84576028E-04 0.60366892E+01</pdfrwt>
<totfact> 0.20018944E+09</totfact>
</mgrwt>
</event>
<event>
 4    1  0.4039863E+006  0.6739646E+01  0.7546771E-02  0.2328070E+00
         21   -1    0    0  503  502  0.00000000000E+00  0.00000000000E+00  0.26742565201E+01  0.26742565201E+01  0.00000000000E+00 0.  1.
         21   -1    0    0  501  503 -0.00000000000E+00 -0.00000000000E+00 -0.18232754814E+02  0.18232754814E+02  0.00000000000E+00 0.  1.
          5    1    1    2  501    0 -0.46986278211E+01 -0.11205917561E+01 -0.10513652284E+02  0.12488383148E+02  0.47000000000E+01 0.  1.
         -5    1    1    2    0  502  0.46986278211E+01  0.11205917561E+01 -0.50448460099E+01  0.84186281868E+01  0.47000000000E+01 0.  1.
<mgrwt>
<rscale>  2 0.67396461E+01</rscale>
<asrwt>0</asrwt>
<pdfrwt beam="1">  1       21 0.41142409E-03 0.67396461E+01</pdfrwt>
<pdfrwt beam="2">  1       21 0.28050392E-02 0.67396461E+01</pdfrwt>
<totfact> 0.27545798E+09</totfact>
</mgrwt>
</event>
<event>
 4    1  0.4039863E+006  0.7037544E+01  0.7546771E-02  0.2297225E+00
         21   -1    0    0  501  502  0.00000000000E+00  0.00000000000E+00  0.30374255960E+03  0.30374255960E+03  0.00000000000E+00 0.  1.
         21   -1    0    0  502  503 -0.00000000000E+00 -0.00000000000E+00 -0.56471125577E+00  0.56471125577E+00  0.00000000000E+00 0.  1.
          5    1    1    2  501    0 -0.27604080522E+00  0.52307573129E+01  0.27990937748E+03  0.27999783325E+03  0.47000000000E+01 0.  1.
         -5    1    1    2    0  503  0.27604080522E+00 -0.52307573129E+01  0.23268470862E+02  0.24309437609E+02  0.47000000000E+01 0.  1.
<mgrwt>
<rscale>  2 0.70375436E+01</rscale>
<asrwt>0</asrwt>
<pdfrwt beam="1">  1       21 0.46729494E-01 0.70375436E+01</pdfrwt>
<pdfrwt beam="2">  1       21 0.86878897E-04 0.70375436E+01</pdfrwt>
<totfact> 0.27655995E+08</totfact>
</mgrwt>
</event>
<event>
 4    1  0.4039863E+006  0.7518723E+01  0.7546771E-02  0.2251672E+00
         21   -1    0    0  501  502  0.00000000000E+00  0.00000000000E+00  0.19263695112E+03  0.19263695112E+03  0.00000000000E+00 0.  1.
         21   -1    0    0  502  503 -0.00000000000E+00 -0.00000000000E+00 -0.29649083484E+00  0.29649083484E+00  0.00000000000E+00 0. -1.
          5    1    1    2  501    0  0.57865283954E+01 -0.97840957707E+00  0.86416534600E+02  0.86743003455E+02  0.47000000000E+01 0. -1.
         -5    1    1    2    0  503 -0.57865283954E+01  0.97840957707E+00  0.10592392568E+03  0.10619043850E+03  0.47000000000E+01 0. -1.
<mgrwt>
<rscale>  2 0.75187230E+01</rscale>
<asrwt>0</asrwt>
<pdfrwt beam="1">  1       21 0.29636354E-01 0.75187230E+01</pdfrwt>
<pdfrwt beam="2">  1       21 0.45614128E-04 0.75187230E+01</pdfrwt>
<totfact> 0.15314458E+09</totfact>
</mgrwt>
</event>
<event>
 4    1  0.4039863E+006  0.9739857E+01  0.7546771E-02  0.2090102E+00
         21   -1    0    0  503  502  0.00000000000E+00  0.00000000000E+00  0.28771232819E+00  0.28771232819E+00  0.00000000000E+00 0. -1.
         21   -1    0    0  501  503 -0.00000000000E+00 -0.00000000000E+00 -0.63865721130E+03  0.63865721130E+03  0.00000000000E+00 0.  1.
          5    1    1    2  501    0 -0.81543019874E+01 -0.25064260359E+01 -0.54137954781E+03  0.54146715468E+03  0.47000000000E+01 0.  1.
         -5    1    1    2    0  502  0.81543019874E+01  0.25064260359E+01 -0.96989951164E+02  0.97477768948E+02  0.47000000000E+01 0. -1.
<mgrwt>
<rscale>  2 0.97398569E+01</rscale>
<asrwt>0</asrwt>
<pdfrwt beam="1">  1       21 0.44263941E-04 0.97398569E+01</pdfrwt>
<pdfrwt beam="2">  1       21 0.98253833E-01 0.97398569E+01</pdfrwt>
<totfact> 0.19419227E+08</totfact>
</mgrwt>
</event>
<event>
 4    1  0.4039863E+006  0.6715994E+01  0.7546771E-02  0.2330615E+00
         21   -1    0    0  501  502  0.00000000000E+00  0.00000000000E+00  0.61668412026E-01  0.61668412026E-01  0.00000000000E+00 0.  1.
         21   -1    0    0  502  503 -0.00000000000E+00 -0.00000000000E+00 -0.94974713383E+03  0.94974713383E+03  0.00000000000E+00 0. -1.
          5    1    1    2  501    0  0.41198500725E+01  0.24579282039E+01 -0.24713849014E+03  0.24722972694E+03  0.47000000000E+01 0.  1.
         -5    1    1    2    0  503 -0.41198500725E+01 -0.24579282039E+01 -0.70254697529E+03  0.70257907531E+03  0.47000000000E+01 0. -1.
<mgrwt>
<rscale>  2 0.67159940E+01</rscale>
<asrwt>0</asrwt>
<pdfrwt beam="1">  1       21 0.94876758E-05 0.67159940E+01</pdfrwt>
<pdfrwt beam="2">  1       21 0.14611144E+00 0.67159940E+01</pdfrwt>
<totfact> 0.55123043E+08</totfact>
</mgrwt>
</event>
<event>
 4    1  0.4039863E+006  0.7788641E+01  0.7546771E-02  0.2228140E+00
         21   -1    0    0  503  502  0.00000000000E+00  0.00000000000E+00  0.70455651844E+01  0.70455651844E+01  0.00000000000E+00 0.  1.
         21   -1    0    0  501  503 -0.00000000000E+00 -0.00000000000E+00 -0.11202774494E+02  0.11202774494E+02  0.00000000000E+00 0. -1.
          5    1    1    2  501    0  0.22941037545E+01 -0.57714825214E+01 -0.64680104172E+01  0.10124133607E+02  0.47000000000E+01 0. -1.
         -5    1    1    2    0  502 -0.22941037545E+01  0.57714825214E+01  0.23108011078E+01  0.81242060714E+01  0.47000000000E+01 0.  1.
<mgrwt>
<rscale>  2 0.77886406E+01</rscale>
<asrwt>0</asrwt>
<pdfrwt beam="1">  1       21 0.10839331E-02 0.77886406E+01</pdfrwt>
<pdfrwt beam="2">  1       21 0.17235038E-02 0.77886406E+01</pdfrwt>
<totfact> 0.15904993E+09</totfact>
</mgrwt>
</event>
<event>
 4    1  0.4039863E+006  0.9620855E+01  0.7546771E-02  0.2097230E+00
         21   -1    0    0  501  502  0.00000000000E+00  0.00000000000E+00  0.14891227512E+01  0.14891227512E+01  0.00000000000E+00 0.  1.
         21   -1    0    0  502  503 -0.00000000000E+00 -0.00000000000E+00 -0.63674800499E+02  0.63674800499E+02  0.00000000000E+00 0. -1.
          5    1    1    2  501    0  0.86967337149E+00 -0.83495225033E+01 -0.26064078434E+02  0.27783035155E+02  0.47000000000E+01 0. -1.
         -5    1    1    2    0  503 -0.86967337149E+00  0.83495225033E+01 -0.36121599313E+02  0.37380888095E+02  0.47000000000E+01 0. -1.
<mgrwt>
<rscale>  2 0.96208554E+01</rscale>
<asrwt>0</asrwt>
<pdfrwt beam="1">  1       21 0.22909583E-03 0.96208554E+01</pdfrwt>
<pdfrwt beam="2">  1       21 0.97961221E-02 0.96208554E+01</pdfrwt>
<totfact> 0.11985916E+09</totfact>
</mgrwt>
</event>
<event>
 4    1  0.4039863E+006  0.5257868E+01  0.7546771E-02  0.2523345E+00
         21   -1    0    0  503  502  0.00000000000E+00  0.00000000000E+00  0.30180794644E+02  0.30180794644E+02  0.00000000000E+00 0. -1.
         21   -1    0    0  501  503 -0.00000000000E+00 -0.00000000000E+00 -0.13468574527E+01  0.13468574527E+01  0.00000000000E+00 0. -1.
          5    1    1    2  501    0 -0.22999843588E+01 -0.51501952584E+00  0.55008696137E+01  0.76095163887E+01  0.47000000000E+01 0. -1.
         -5    1    1    2    0  502  0.22999843588E+01  0.51501952584E+00  0.23333067578E+02  0.23918135708E+02  0.47000000000E+01 0. -1.
<mgrwt>
<rscale>  2 0.52578677E+01</rscale>
<asrwt>0</asrwt>
<pdfrwt beam="1">  1       21 0.46431987E-02 0.52578677E+01</pdfrwt>
<pdfrwt beam="2">  1       21 0.20720886E-03 0.52578677E+01</pdfrwt>
<totfact> 0.27134512E+09</totfact>
</mgrwt>
</event>
<event>
 4    1  0.4039863E+006  0.9464910E+01  0.7546771E-02  0.2106784E+00
         21   -1    0    0  501  502  0.00000000000E+00  0.00000000000E+00  0.59500871706E+00  0.59500871706E+00  0.00000000000E+00 0.  1.
         21   -1    0    0  502  503 -0.00000000000E+00 -0.00000000000E+00 -0.38536606774E+03  0.38536606774E+03  0.00000000000E+00 0. -1.
          5    1    1    2  501    0  0.82120301202E+01 -0.23891979623E+00 -0.41748611527E+02  0.42808072671E+02  0.47000000000E+01 0.  1.
         -5    1    1    2    0  503 -0.82120301202E+01  0.23891979623E+00 -0.34302244750E+03  0.34315300379E+03  0.47000000000E+01 0. -1.
<mgrwt>
<rscale>  2 0.94649100E+01</rscale>
<asrwt>0</asrwt>
<pdfrwt beam="1">  1       21 0.91540128E-04 0.94649100E+01</pdfrwt>
<pdfrwt beam="2">  1       21 0.59286877E-01 0.94649100E+01</pdfrwt>
<totfact> 0.19377653E+08</totfact>
</mgrwt>
</event>
<event>
 4    1  0.4039863E+006  0.7214359E+01  0.7546771E-02  0.2279911E+00
         21   -1    0    0  501  502  0.00000000000E+00  0.00000000000E+00  0.19535654846E+02  0.19535654846E+02  0.00000000000E+00 0. -1.
         21   -1    0    0  502  503 -0.00000000000E+00 -0.00000000000E+00 -0.75165922690E+01  0.75165922690E+01  0.00000000000E+00 0. -1.
          5    1    1    2  501    0  0.34953867033E+01 -0.42117991410E+01  0.16877305375E+02  0.18354574823E+02  0.47000000000E+01 0. -1.
         -5    1    1    2    0  503 -0.34953867033E+01  0.42117991410E+01 -0.48582427982E+01  0.86976722918E+01  0.47000000000E+01 0. -1.
<mgrwt>
<rscale>  2 0.72143593E+01</rscale>
<asrwt>0</asrwt>
<pdfrwt beam="1">  1       21 0.30054853E-02 0.72143593E+01</pdfrwt>
<pdfrwt beam="2">  1       21 0.11563988E-02 0.72143593E+01</pdfrwt>
<totfact> 0.60890053E+08</totfact>
</mgrwt>
</event>
<event>
 4    1  0.4039863E+006  0.6675824E+01  0.7546771E-02  0.2334971E+00
         21   -1    0    0  503  502  0.00000000000E+00  0.00000000000E+00  0.11803098100E+01  0.11803098100E+01  0.00000000000E+00 0. -1.
         21   -1    0    0  501  503 -0.00000000000E+00 -0.00000000000E+00 -0.55686064357E+02  0.55686064357E+02  0.00000000000E+00 0. -1.
          5    1    1    2  501    0  0.28412800188E+01  0.37952273737E+01 -0.43385835257E+02  0.43896438624E+02  0.47000000000E+01 0.  1.
         -5    1    1    2    0  502 -0.28412800188E+01 -0.37952273737E+01 -0.11119919291E+02  0.12969935543E+02  0.47000000000E+01 0.  1.
<mgrwt>
<rscale>  2 0.66758238E+01</rscale>
<asrwt>0</asrwt>
<pdfrwt beam="1">  1       21 0.18158619E-03 0.66758238E+01</pdfrwt>
<pdfrwt beam="2">  1       21 0.85670836E-02 0.66758238E+01</pdfrwt>
<totfact> 0.15929574E+09</totfact>
</mgrwt>
</event>
<event>
 4    1  0.4039863E+006  0.4807781E+01  0.7546771E-02  0.2602426E+00
         21   -1    0    0  503  502  0.00000000000E+00  0.00000000000E+00  0.21990090167E+01  0.21990090167E+01  0.00000000000E+00 0.  1.
         21   -1    0    0  501  503 -0.00000000000E+00 -0.00000000000E+00 -0.14982361235E+02  0.14982361235E+02  0.00000000000E+00 0.  1.
          5    1    1    2  501    0 -0.34925599382E+00 -0.95014423345E+00 -0.16988320408E+01  0.50990964020E+01  0.47000000000E+01 0.  1.
         -5    1    1    2    0  502  0.34925599382E+00  0.95014423345E+00 -0.11084520178E+02  0.12082273850E+02  0.47000000000E+01 0.  1.
<mgrwt>
<rscale>  2 0.48077805E+01</rscale>
<asrwt>0</asrwt>
<pdfrwt beam="1">  1       21 0.33830908E-03 0.48077805E+01</pdfrwt>
<pdfrwt beam="2">  1       21 0.23049786E-02 0.48077805E+01</pdfrwt>
<totfact> 0.34960206E+09</totfact>
</mgrwt>
</event>
<event>
 4    1  0.4039863E+006  0.6284062E+01  0.7546771E-02  0.2379856E+00
         21   -1    0    0  501  502  0.00000000000E+00  0.00000000000E+00  0.33044905207E+02  0.33044905207E+02  0.00000000000E+00 0. -1.
         21   -1    0    0  502  503 -0.00000000000E+00 -0.00000000000E+00 -0.11987760476E+01  0.11987760476E+01  0.00000000000E+00 0. -1.
          5    1    1    2  501    0 -0.67972346401E-01 -0.41707092738E+01  0.14965102398E+02  0.16230949630E+02  0.47000000000E+01 0.  1.
         -5    1    1    2    0  503  0.67972346401E-01  0.41707092738E+01  0.16881026761E+02  0.18012731625E+02  0.47000000000E+01 0.  1.
<mgrwt>
<rscale>  2 0.62840621E+01</rscale>
<asrwt>0</asrwt>
<pdfrwt beam="1">  1       21 0.50838309E-02 0.62840621E+01</pdfrwt>
<pdfrwt beam="2">  1       21 0.18442711E-03 0.62840621E+01</pdfrwt>
<totfact> 0.32651523E+09</totfact>
</mgrwt>
</event>
<event>
 4    1  0.4039863E+006  0.4917595E+01  0.7546771E-02  0.2581983E+00
         21   -1    0    0  501  502  0.00000000000E+00  0.00000000000E+00  0.62951685289E+01  0.62951685289E+01  0.00000000000E+00 0.  1.
         21   -1    0    0  502  503 -0.00000000000E+00 -0.00000000000E+00 -0.40354151835E+01  0.40354151835E+01  0.00000000000E+00 0.  1.
          5    1    1    2  501    0 -0.14411747661E+01 -0.12551810679E+00 -0.24804441838E-02  0.49175955155E+01  0.47000000000E+01 0.  1.
         -5    1    1    2    0  503  0.14411747661E+01  0.12551810679E+00  0.22622337895E+01  0.54129881969E+01  0.47000000000E+01 0.  1.
<mgrwt>
<rscale>  2 0.49175949E+01</rscale>
<asrwt>0</asrwt>
<pdfrwt beam="1">  1       21 0.96848747E-03 0.49175949E+01</pdfrwt>
<pdfrwt beam="2">  1       21 0.62083310E-03 0.49175949E+01</pdfrwt>
<totfact> 0.52778236E+09</totfact>
</mgrwt>
</event>
<event>
 4    1  0.4039863E+006  0.4907932E+01  0.7546771E-02  0.2583750E+00
         21   -1    0    0  503  502  0.00000000000E+00  0.00000000000E+00  0.12556589655E+02  0.12556589655E+02  0.00000000000E+00 0.  1.
         21   -1    0    0  501  503 -0.00000000000E+00 -0.00000000000E+00 -0.19661403089E+01  0.19661403089E+01  0.00000000000E+00 0. -1.
          5    1    1    2  501    0 -0.78481623932E+00 -0.11755245394E+01  0.64274459985E+01  0.80870177776E+01  0.47000000000E+01 0.  1.
         -5    1    1    2    0  502  0.78481623932E+00  0.11755245394E+01  0.41630033475E+01  0.64357121862E+01  0.47000000000E+01 0. -1.
<mgrwt>
<rscale>  2 0.49079318E+01</rscale>
<asrwt>0</asrwt>
<pdfrwt beam="1">  1       21 0.19317830E-02 0.49079318E+01</pdfrwt>
<pdfrwt beam="2">  1       21 0.30248313E-03 0.49079318E+01</pdfrwt>
<totfact> 0.53436406E+09</totfact>
</mgrwt>
</event>
<event>
 4    1  0.4039863E+006  0.4925346E+01  0.7546771E-02  0.2580570E+00
         21   -1    0    0  501  502  0.00000000000E+00  0.00000000000E+00  0.13560124465E+01  0.13560124465E+01  0.00000000000E+00 0.  1.
         21   -1    0    0  502  503 -0.00000000000E+00 -0.00000000000E+00 -0.69502622154E+02  0.69502622154E+02  0.00000000000E+00 0.  1.
          5    1    1    2  501    0 -0.14011348301E+01  0.45370741266E+00 -0.35423593097E+01  0.60669052002E+01  0.47000000000E+01 0.  1.
         -5    1    1    2    0  503  0.14011348301E+01 -0.45370741266E+00 -0.64604250398E+02  0.64791729401E+02  0.47000000000E+01 0.  1.
<mgrwt>
<rscale>  2 0.49253456E+01</rscale>
<asrwt>0</asrwt>
<pdfrwt beam="1">  1       21 0.20861728E-03 0.49253456E+01</pdfrwt>
<pdfrwt beam="2">  1       21 0.10692712E-01 0.49253456E+01</pdfrwt>
<totfact> 0.73074890E+08</totfact>
</mgrwt>
</event>
<event>
 4    1  0.4039863E+006  0.6030085E+01  0.7546771E-02  0.2411524E+00
         21   -1    0    0  501  502  0.00000000000E+00  0.00000000000E+00  0.71238006031E+03  0.71238006031E+03  0.00000000000E+00 0. -1.
         21   -1    0    0  502  503 -0.00000000000E+00 -0.00000000000E+00 -0.15743722410E+01  0.15743722410E+01  0.00000000000E+00 0.  1.
          5    1    1    2  501    0  0.29186541905E+00 -0.37665293009E+01  0.70654558385E+03  0.70657131557E+03  0.47000000000E+01 0. -1.
         -5    1    1    2    0  503 -0.29186541905E+00  0.37665293009E+01  0.42601042186E+01  0.73831169807E+01  0.47000000000E+01 0.  1.
<mgrwt>
<rscale>  2 0.60300853E+01</rscale>
<asrwt>0</asrwt>
<pdfrwt beam="1">  1       21 0.10959668E+00 0.60300853E+01</pdfrwt>
<pdfrwt beam="2">  1       21 0.24221168E-03 0.60300853E+01</pdfrwt>
<totfact> 0.12274826E+07</totfact>
</mgrwt>
</event>
<event>
 4    1  0.4039863E+006  0.5178558E+01  0.7546771E-02  0.2536420E+00
         21   -1    0    0  501  502  0.00000000000E+00  0.00000000000E+00  0.16502726602E+02  0.16502726602E+02  0.00000000000E+00 0.  1.
         21   -1    0    0  502  503 -0.00000000000E+00 -0.00000000000E+00 -0.30402152075E+02  0.30402152075E+02  0.00000000000E+00 0.  1.
          5    1    1    2  501    0 -0.16612558143E+01  0.14027436469E+01  0.15867338699E+02  0.16691012492E+02  0.47000000000E+01 0.  1.
         -5    1    1    2    0  503  0.16612558143E+01 -0.14027436469E+01 -0.29766764171E+02  0.30213866185E+02  0.47000000000E+01 0.  1.
<mgrwt>
<rscale>  2 0.51785578E+01</rscale>
<asrwt>0</asrwt>
<pdfrwt beam="1">  1       21 0.25388810E-02 0.51785578E+01</pdfrwt>
<pdfrwt beam="2">  1       21 0.46772541E-02 0.51785578E+01</pdfrwt>
<totfact> 0.81528915E+07</totfact>
</mgrwt>
</event>
<event>
 4    1  0.4039863E+006  0.4980420E+01  0.7546771E-02  0.2570639E+00
         21   -1    0    0  503  502  0.00000000000E+00  0.00000000000E+00  0.89340603565E+01  0.89340603565E+01  0.00000000000E+00 0.  1.
         21   -1    0    0  501  503 -0.00000000000E+00 -0.00000000000E+00 -0.27805385072E+01  0.27805385072E+01  0.00000000000E+00 0. -1.
          5    1    1    2  501    0 -0.88480472863E-01 -0.16452211588E+01  0.28509608769E+01  0.57386896917E+01  0.47000000000E+01 0. -1.
         -5    1    1    2    0  502  0.88480472863E-01  0.16452211588E+01  0.33025609724E+01  0.59759091720E+01  0.47000000000E+01 0. -1.
<mgrwt>
<rscale>  2 0.49804198E+01</rscale>
<asrwt>0</asrwt>
<pdfrwt beam="1">  1       21 0.13744708E-02 0.49804198E+01</pdfrwt>
<pdfrwt beam="2">  1       21 0.42777516E-03 0.49804198E+01</pdfrwt>
<totfact> 0.54698719E+09</totfact>
</mgrwt>
</event>
<event>
 4    1  0.4039863E+006  0.5820530E+01  0.7546771E-02  0.2439384E+00
         21   -1    0    0  503  502  0.00000000000E+00  0.00000000000E+00  0.75725694867E-01  0.75725694867E-01  0.00000000000E+00 0.  1.
         21   -1    0    0  501  503 -0.00000000000E+00 -0.00000000000E+00 -0.82234885878E+03  0.82234885878E+03  0.00000000000E+00 0.  1.
          5    1    1    2  501    0  0.59643523746E+00 -0.33812475303E+01 -0.68880884121E+03  0.68883343291E+03  0.47000000000E+01 0.  1.
         -5    1    1    2    0  502 -0.59643523746E+00  0.33812475303E+01 -0.13346429187E+03  0.13359115156E+03  0.47000000000E+01 0.  1.
<mgrwt>
<rscale>  2 0.58205300E+01</rscale>
<asrwt>0</asrwt>
<pdfrwt beam="1">  1       21 0.11650341E-04 0.58205300E+01</pdfrwt>
<pdfrwt beam="2">  1       21 0.12651267E+00 0.58205300E+01</pdfrwt>
<totfact> 0.52164430E+08</totfact>
</mgrwt>
</event>
<event>
 4    1  0.4039863E+006  0.1592550E+02  0.7546771E-02  0.1841073E+00
         21   -1    0    0  503  502  0.00000000000E+00  0.00000000000E+00  0.52989571218E+01  0.52989571218E+01  0.00000000000E+00 0.  1.
         21   -1    0    0  501  503 -0.00000000000E+00 -0.00000000000E+00 -0.97674614756E+02  0.97674614756E+02  0.00000000000E+00 0. -1.
          5    1    1    2  501    0  0.11905916232E+02  0.94752729609E+01 -0.82956011808E+02  0.84470832446E+02  0.47000000000E+01 0. -1.
         -5    1    1    2    0  502 -0.11905916232E+02 -0.94752729609E+01 -0.94196458263E+01  0.18502739432E+02  0.47000000000E+01 0.  1.
<mgrwt>
<rscale>  2 0.15925503E+02</rscale>
<asrwt>0</asrwt>
<pdfrwt beam="1">  1       21 0.81522415E-03 0.15925503E+02</pdfrwt>
<pdfrwt beam="2">  1       21 0.15026864E-01 0.15925503E+02</pdfrwt>
<totfact> 0.12182178E+08</totfact>
</mgrwt>
</event>
<event>
 4    1  0.4039863E+006  0.4805138E+01  0.7546771E-02  0.2602928E+00
         21   -1    0    0  501  502  0.00000000000E+00  0.00000000000E+00  0.17829693622E+02  0.17829693622E+02  0.00000000000E+00 0. -1.
         21   -1    0    0  502  503 -0.00000000000E+00 -0.00000000000E+00 -0.13484213337E+01  0.13484213337E+01  0.00000000000E+00 0.  1.
          5    1    1    2  501    0 -0.65918456988E+00 -0.75154791785E+00  0.63319068491E+01  0.79487353029E+01  0.47000000000E+01 0.  1.
         -5    1    1    2    0  503  0.65918456988E+00  0.75154791785E+00  0.10149365439E+02  0.11229379653E+02  0.47000000000E+01 0.  1.
<mgrwt>
<rscale>  2 0.48051377E+01</rscale>
<asrwt>0</asrwt>
<pdfrwt beam="1">  1       21 0.27430296E-02 0.48051377E+01</pdfrwt>
<pdfrwt beam="2">  1       21 0.20744945E-03 0.48051377E+01</pdfrwt>
<totfact> 0.52801281E+09</totfact>
</mgrwt>
</event>
<event>
 4    1  0.4039863E+006  0.9349554E+01  0.7546771E-02  0.2114012E+00
         21   -1    0    0  501  502  0.00000000000E+00  0.00000000000E+00  0.15716943536E+00  0.15716943536E+00  0.00000000000E+00 0.  1.
         21   -1    0    0  502  503 -0.00000000000E+00 -0.00000000000E+00 -0.10765979143E+04  0.10765979143E+04  0.00000000000E+00 0. -1.
          5    1    1    2  501    0  0.18652337395E+01  0.78641628875E+01 -0.16390540407E+03  0.16417184789E+03  0.47000000000E+01 0.  1.
         -5    1    1    2    0  503 -0.18652337395E+01 -0.78641628875E+01 -0.91253534076E+03  0.91258323582E+03  0.47000000000E+01 0. -1.
<mgrwt>
<rscale>  2 0.93495537E+01</rscale>
<asrwt>0</asrwt>
<pdfrwt beam="1">  1       21 0.24180185E-04 0.93495537E+01</pdfrwt>
<pdfrwt beam="2">  1       21 0.16562859E+00 0.93495537E+01</pdfrwt>
<totfact> 0.13960786E+08</totfact>
</mgrwt>
</event>
<event>
 4    1  0.4039863E+006  0.6355325E+01  0.7546771E-02  0.2371351E+00
         21   -1    0    0  501  502  0.00000000000E+00  0.00000000000E+00  0.59222239851E+00  0.59222239851E+00  0.00000000000E+00 0.  1.
         21   -1    0    0  502  503 -0.00000000000E+00 -0.00000000000E+00 -0.72958369423E+02  0.72958369423E+02  0.00000000000E+00 0.  1.
          5    1    1    2  501    0  0.20761601507E+01 -0.37402828951E+01 -0.26792280623E+02  0.27535730571E+02  0.47000000000E+01 0.  1.
         -5    1    1    2    0  503 -0.20761601507E+01  0.37402828951E+01 -0.45573866402E+02  0.46014861251E+02  0.47000000000E+01 0.  1.
<mgrwt>
<rscale>  2 0.63553251E+01</rscale>
<asrwt>0</asrwt>
<pdfrwt beam="1">  1       21 0.91111210E-04 0.63553251E+01</pdfrwt>
<pdfrwt beam="2">  1       21 0.11224356E-01 0.63553251E+01</pdfrwt>
<totfact> 0.25728567E+09</totfact>
</mgrwt>
</event>
<event>
 4    1  0.4039863E+006  0.5012923E+01  0.7546771E-02  0.2564866E+00
         21   -1    0    0  501  502  0.00000000000E+00  0.00000000000E+00  0.15054339347E+03  0.15054339347E+03  0.00000000000E+00 0. -1.
         21   -1    0    0  502  503 -0.00000000000E+00 -0.00000000000E+00 -0.38163031351E+01  0.38163031351E+01  0.00000000000E+00 0. -1.
          5    1    1    2  501    0  0.10345353328E+01  0.14032588232E+01  0.14883660266E+03  0.14892099815E+03  0.47000000000E+01 0. -1.
         -5    1    1    2    0  503 -0.10345353328E+01 -0.14032588232E+01 -0.21095123221E+01  0.54386984579E+01  0.47000000000E+01 0. -1.
<mgrwt>
<rscale>  2 0.50129232E+01</rscale>
<asrwt>0</asrwt>
<pdfrwt beam="1">  1       21 0.23160517E-01 0.50129232E+01</pdfrwt>
<pdfrwt beam="2">  1       21 0.58712368E-03 0.50129232E+01</pdfrwt>
<totfact> 0.54184246E+07</totfact>
</mgrwt>
</event>
<event>
 4    1  0.4039863E+006  0.5078468E+01  0.7546771E-02  0.2553419E+00
         21   -1    0    0  501  502  0.00000000000E+00  0.00000000000E+00  0.36523436949E+03  0.36523436949E+03  0.00000000000E+00 0.  1.
         21   -1    0    0  502  503 -0.00000000000E+00 -0.00000000000E+00 -0.16233772876E+01  0.16233772876E+01  0.00000000000E+00 0.  1.
          5    1    1    2  501    0  0.12592968768E+01  0.14543078720E+01  0.36120057442E+03  0.36123627420E+03  0.47000000000E+01 0.  1.
         -5    1    1    2    0  503 -0.12592968768E+01 -0.14543078720E+01  0.24104177839E+01  0.56214725743E+01  0.47000000000E+01 0.  1.
<mgrwt>
<rscale>  2 0.50784683E+01</rscale>
<asrwt>0</asrwt>
<pdfrwt beam="1">  1       21 0.56189837E-01 0.50784683E+01</pdfrwt>
<pdfrwt beam="2">  1       21 0.24975064E-03 0.50784683E+01</pdfrwt>
<totfact> 0.38868290E+07</totfact>
</mgrwt>
</event>
<event>
 4    1  0.4039863E+006  0.4752297E+01  0.7546771E-02  0.2613066E+00
         21   -1    0    0  501  502  0.00000000000E+00  0.00000000000E+00  0.72215962898E+01  0.72215962898E+01  0.00000000000E+00 0. -1.
         21   -1    0    0  502  503 -0.00000000000E+00 -0.00000000000E+00 -0.42061858994E+01  0.42061858994E+01  0.00000000000E+00 0. -1.
          5    1    1    2  501    0  0.69724278550E+00 -0.90439031473E-01  0.44015091980E+01  0.64774694087E+01  0.47000000000E+01 0. -1.
         -5    1    1    2    0  503 -0.69724278550E+00  0.90439031473E-01 -0.13860988076E+01  0.49503127805E+01  0.47000000000E+01 0. -1.
<mgrwt>
<rscale>  2 0.47522970E+01</rscale>
<asrwt>0</asrwt>
<pdfrwt beam="1">  1       21 0.11110148E-02 0.47522970E+01</pdfrwt>
<pdfrwt beam="2">  1       21 0.64710553E-03 0.47522970E+01</pdfrwt>
<totfact> 0.39680495E+09</totfact>
</mgrwt>
</event>
<event>
 4    1  0.4039863E+006  0.6309836E+01  0.7546771E-02  0.2376762E+00
         21   -1    0    0  501  502  0.00000000000E+00  0.00000000000E+00  0.20462944920E+01  0.20462944920E+01  0.00000000000E+00 0.  1.
         21   -1    0    0  502  503 -0.00000000000E+00 -0.00000000000E+00 -0.23792482176E+02  0.23792482176E+02  0.00000000000E+00 0.  1.
          5    1    1    2  501    0  0.41144395363E+01  0.89185858911E+00 -0.53579278962E+01  0.82777663522E+01  0.47000000000E+01 0.  1.
         -5    1    1    2    0  503 -0.41144395363E+01 -0.89185858911E+00 -0.16388259788E+02  0.17561010316E+02  0.47000000000E+01 0.  1.
<mgrwt>
<rscale>  2 0.63098355E+01</rscale>
<asrwt>0</asrwt>
<pdfrwt beam="1">  1       21 0.31481452E-03 0.63098355E+01</pdfrwt>
<pdfrwt beam="2">  1       21 0.36603821E-02 0.63098355E+01</pdfrwt>
<totfact> 0.25590074E+09</totfact>
</mgrwt>
</event>
<event>
 4    1  0.4039863E+006  0.6021912E+01  0.7546771E-02  0.2412580E+00
         21   -1    0    0  501  502  0.00000000000E+00  0.00000000000E+00  0.25358055121E+01  0.25358055121E+01  0.00000000000E+00 0.  1.
         21   -1    0    0  502  503 -0.00000000000E+00 -0.00000000000E+00 -0.39724625744E+02  0.39724625744E+02  0.00000000000E+00 0.  1.
          5    1    1    2  501    0 -0.36846240339E+01  0.77264030659E+00 -0.16901346125E+01  0.62545968953E+01  0.47000000000E+01 0.  1.
         -5    1    1    2    0  503  0.36846240339E+01 -0.77264030659E+00 -0.35498685620E+02  0.36005834361E+02  0.47000000000E+01 0.  1.
<mgrwt>
<rscale>  2 0.60219123E+01</rscale>
<asrwt>0</asrwt>
<pdfrwt beam="1">  1       21 0.39012398E-03 0.60219123E+01</pdfrwt>
<pdfrwt beam="2">  1       21 0.61114800E-02 0.60219123E+01</pdfrwt>
<totfact> 0.85685680E+08</totfact>
</mgrwt>
</event>
<event>
 4    1  0.4039863E+006  0.7470969E+01  0.7546771E-02  0.2255979E+00
         21   -1    0    0  503  502  0.00000000000E+00  0.00000000000E+00  0.22838725204E+02  0.22838725204E+02  0.00000000000E+00 0.  1.
         21   -1    0    0  501  503 -0.00000000000E+00 -0.00000000000E+00 -0.12427426726E+02  0.12427426726E+02  0.00000000000E+00 0. -1.
          5    1    1    2  501    0 -0.36643331053E+01 -0.45053342046E+01 -0.10598810104E+02  0.12967272227E+02  0.47000000000E+01 0. -1.
         -5    1    1    2    0  502  0.36643331053E+01  0.45053342046E+01  0.21010108582E+02  0.22298879703E+02  0.47000000000E+01 0.  1.
<mgrwt>
<rscale>  2 0.74709687E+01</rscale>
<asrwt>0</asrwt>
<pdfrwt beam="1">  1       21 0.35136500E-02 0.74709687E+01</pdfrwt>
<pdfrwt beam="2">  1       21 0.19119118E-02 0.74709687E+01</pdfrwt>
<totfact> 0.23949389E+08</totfact>
</mgrwt>
</event>
<event>
 4    1  0.4039863E+006  0.5800240E+01  0.7546771E-02  0.2442171E+00
         21   -1    0    0  503  502  0.00000000000E+00  0.00000000000E+00  0.17084906794E+02  0.17084906794E+02  0.00000000000E+00 0. -1.
         21   -1    0    0  501  503 -0.00000000000E+00 -0.00000000000E+00 -0.22984126564E+01  0.22984126564E+01  0.00000000000E+00 0.  1.
          5    1    1    2  501    0  0.21817040669E+01  0.26063288672E+01  0.37250394824E+01  0.68933810242E+01  0.47000000000E+01 0.  1.
         -5    1    1    2    0  502 -0.21817040669E+01 -0.26063288672E+01  0.11061454655E+02  0.12489938426E+02  0.47000000000E+01 0. -1.
<mgrwt>
<rscale>  2 0.58002399E+01</rscale>
<asrwt>0</asrwt>
<pdfrwt beam="1">  1       21 0.26284471E-02 0.58002399E+01</pdfrwt>
<pdfrwt beam="2">  1       21 0.35360196E-03 0.58002399E+01</pdfrwt>
<totfact> 0.32813614E+09</totfact>
</mgrwt>
</event>
<event>
 4    1  0.4039863E+006  0.4855098E+01  0.7546771E-02  0.2593519E+00
         21   -1    0    0  503  502  0.00000000000E+00  0.00000000000E+00  0.33729625859E+00  0.33729625859E+00  0.00000000000E+00 0.  1.
         21   -1    0    0  501  503 -0.00000000000E+00 -0.00000000000E+00 -0.25569354232E+03  0.25569354232E+03  0.00000000000E+00 0.  1.
          5    1    1    2  501    0 -0.63000020628E+00  0.10416719265E+01 -0.23680585560E+03  0.23685562106E+03  0.47000000000E+01 0.  1.
         -5    1    1    2    0  502  0.63000020628E+00 -0.10416719265E+01 -0.18550390461E+02  0.19175217519E+02  0.47000000000E+01 0.  1.
<mgrwt>
<rscale>  2 0.48550984E+01</rscale>
<asrwt>0</asrwt>
<pdfrwt beam="1">  1       21 0.51891700E-04 0.48550984E+01</pdfrwt>
<pdfrwt beam="2">  1       21 0.39337492E-01 0.48550984E+01</pdfrwt>
<totfact> 0.57170564E+08</totfact>
</mgrwt>
</event>
<event>
 4    1  0.4039863E+006  0.4982159E+01  0.7546771E-02  0.2570329E+00
         21   -1    0    0  503  502  0.00000000000E+00  0.00000000000E+00  0.10396692880E+03  0.10396692880E+03  0.00000000000E+00 0.  1.
         21   -1    0    0  501  503 -0.00000000000E+00 -0.00000000000E+00 -0.27684005775E+00  0.27684005775E+00  0.00000000000E+00 0.  1.
          5    1    1    2  501    0 -0.93836110764E+00 -0.13606552143E+01  0.32511012541E+02  0.32890543331E+02  0.47000000000E+01 0.  1.
         -5    1    1    2    0  502  0.93836110764E+00  0.13606552143E+01  0.71179076203E+02  0.71353225529E+02  0.47000000000E+01 0.  1.
<mgrwt>
<rscale>  2 0.49821586E+01</rscale>
<asrwt>0</asrwt>
<pdfrwt beam="1">  1       21 0.15994881E-01 0.49821586E+01</pdfrwt>
<pdfrwt beam="2">  1       21 0.42590861E-04 0.49821586E+01</pdfrwt>
<totfact> 0.32908766E+09</totfact>
</mgrwt>
</event>
<event>
 4    1  0.4039863E+006  0.4765811E+01  0.7546771E-02  0.2610454E+00
         21   -1    0    0  503  502  0.00000000000E+00  0.00000000000E+00  0.21874055649E+01  0.21874055649E+01  0.00000000000E+00 0.  1.
         21   -1    0    0  501  503 -0.00000000000E+00 -0.00000000000E+00 -0.11406176181E+02  0.11406176181E+02  0.00000000000E+00 0.  1.
          5    1    1    2  501    0 -0.13859093047E-01 -0.78915536163E+00 -0.66445510238E+01  0.81769808956E+01  0.47000000000E+01 0.  1.
         -5    1    1    2    0  502  0.13859093047E-01  0.78915536163E+00 -0.25742195920E+01  0.54166008499E+01  0.47000000000E+01 0.  1.
<mgrwt>
<rscale>  2 0.47658114E+01</rscale>
<asrwt>0</asrwt>
<pdfrwt beam="1">  1       21 0.33652393E-03 0.47658114E+01</pdfrwt>
<pdfrwt beam="2">  1       21 0.17547963E-02 0.47658114E+01</pdfrwt>
<totfact> 0.51290265E+09</totfact>
</mgrwt>
</event>
<event>
 4    1  0.4039863E+006  0.5577511E+01  0.7546771E-02  0.2473885E+00
         21   -1    0    0  501  502  0.00000000000E+00  0.00000000000E+00  0.12179647567E+02  0.12179647567E+02  0.00000000000E+00 0.  1.
         21   -1    0    0  502  503 -0.00000000000E+00 -0.00000000000E+00 -0.52324649025E+01  0.52324649025E+01  0.00000000000E+00 0.  1.
          5    1    1    2  501    0  0.29405681776E+01 -0.60966182514E+00  0.97023175985E+01  0.11191228508E+02  0.47000000000E+01 0.  1.
         -5    1    1    2    0  503 -0.29405681776E+01  0.60966182514E+00 -0.27551349342E+01  0.62208839608E+01  0.47000000000E+01 0.  1.
<mgrwt>
<rscale>  2 0.55775110E+01</rscale>
<asrwt>0</asrwt>
<pdfrwt beam="1">  1       21 0.18737919E-02 0.55775110E+01</pdfrwt>
<pdfrwt beam="2">  1       21 0.80499460E-03 0.55775110E+01</pdfrwt>
<totfact> 0.16458524E+09</totfact>
</mgrwt>
</event>
<event>
 4    1  0.4039863E+006  0.6486090E+01  0.7546771E-02  0.2356149E+00
         21   -1    0    0  503  502  0.00000000000E+00  0.00000000000E+00  0.11508575390E+03  0.11508575390E+03  0.00000000000E+00 0.  1.
         21   -1    0    0  501  503 -0.00000000000E+00 -0.00000000000E+00 -0.80640175051E+00  0.80640175051E+00  0.00000000000E+00 0.  1.
          5    1    1    2  501    0 -0.39920216280E+01 -0.20107537192E+01  0.14295126226E+02  0.15697770574E+02  0.47000000000E+01 0.  1.
         -5    1    1    2    0  502  0.39920216280E+01  0.20107537192E+01  0.99984225924E+02  0.10019438508E+03  0.47000000000E+01 0.  1.
<mgrwt>
<rscale>  2 0.64860903E+01</rscale>
<asrwt>0</asrwt>
<pdfrwt beam="1">  1       21 0.17705488E-01 0.64860903E+01</pdfrwt>
<pdfrwt beam="2">  1       21 0.12406190E-03 0.64860903E+01</pdfrwt>
<totfact> 0.83886505E+08</totfact>
</mgrwt>
</event>
<event>
 4    1  0.4039863E+006  0.7773481E+01  0.7546771E-02  0.2229427E+00
         21   -1    0    0  503  502  0.00000000000E+00  0.00000000000E+00  0.85353850291E+01  0.85353850291E+01  0.00000000000E+00 0.  1.
         21   -1    0    0  501  503 -0.00000000000E+00 -0.00000000000E+00 -0.24440610037E+02  0.24440610037E+02  0.00000000000E+00 0.  1.
          5    1    1    2  501    0 -0.47586856647E+01 -0.39613030344E+01 -0.21848923817E+02  0.23190568836E+02  0.47000000000E+01 0.  1.
         -5    1    1    2    0  502  0.47586856647E+01  0.39613030344E+01  0.59436988085E+01  0.97854262305E+01  0.47000000000E+01 0.  1.
<mgrwt>
<rscale>  2 0.77734813E+01</rscale>
<asrwt>0</asrwt>
<pdfrwt beam="1">  1       21 0.13131362E-02 0.77734813E+01</pdfrwt>
<pdfrwt beam="2">  1       21 0.37600938E-02 0.77734813E+01</pdfrwt>
<totfact> 0.38259876E+08</totfact>
</mgrwt>
</event>
<event>
 4    1  0.4039863E+006  0.7337315E+01  0.7546771E-02  0.2268274E+00
         21   -1    0    0  501  502  0.00000000000E+00  0.00000000000E+00  0.29802002666E+00  0.29802002666E+00  0.00000000000E+00 0.  1.
         21   -1    0    0  502  503 -0.00000000000E+00 -0.00000000000E+00 -0.31067959907E+03  0.31067959907E+03  0.00000000000E+00 0. -1.
          5    1    1    2  501    0  0.67651076825E-01 -0.56339691790E+01 -0.54597217987E+02  0.55088042235E+02  0.47000000000E+01 0.  1.
         -5    1    1    2    0  503 -0.67651076825E-01  0.56339691790E+01 -0.25578436106E+03  0.25588957686E+03  0.47000000000E+01 0. -1.
<mgrwt>
<rscale>  2 0.73373146E+01</rscale>
<asrwt>0</asrwt>
<pdfrwt beam="1">  1       21 0.45849331E-04 0.73373146E+01</pdfrwt>
<pdfrwt beam="2">  1       21 0.47796761E-01 0.73373146E+01</pdfrwt>
<totfact> 0.64572979E+08</totfact>
</mgrwt>
</event>
<event>
 4    1  0.4039863E+006  0.5779482E+01  0.7546771E-02  0.2445039E+00
         21   -1    0    0  503  502  0.00000000000E+00  0.00000000000E+00  0.41481158380E+02  0.41481158380E+02  0.00000000000E+00 0.  1.
         21   -1    0    0  501  503 -0.00000000000E+00 -0.00000000000E+00 -0.22473321476E+01  0.22473321476E+01  0.00000000000E+00 0.  1.
          5    1    1    2  501    0 -0.32881726542E+01 -0.70733985751E+00  0.21024461449E+01  0.61500153553E+01  0.47000000000E+01 0.  1.
         -5    1    1    2    0  502  0.32881726542E+01  0.70733985751E+00  0.37131380087E+02  0.37578475172E+02  0.47000000000E+01 0.  1.
<mgrwt>
<rscale>  2 0.57794817E+01</rscale>
<asrwt>0</asrwt>
<pdfrwt beam="1">  1       21 0.63817161E-02 0.57794817E+01</pdfrwt>
<pdfrwt beam="2">  1       21 0.34574344E-03 0.57794817E+01</pdfrwt>
<totfact> 0.91782150E+08</totfact>
</mgrwt>
</event>
<event>
 4    1  0.4039863E+006  0.5295925E+01  0.7546771E-02  0.2517190E+00
         21   -1    0    0  501  502  0.00000000000E+00  0.00000000000E+00  0.88223146117E+01  0.88223146117E+01  0.00000000000E+00 0. -1.
         21   -1    0    0  502  503 -0.00000000000E+00 -0.00000000000E+00 -0.30962964808E+02  0.30962964808E+02  0.00000000000E+00 0.  1.
          5    1    1    2  501    0 -0.17162312676E+00 -0.24346188584E+01  0.77734386327E+01  0.94060178428E+01  0.47000000000E+01 0. -1.
         -5    1    1    2    0  503  0.17162312676E+00  0.24346188584E+01 -0.29914088829E+02  0.30379261577E+02  0.47000000000E+01 0.  1.
<mgrwt>
<rscale>  2 0.52959252E+01</rscale>
<asrwt>0</asrwt>
<pdfrwt beam="1">  1       21 0.13572792E-02 0.52959252E+01</pdfrwt>
<pdfrwt beam="2">  1       21 0.47635330E-02 0.52959252E+01</pdfrwt>
<totfact> 0.19659803E+08</totfact>
</mgrwt>
</event>
<event>
 4    1  0.4039863E+006  0.6808982E+01  0.7546771E-02  0.2320693E+00
         21   -1    0    0  501  502  0.00000000000E+00  0.00000000000E+00  0.61171922297E+00  0.61171922297E+00  0.00000000000E+00 0. -1.
         21   -1    0    0  502  503 -0.00000000000E+00 -0.00000000000E+00 -0.76961735877E+02  0.76961735877E+02  0.00000000000E+00 0.  1.
          5    1    1    2  501    0  0.40063897696E+01 -0.28672410578E+01 -0.33389243230E+02  0.34076440450E+02  0.47000000000E+01 0.  1.
         -5    1    1    2    0  503 -0.40063897696E+01  0.28672410578E+01 -0.42960773424E+02  0.43497014650E+02  0.47000000000E+01 0. -1.
<mgrwt>
<rscale>  2 0.68089816E+01</rscale>
<asrwt>0</asrwt>
<pdfrwt beam="1">  1       21 0.94110666E-04 0.68089816E+01</pdfrwt>
<pdfrwt beam="2">  1       21 0.11840265E-01 0.68089816E+01</pdfrwt>
<totfact> 0.23928268E+09</totfact>
</mgrwt>
</event>
<event>
 4    1  0.4039863E+006  0.6886047E+01  0.7546771E-02  0.2312638E+00
         21   -1    0    0  503  502  0.00000000000E+00  0.00000000000E+00  0.30191937612E+01  0.30191937612E+01  0.00000000000E+00 0.  1.
         21   -1    0    0  501  503 -0.00000000000E+00 -0.00000000000E+00 -0.39511424792E+02  0.39511424792E+02  0.00000000000E+00 0.  1.
          5    1    1    2  501    0  0.49218020099E+01  0.10504768046E+01 -0.34752571054E+02  0.35428220833E+02  0.47000000000E+01 0.  1.
         -5    1    1    2    0  502 -0.49218020099E+01 -0.10504768046E+01 -0.17396599772E+01  0.71023977204E+01  0.47000000000E+01 0.  1.
<mgrwt>
<rscale>  2 0.68860465E+01</rscale>
<asrwt>0</asrwt>
<pdfrwt beam="1">  1       21 0.46449136E-03 0.68860465E+01</pdfrwt>
<pdfrwt beam="2">  1       21 0.60786805E-02 0.68860465E+01</pdfrwt>
<totfact> 0.74989711E+08</totfact>
</mgrwt>
</event>
<event>
 4    1  0.4039863E+006  0.4975442E+01  0.7546771E-02  0.2571529E+00
         21   -1    0    0  503  502  0.00000000000E+00  0.00000000000E+00  0.38287647962E+03  0.38287647962E+03  0.00000000000E+00 0. -1.
         21   -1    0    0  501  503 -0.00000000000E+00 -0.00000000000E+00 -0.70836093820E-01  0.70836093820E-01  0.00000000000E+00 0. -1.
          5    1    1    2  501    0 -0.13031386113E+01  0.98328815173E+00  0.13484392787E+03  0.13493568805E+03  0.47000000000E+01 0. -1.
         -5    1    1    2    0  502  0.13031386113E+01 -0.98328815173E+00  0.24796171566E+03  0.24801162767E+03  0.47000000000E+01 0. -1.
<mgrwt>
<rscale>  2 0.49754423E+01</rscale>
<asrwt>0</asrwt>
<pdfrwt beam="1">  1       21 0.58902416E-01 0.49754423E+01</pdfrwt>
<pdfrwt beam="2">  1       21 0.10898167E-04 0.49754423E+01</pdfrwt>
<totfact> 0.22582783E+09</totfact>
</mgrwt>
</event>
<event>
 4    1  0.4039863E+006  0.6010066E+01  0.7546771E-02  0.2414115E+00
         21   -1    0    0  503  502  0.00000000000E+00  0.00000000000E+00  0.19476418322E+02  0.19476418322E+02  0.00000000000E+00 0.  1.
         21   -1    0    0  501  503 -0.00000000000E+00 -0.00000000000E+00 -0.19516174739E+02  0.19516174739E+02  0.00000000000E+00 0. -1.
          5    1    1    2  501    0  0.36223981634E+01  0.95347913716E+00 -0.18566701385E+02  0.19515206667E+02  0.47000000000E+01 0. -1.
         -5    1    1    2    0  502 -0.36223981634E+01 -0.95347913716E+00  0.18526944967E+02  0.19477386394E+02  0.47000000000E+01 0.  1.
<mgrwt>
<rscale>  2 0.60100658E+01</rscale>
<asrwt>0</asrwt>
<pdfrwt beam="1">  1       21 0.29963720E-02 0.60100658E+01</pdfrwt>
<pdfrwt beam="2">  1       21 0.30024884E-02 0.60100658E+01</pdfrwt>
<totfact> 0.13618573E+08</totfact>
</mgrwt>
</event>
<event>
 4    1  0.4039863E+006  0.5498016E+01  0.7546771E-02  0.2485728E+00
         21   -1    0    0  501  502  0.00000000000E+00  0.00000000000E+00  0.98757107825E-01  0.98757107825E-01  0.00000000000E+00 0. -1.
         21   -1    0    0  502  503 -0.00000000000E+00 -0.00000000000E+00 -0.32380789068E+03  0.32380789068E+03  0.00000000000E+00 0.  1.
          5    1    1    2  501    0  0.12238503816E+01 -0.25768920033E+01 -0.19974237094E+03  0.19981802454E+03  0.47000000000E+01 0. -1.
         -5    1    1    2    0  503 -0.12238503816E+01  0.25768920033E+01 -0.12396676264E+03  0.12408862325E+03  0.47000000000E+01 0. -1.
<mgrwt>
<rscale>  2 0.54980162E+01</rscale>
<asrwt>0</asrwt>
<pdfrwt beam="1">  1       21 0.15193283E-04 0.54980162E+01</pdfrwt>
<pdfrwt beam="2">  1       21 0.49816987E-01 0.54980162E+01</pdfrwt>
<totfact> 0.21386513E+09</totfact>
</mgrwt>
</event>
<event>
 4    1  0.4039863E+006  0.1010478E+02  0.7546771E-02  0.2069073E+00
         21   -1    0    0  501  502  0.00000000000E+00  0.00000000000E+00  0.23065290270E+01  0.23065290270E+01  0.00000000000E+00 0. -1.
         21   -1    0    0  502  503 -0.00000000000E+00 -0.00000000000E+00 -0.11646589332E+03  0.11646589332E+03  0.00000000000E+00 0. -1.
          5    1    1    2  501    0 -0.28807143787E+01 -0.84686499086E+01 -0.10322638921E+02  0.14445186773E+02  0.47000000000E+01 0. -1.
         -5    1    1    2    0  503  0.28807143787E+01  0.84686499086E+01 -0.10383672538E+03  0.10432723558E+03  0.47000000000E+01 0. -1.
<mgrwt>
<rscale>  2 0.10104778E+02</rscale>
<asrwt>0</asrwt>
<pdfrwt beam="1">  1       21 0.35485076E-03 0.10104778E+02</pdfrwt>
<pdfrwt beam="2">  1       21 0.17917823E-01 0.10104778E+02</pdfrwt>
<totfact> 0.25019005E+08</totfact>
</mgrwt>
</event>
<event>
 4    1  0.4039863E+006  0.4868482E+01  0.7546771E-02  0.2591027E+00
         21   -1    0    0  501  502  0.00000000000E+00  0.00000000000E+00  0.97099930531E+03  0.97099930531E+03  0.00000000000E+00 0. -1.
         21   -1    0    0  502  503 -0.00000000000E+00 -0.00000000000E+00 -0.13425269788E+00  0.13425269788E+00  0.00000000000E+00 0. -1.
          5    1    1    2  501    0  0.53490954249E+00 -0.11515150010E+01  0.92464332149E+03  0.92465613830E+03  0.47000000000E+01 0. -1.
         -5    1    1    2    0  503 -0.53490954249E+00  0.11515150010E+01  0.46221731119E+02  0.46477419707E+02  0.47000000000E+01 0. -1.
<mgrwt>
<rscale>  2 0.48684818E+01</rscale>
<asrwt>0</asrwt>
<pdfrwt beam="1">  1       21 0.14937888E+00 0.48684818E+01</pdfrwt>
<pdfrwt beam="2">  1       21 0.20655039E-04 0.48684818E+01</pdfrwt>
<totfact> 0.15236336E+08</totfact>
</mgrwt>
</event>
<event>
 4    1  0.4039863E+006  0.5811098E+01  0.7546771E-02  0.2440677E+00
         21   -1    0    0  501  502  0.00000000000E+00  0.00000000000E+00  0.34819574472E+01  0.34819574472E+01  0.00000000000E+00 0.  1.
         21   -1    0    0  502  503 -0.00000000000E+00 -0.00000000000E+00 -0.20219704315E+02  0.20219704315E+02  0.00000000000E+00 0. -1.
          5    1    1    2  501    0 -0.33316573483E+01  0.76086429318E+00  0.17981553730E+00  0.58138789793E+01  0.47000000000E+01 0.  1.
         -5    1    1    2    0  503  0.33316573483E+01 -0.76086429318E+00 -0.16917562405E+02  0.17887782783E+02  0.47000000000E+01 0. -1.
<mgrwt>
<rscale>  2 0.58110976E+01</rscale>
<asrwt>0</asrwt>
<pdfrwt beam="1">  1       21 0.53568575E-03 0.58110976E+01</pdfrwt>
<pdfrwt beam="2">  1       21 0.31107238E-02 0.58110976E+01</pdfrwt>
<totfact> 0.14502883E+09</totfact>
</mgrwt>
</event>
<event>
 4    1  0.4039863E+006  0.4983365E+01  0.7546771E-02  0.2570113E+00
         21   -1    0    0  501  502  0.00000000000E+00  0.00000000000E+00  0.17036458516E+03  0.17036458516E+03  0.00000000000E+00 0.  1.
         21   -1    0    0  502  503 -0.00000000000E+00 -0.00000000000E+00 -0.22243081423E+00  0.22243081423E+00  0.00000000000E+00 0.  1.
          5    1    1    2  501    0  0.58161472124E-01  0.16554580039E+01  0.13514449511E+03  0.13523634306E+03  0.47000000000E+01 0.  1.
         -5    1    1    2    0  503 -0.58161472124E-01 -0.16554580039E+01  0.34997659232E+02  0.35350672917E+02  0.47000000000E+01 0.  1.
<mgrwt>
<rscale>  2 0.49833647E+01</rscale>
<asrwt>0</asrwt>
<pdfrwt beam="1">  1       21 0.26209832E-01 0.49833647E+01</pdfrwt>
<pdfrwt beam="2">  1       21 0.34220261E-04 0.49833647E+01</pdfrwt>
<totfact> 0.20005201E+09</totfact>
</mgrwt>
</event>
<event>
 4    1  0.4039863E+006  0.6791287E+01  0.7546771E-02  0.2322564E+00
         21   -1    0    0  501  502  0.00000000000E+00  0.00000000000E+00  0.31625197783E+01  0.31625197783E+01  0.00000000000E+00 0.  1.
         21   -1    0    0  502  503 -0.00000000000E+00 -0.00000000000E+00 -0.23699461047E+02  0.23699461047E+02  0.00000000000E+00 0. -1.
          5    1    1    2  501    0  0.62013770566E+00  0.48628192993E+01 -0.19387067763E+01  0.70625892048E+01  0.47000000000E+01 0.  1.
         -5    1    1    2    0  503 -0.62013770566E+00 -0.48628192993E+01 -0.18598234492E+02  0.19799391620E+02  0.47000000000E+01 0. -1.
<mgrwt>
<rscale>  2 0.67912872E+01</rscale>
<asrwt>0</asrwt>
<pdfrwt beam="1">  1       21 0.48654151E-03 0.67912872E+01</pdfrwt>
<pdfrwt beam="2">  1       21 0.36460709E-02 0.67912872E+01</pdfrwt>
<totfact> 0.14917954E+09</totfact>
</mgrwt>
</event>
<event>
 4    1  0.4039863E+006  0.6829999E+01  0.7546771E-02  0.2318481E+00
         21   -1    0    0  503  502  0.00000000000E+00  0.00000000000E+00  0.53792824216E+00  0.53792824216E+00  0.00000000000E+00 0.  1.
         21   -1    0    0  501  503 -0.00000000000E+00 -0.00000000000E+00 -0.22701910973E+03  0.22701910973E+03  0.00000000000E+00 0.  1.
          5    1    1    2  501    0  0.49538504550E+01 -0.13510634010E+00 -0.20268583258E+03  0.20280087677E+03  0.47000000000E+01 0.  1.
         -5    1    1    2    0  502 -0.49538504550E+01  0.13510634010E+00 -0.23795348903E+02  0.24756161202E+02  0.47000000000E+01 0.  1.
<mgrwt>
<rscale>  2 0.68299991E+01</rscale>
<asrwt>0</asrwt>
<pdfrwt beam="1">  1       21 0.82758335E-04 0.68299991E+01</pdfrwt>
<pdfrwt beam="2">  1       21 0.34925956E-01 0.68299991E+01</pdfrwt>
<totfact> 0.48483666E+08</totfact>
</mgrwt>
</event>
<event>
 4    1  0.4039863E+006  0.5394574E+01  0.7546771E-02  0.2501582E+00
         21   -1    0    0  501  502  0.00000000000E+00  0.00000000000E+00  0.18750375598E+00  0.18750375598E+00  0.00000000000E+00 0. -1.
         21   -1    0    0  502  503 -0.00000000000E+00 -0.00000000000E+00 -0.13283796566E+04  0.13283796566E+04  0.00000000000E+00 0. -1.
          5    1    1    2  501    0  0.16092090626E+01 -0.21028262462E+01 -0.39824109568E+02  0.40187823217E+02  0.47000000000E+01 0. -1.
         -5    1    1    2    0  503 -0.16092090626E+01  0.21028262462E+01 -0.12883680432E+04  0.12883793371E+04  0.47000000000E+01 0. -1.
<mgrwt>
<rscale>  2 0.53945743E+01</rscale>
<asrwt>0</asrwt>
<pdfrwt beam="1">  1       21 0.28846685E-04 0.53945743E+01</pdfrwt>
<pdfrwt beam="2">  1       21 0.20436643E+00 0.53945743E+01</pdfrwt>
<totfact> 0.53084577E+07</totfact>
</mgrwt>
</event>
<event>
 4    1  0.4039863E+006  0.7049775E+01  0.7546771E-02  0.2296005E+00
         21   -1    0    0  501  502  0.00000000000E+00  0.00000000000E+00  0.89089568698E+01  0.89089568698E+01  0.00000000000E+00 0. -1.
         21   -1    0    0  502  503 -0.00000000000E+00 -0.00000000000E+00 -0.17781405283E+02  0.17781405283E+02  0.00000000000E+00 0.  1.
          5    1    1    2  501    0 -0.78390684914E-01  0.52538737354E+01  0.66191033763E+01  0.96701532477E+01  0.47000000000E+01 0. -1.
         -5    1    1    2    0  503  0.78390684914E-01 -0.52538737354E+01 -0.15491551790E+02  0.17020208905E+02  0.47000000000E+01 0.  1.
<mgrwt>
<rscale>  2 0.70497755E+01</rscale>
<asrwt>0</asrwt>
<pdfrwt beam="1">  1       21 0.13706088E-02 0.70497755E+01</pdfrwt>
<pdfrwt beam="2">  1       21 0.27356008E-02 0.70497755E+01</pdfrwt>
<totfact> 0.53925981E+08</totfact>
</mgrwt>
</event>
<event>
 4    1  0.4039863E+006  0.5457785E+01  0.7546771E-02  0.2491833E+00
         21   -1    0    0  503  502  0.00000000000E+00  0.00000000000E+00  0.93271474530E+00  0.93271474530E+00  0.00000000000E+00 0. -1.
         21   -1    0    0  501  503 -0.00000000000E+00 -0.00000000000E+00 -0.58827313897E+02  0.58827313897E+02  0.00000000000E+00 0.  1.
          5    1    1    2  501    0  0.11743010959E+01 -0.25136497603E+01 -0.49149339480E+02  0.49451440722E+02  0.47000000000E+01 0.  1.
         -5    1    1    2    0  502 -0.11743010959E+01  0.25136497603E+01 -0.87452596719E+01  0.10308587920E+02  0.47000000000E+01 0. -1.
<mgrwt>
<rscale>  2 0.54577851E+01</rscale>
<asrwt>0</asrwt>
<pdfrwt beam="1">  1       21 0.14349458E-03 0.54577851E+01</pdfrwt>
<pdfrwt beam="2">  1       21 0.90503555E-02 0.54577851E+01</pdfrwt>
<totfact> 0.17081233E+09</totfact>
</mgrwt>
</event>
<event>
 4    1  0.4039863E+006  0.5577769E+01  0.7546771E-02  0.2473847E+00
         21   -1    0    0  501  502  0.00000000000E+00  0.00000000000E+00  0.66907167098E+01  0.66907167098E+01  0.00000000000E+00 0.  1.
         21   -1    0    0  502  503 -0.00000000000E+00 -0.00000000000E+00 -0.87567312704E+01  0.87567312704E+01  0.00000000000E+00 0. -1.
          5    1    1    2  501    0 -0.54930403390E+00 -0.29529252339E+01  0.42563936571E+01  0.70162945579E+01  0.47000000000E+01 0.  1.
         -5    1    1    2    0  503  0.54930403390E+00  0.29529252339E+01 -0.63224082177E+01  0.84311534223E+01  0.47000000000E+01 0. -1.
<mgrwt>
<rscale>  2 0.55777686E+01</rscale>
<asrwt>0</asrwt>
<pdfrwt beam="1">  1       21 0.10293410E-02 0.55777686E+01</pdfrwt>
<pdfrwt beam="2">  1       21 0.13471894E-02 0.55777686E+01</pdfrwt>
<totfact> 0.18634032E+09</totfact>
</mgrwt>
</event>
<event>
 4    1  0.4039863E+006  0.5993398E+01  0.7546771E-02  0.2416284E+00
         21   -1    0    0  501  502  0.00000000000E+00  0.00000000000E+00  0.26107217544E+02  0.26107217544E+02  0.00000000000E+00 0. -1.
         21   -1    0    0  502  503 -0.00000000000E+00 -0.00000000000E+00 -0.15704818127E+01  0.15704818127E+01  0.00000000000E+00 0.  1.
          5    1    1    2  501    0 -0.36379531269E+01  0.77208411307E+00  0.17139603019E+02  0.18157279765E+02  0.47000000000E+01 0. -1.
         -5    1    1    2    0  503  0.36379531269E+01 -0.77208411307E+00  0.73971327121E+01  0.95204195911E+01  0.47000000000E+01 0.  1.
<mgrwt>
<rscale>  2 0.59933978E+01</rscale>
<asrwt>0</asrwt>
<pdfrwt beam="1">  1       21 0.40164947E-02 0.59933978E+01</pdfrwt>
<pdfrwt beam="2">  1       21 0.24161261E-03 0.59933978E+01</pdfrwt>
<totfact> 0.30714171E+09</totfact>
</mgrwt>
</event>
<event>
 4    1  0.4039863E+006  0.5858642E+01  0.7546771E-02  0.2434193E+00
         21   -1    0    0  501  502  0.00000000000E+00  0.00000000000E+00  0.26565682694E+02  0.26565682694E+02  0.00000000000E+00 0. -1.
         21   -1    0    0  502  503 -0.00000000000E+00 -0.00000000000E+00 -0.24005616624E+01  0.24005616624E+01  0.00000000000E+00 0. -1.
          5    1    1    2  501    0 -0.23857601988E+01  0.25577008412E+01  0.21924475709E+02  0.22693750691E+02  0.47000000000E+01 0. -1.
         -5    1    1    2    0  503  0.23857601988E+01 -0.25577008412E+01  0.22406453227E+01  0.62724936653E+01  0.47000000000E+01 0. -1.
<mgrwt>
<rscale>  2 0.58586419E+01</rscale>
<asrwt>0</asrwt>
<pdfrwt beam="1">  1       21 0.40870279E-02 0.58586419E+01</pdfrwt>
<pdfrwt beam="2">  1       21 0.36931720E-03 0.58586419E+01</pdfrwt>
<totfact> 0.16398076E+09</totfact>
</mgrwt>
</event>
<event>
 4    1  0.4039863E+006  0.7323636E+01  0.7546771E-02  0.2269553E+00
         21   -1    0    0  503  502  0.00000000000E+00  0.00000000000E+00  0.27067593382E+00  0.27067593382E+00  0.00000000000E+00 0.  1.
         21   -1    0    0  501  503 -0.00000000000E+00 -0.00000000000E+00 -0.25368265691E+03  0.25368265691E+03  0.00000000000E+00 0. -1.
          5    1    1    2  501    0 -0.55790961617E+01  0.64755624703E+00 -0.18611267626E+03  0.18625671506E+03  0.47000000000E+01 0. -1.
         -5    1    1    2    0  502  0.55790961617E+01 -0.64755624703E+00 -0.67299304718E+02  0.67696617778E+02  0.47000000000E+01 0.  1.
<mgrwt>
<rscale>  2 0.73236359E+01</rscale>
<asrwt>0</asrwt>
<pdfrwt beam="1">  1       21 0.41642396E-04 0.73236359E+01</pdfrwt>
<pdfrwt beam="2">  1       21 0.39028153E-01 0.73236359E+01</pdfrwt>
<totfact> 0.10554207E+09</totfact>
</mgrwt>
</event>
<event>
 4    1  0.4039863E+006  0.5282002E+01  0.7546771E-02  0.2519434E+00
         21   -1    0    0  501  502  0.00000000000E+00  0.00000000000E+00  0.51275244445E+00  0.51275244445E+00  0.00000000000E+00 0. -1.
         21   -1    0    0  502  503 -0.00000000000E+00 -0.00000000000E+00 -0.11487139430E+03  0.11487139430E+03  0.00000000000E+00 0. -1.
          5    1    1    2  501    0 -0.72403320204E+00 -0.22989818524E+01 -0.15324594361E+02  0.16209340948E+02  0.47000000000E+01 0. -1.
         -5    1    1    2    0  503  0.72403320204E+00  0.22989818524E+01 -0.99034047500E+02  0.99174805802E+02  0.47000000000E+01 0. -1.
<mgrwt>
<rscale>  2 0.52820017E+01</rscale>
<asrwt>0</asrwt>
<pdfrwt beam="1">  1       21 0.78884937E-04 0.52820017E+01</pdfrwt>
<pdfrwt beam="2">  1       21 0.17672535E-01 0.52820017E+01</pdfrwt>
<totfact> 0.13114846E+09</totfact>
</mgrwt>
</event>
<event>
 4    1  0.4039863E+006  0.6896508E+01  0.7546771E-02  0.2311555E+00
         21   -1    0    0  503  502  0.00000000000E+00  0.00000000000E+00  0.49732112555E+02  0.49732112555E+02  0.00000000000E+00 0. -1.
         21   -1    0    0  501  503 -0.00000000000E+00 -0.00000000000E+00 -0.13277040955E+01  0.13277040955E+01  0.00000000000E+00 0.  1.
          5    1    1    2  501    0 -0.37021930586E+01 -0.34301004158E+01  0.37703847967E+02  0.38329387861E+02  0.47000000000E+01 0. -1.
         -5    1    1    2    0  502  0.37021930586E+01  0.34301004158E+01  0.10700560493E+02  0.12730428790E+02  0.47000000000E+01 0.  1.
<mgrwt>
<rscale>  2 0.68965080E+01</rscale>
<asrwt>0</asrwt>
<pdfrwt beam="1">  1       21 0.76510928E-02 0.68965080E+01</pdfrwt>
<pdfrwt beam="2">  1       21 0.20426221E-03 0.68965080E+01</pdfrwt>
<totfact> 0.16518907E+09</totfact>
</mgrwt>
</event>
<event>
 4    1  0.4039863E+006  0.8056199E+01  0.7546771E-02  0.2206080E+00
         21   -1    0    0  503  502  0.00000000000E+00  0.00000000000E+00  0.12823965415E+00  0.12823965415E+00  0.00000000000E+00 0.  1.
         21   -1    0    0  501  503 -0.00000000000E+00 -0.00000000000E+00 -0.51461651302E+03  0.51461651302E+03  0.00000000000E+00 0. -1.
          5    1    1    2  501    0 -0.60689077546E+01  0.24455467715E+01 -0.29034970099E+03  0.29046144530E+03  0.47000000000E+01 0. -1.
         -5    1    1    2    0  502  0.60689077546E+01 -0.24455467715E+01 -0.22413857238E+03  0.22428330738E+03  0.47000000000E+01 0.  1.
<mgrwt>
<rscale>  2 0.80561989E+01</rscale>
<asrwt>0</asrwt>
<pdfrwt beam="1">  1       21 0.19728916E-04 0.80561989E+01</pdfrwt>
<pdfrwt beam="2">  1       21 0.79172822E-01 0.80561989E+01</pdfrwt>
<totfact> 0.81819426E+08</totfact>
</mgrwt>
</event>
<event>
 4    1  0.4039863E+006  0.5351584E+01  0.7546771E-02  0.2508324E+00
         21   -1    0    0  503  502  0.00000000000E+00  0.00000000000E+00  0.12725625101E+01  0.12725625101E+01  0.00000000000E+00 0. -1.
         21   -1    0    0  501  503 -0.00000000000E+00 -0.00000000000E+00 -0.22671539164E+02  0.22671539164E+02  0.00000000000E+00 0.  1.
          5    1    1    2  501    0  0.12127625000E+01  0.22535877372E+01 -0.11724535597E+02  0.12888141276E+02  0.47000000000E+01 0. -1.
         -5    1    1    2    0  502 -0.12127625000E+01 -0.22535877372E+01 -0.96744410564E+01  0.11055960398E+02  0.47000000000E+01 0. -1.
<mgrwt>
<rscale>  2 0.53515839E+01</rscale>
<asrwt>0</asrwt>
<pdfrwt beam="1">  1       21 0.19577888E-03 0.53515839E+01</pdfrwt>
<pdfrwt beam="2">  1       21 0.34879286E-02 0.53515839E+01</pdfrwt>
<totfact> 0.45221278E+09</totfact>
</mgrwt>
</event>
<event>
 4    1  0.4039863E+006  0.4887093E+01  0.7546771E-02  0.2587582E+00
         21   -1    0    0  503  502  0.00000000000E+00  0.00000000000E+00  0.72092121165E+00  0.72092121165E+00  0.00000000000E+00 0. -1.
         21   -1    0    0  501  503 -0.00000000000E+00 -0.00000000000E+00 -0.59666380683E+02  0.59666380683E+02  0.00000000000E+00 0. -1.
          5    1    1    2  501    0 -0.85848568985E+00 -0.10279488627E+01 -0.49608889936E+02  0.49849028448E+02  0.47000000000E+01 0. -1.
         -5    1    1    2    0  502  0.85848568985E+00  0.10279488627E+01 -0.93365695353E+01  0.10538273446E+02  0.47000000000E+01 0. -1.
<mgrwt>
<rscale>  2 0.48870929E+01</rscale>
<asrwt>0</asrwt>
<pdfrwt beam="1">  1       21 0.11091099E-03 0.48870929E+01</pdfrwt>
<pdfrwt beam="2">  1       21 0.91794407E-02 0.48870929E+01</pdfrwt>
<totfact> 0.21245834E+09</totfact>
</mgrwt>
</event>
<event>
 4    1  0.4039863E+006  0.6036701E+01  0.7546771E-02  0.2410671E+00
         21   -1    0    0  503  502  0.00000000000E+00  0.00000000000E+00  0.23677933879E+01  0.23677933879E+01  0.00000000000E+00 0. -1.
         21   -1    0    0  501  503 -0.00000000000E+00 -0.00000000000E+00 -0.35880312532E+02  0.35880312532E+02  0.00000000000E+00 0. -1.
          5    1    1    2  501    0 -0.10901816743E+01 -0.36281213136E+01 -0.23045320616E+01  0.64616273780E+01  0.47000000000E+01 0. -1.
         -5    1    1    2    0  502  0.10901816743E+01  0.36281213136E+01 -0.31207987082E+02  0.31786478542E+02  0.47000000000E+01 0. -1.
<mgrwt>
<rscale>  2 0.60367011E+01</rscale>
<asrwt>0</asrwt>
<pdfrwt beam="1">  1       21 0.36427591E-03 0.60367011E+01</pdfrwt>
<pdfrwt beam="2">  1       21 0.55200480E-02 0.60367011E+01</pdfrwt>
<totfact> 0.10986253E+09</totfact>
</mgrwt>
</event>
<event>
 4    1  0.4039863E+006  0.5488219E+01  0.7546771E-02  0.2487208E+00
         21   -1    0    0  501  502  0.00000000000E+00  0.00000000000E+00  0.26939331866E+02  0.26939331866E+02  0.00000000000E+00 0.  1.
         21   -1    0    0  502  503 -0.00000000000E+00 -0.00000000000E+00 -0.29444339335E+01  0.29444339335E+01  0.00000000000E+00 0.  1.
          5    1    1    2  501    0  0.26381385627E+01 -0.10347791839E+01  0.23765267027E+02  0.24390745374E+02  0.47000000000E+01 0.  1.
         -5    1    1    2    0  503 -0.26381385627E+01  0.10347791839E+01  0.22963090493E+00  0.54930204249E+01  0.47000000000E+01 0.  1.
<mgrwt>
<rscale>  2 0.54882186E+01</rscale>
<asrwt>0</asrwt>
<pdfrwt beam="1">  1       21 0.41445124E-02 0.54882186E+01</pdfrwt>
<pdfrwt beam="2">  1       21 0.45298985E-03 0.54882186E+01</pdfrwt>
<totfact> 0.11466396E+09</totfact>
</mgrwt>
</event>
<event>
 4    1  0.4039863E+006  0.1467319E+02  0.7546771E-02  0.1878208E+00
         21   -1    0    0  503  502  0.00000000000E+00  0.00000000000E+00  0.69813052144E+01  0.69813052144E+01  0.00000000000E+00 0.  1.
         21   -1    0    0  501  503 -0.00000000000E+00 -0.00000000000E+00 -0.31339329563E+02  0.31339329563E+02  0.00000000000E+00 0. -1.
          5    1    1    2  501    0 -0.53222068785E+01  0.12840816791E+02 -0.14597885937E+02  0.20697843746E+02  0.47000000000E+01 0. -1.
         -5    1    1    2    0  502  0.53222068785E+01 -0.12840816791E+02 -0.97601384117E+01  0.17622791031E+02  0.47000000000E+01 0.  1.
<mgrwt>
<rscale>  2 0.14673189E+02</rscale>
<asrwt>0</asrwt>
<pdfrwt beam="1">  1       21 0.10740470E-02 0.14673189E+02</pdfrwt>
<pdfrwt beam="2">  1       21 0.48214353E-02 0.14673189E+02</pdfrwt>
<totfact> 0.49009086E+08</totfact>
</mgrwt>
</event>
<event>
 4    1  0.4039863E+006  0.5333966E+01  0.7546771E-02  0.2511113E+00
         21   -1    0    0  503  502  0.00000000000E+00  0.00000000000E+00  0.67681471672E+01  0.67681471672E+01  0.00000000000E+00 0.  1.
         21   -1    0    0  501  503 -0.00000000000E+00 -0.00000000000E+00 -0.80000097996E+02  0.80000097996E+02  0.00000000000E+00 0.  1.
          5    1    1    2  501    0  0.23340204959E+01  0.95579437863E+00 -0.78844885309E+02  0.79025104453E+02  0.47000000000E+01 0.  1.
         -5    1    1    2    0  502 -0.23340204959E+01 -0.95579437863E+00  0.56129344800E+01  0.77431407094E+01  0.47000000000E+01 0.  1.
<mgrwt>
<rscale>  2 0.53339661E+01</rscale>
<asrwt>0</asrwt>
<pdfrwt beam="1">  1       21 0.10412534E-02 0.53339661E+01</pdfrwt>
<pdfrwt beam="2">  1       21 0.12307707E-01 0.53339661E+01</pdfrwt>
<totfact> 0.69098638E+07</totfact>
</mgrwt>
</event>
<event>
 4    1  0.4039863E+006  0.4937080E+01  0.7546771E-02  0.2578438E+00
         21   -1    0    0  503  502  0.00000000000E+00  0.00000000000E+00  0.10789329639E+03  0.10789329639E+03  0.00000000000E+00 0. -1.
         21   -1    0    0  501  503 -0.00000000000E+00 -0.00000000000E+00 -0.29556740774E+00  0.29556740774E+00  0.00000000000E+00 0.  1.
          5    1    1    2  501    0  0.97726977065E+00  0.11531293224E+01  0.27539093597E+02  0.27978142176E+02  0.47000000000E+01 0.  1.
         -5    1    1    2    0  502 -0.97726977065E+00 -0.11531293224E+01  0.80058635387E+02  0.80210721625E+02  0.47000000000E+01 0. -1.
<mgrwt>
<rscale>  2 0.49370805E+01</rscale>
<asrwt>0</asrwt>
<pdfrwt beam="1">  1       21 0.16598937E-01 0.49370805E+01</pdfrwt>
<pdfrwt beam="2">  1       21 0.45471995E-04 0.49370805E+01</pdfrwt>
<totfact> 0.28225607E+09</totfact>
</mgrwt>
</event>
<event>
 4    1  0.4039863E+006  0.8433194E+01  0.7546771E-02  0.2176923E+00
         21   -1    0    0  501  502  0.00000000000E+00  0.00000000000E+00  0.45867715006E+01  0.45867715006E+01  0.00000000000E+00 0. -1.
         21   -1    0    0  502  503 -0.00000000000E+00 -0.00000000000E+00 -0.21997773382E+02  0.21997773382E+02  0.00000000000E+00 0.  1.
          5    1    1    2  501    0 -0.28876678997E+01 -0.63788821851E+01 -0.14841468856E+01  0.85627948596E+01  0.47000000000E+01 0. -1.
         -5    1    1    2    0  503  0.28876678997E+01  0.63788821851E+01 -0.15926854996E+02  0.18021750023E+02  0.47000000000E+01 0.  1.
<mgrwt>
<rscale>  2 0.84331942E+01</rscale>
<asrwt>0</asrwt>
<pdfrwt beam="1">  1       21 0.70565717E-03 0.84331942E+01</pdfrwt>
<pdfrwt beam="2">  1       21 0.33842728E-02 0.84331942E+01</pdfrwt>
<totfact> 0.11491393E+09</totfact>
</mgrwt>
</event>
<event>
 4    1  0.4039863E+006  0.5221461E+01  0.7546771E-02  0.2529305E+00
         21   -1    0    0  501  502  0.00000000000E+00  0.00000000000E+00  0.83403752105E+02  0.83403752105E+02  0.00000000000E+00 0. -1.
         21   -1    0    0  502  503 -0.00000000000E+00 -0.00000000000E+00 -0.55911124262E+00  0.55911124262E+00  0.00000000000E+00 0. -1.
          5    1    1    2  501    0 -0.21662704374E+01  0.69348976516E+00  0.68478178495E+02  0.68676958186E+02  0.47000000000E+01 0. -1.
         -5    1    1    2    0  503  0.21662704374E+01 -0.69348976516E+00  0.14366462367E+02  0.15285905162E+02  0.47000000000E+01 0. -1.
<mgrwt>
<rscale>  2 0.52214611E+01</rscale>
<asrwt>0</asrwt>
<pdfrwt beam="1">  1       21 0.12831337E-01 0.52214611E+01</pdfrwt>
<pdfrwt beam="2">  1       21 0.86017181E-04 0.52214611E+01</pdfrwt>
<totfact> 0.19067030E+09</totfact>
</mgrwt>
</event>
<event>
 4    1  0.4039863E+006  0.6174678E+01  0.7546771E-02  0.2393229E+00
         21   -1    0    0  503  502  0.00000000000E+00  0.00000000000E+00  0.18378732162E+00  0.18378732162E+00  0.00000000000E+00 0. -1.
         21   -1    0    0  501  503 -0.00000000000E+00 -0.00000000000E+00 -0.21589983710E+03  0.21589983710E+03  0.00000000000E+00 0.  1.
          5    1    1    2  501    0  0.11923421906E+01  0.38229523844E+01 -0.86483583669E+02  0.86703730537E+02  0.47000000000E+01 0.  1.
         -5    1    1    2    0  502 -0.11923421906E+01 -0.38229523844E+01 -0.12923246611E+03  0.12937989389E+03  0.47000000000E+01 0. -1.
<mgrwt>
<rscale>  2 0.61746777E+01</rscale>
<asrwt>0</asrwt>
<pdfrwt beam="1">  1       21 0.28274872E-04 0.61746777E+01</pdfrwt>
<pdfrwt beam="2">  1       21 0.33215478E-01 0.61746777E+01</pdfrwt>
<totfact> 0.20800984E+09</totfact>
</mgrwt>
</event>
<event>
 4    1  0.4039863E+006  0.5930652E+01  0.7546771E-02  0.2424538E+00
         21   -1    0    0  501  502  0.00000000000E+00  0.00000000000E+00  0.91990058269E+00  0.91990058269E+00  0.00000000000E+00 0.  1.
         21   -1    0    0  502  503 -0.00000000000E+00 -0.00000000000E+00 -0.11110229515E+03  0.11110229515E+03  0.00000000000E+00 0. -1.
          5    1    1    2  501    0 -0.13518617893E+01 -0.33548618934E+01 -0.97306642071E+01  0.11395545381E+02  0.47000000000E+01 0.  1.
         -5    1    1    2    0  503  0.13518617893E+01  0.33548618934E+01 -0.10045173036E+03  0.10062665035E+03  0.47000000000E+01 0. -1.
<mgrwt>
<rscale>  2 0.59306516E+01</rscale>
<asrwt>0</asrwt>
<pdfrwt beam="1">  1       21 0.14152326E-03 0.59306516E+01</pdfrwt>
<pdfrwt beam="2">  1       21 0.17092649E-01 0.59306516E+01</pdfrwt>
<totfact> 0.69464051E+08</totfact>
</mgrwt>
</event>
<event>
 4    1  0.4039863E+006  0.5336687E+01  0.7546771E-02  0.2510681E+00
         21   -1    0    0  503  502  0.00000000000E+00  0.00000000000E+00  0.25035146859E+00  0.25035146859E+00  0.00000000000E+00 0.  1.
         21   -1    0    0  501  503 -0.00000000000E+00 -0.00000000000E+00 -0.18854668517E+03  0.18854668517E+03  0.00000000000E+00 0.  1.
          5    1    1    2  501    0  0.24596313133E+01 -0.58347594802E+00 -0.15359996582E+03  0.15369264697E+03  0.47000000000E+01 0.  1.
         -5    1    1    2    0  502 -0.24596313133E+01  0.58347594802E+00 -0.34696367878E+02  0.35104389673E+02  0.47000000000E+01 0.  1.
<mgrwt>
<rscale>  2 0.53366872E+01</rscale>
<asrwt>0</asrwt>
<pdfrwt beam="1">  1       21 0.38515552E-04 0.53366872E+01</pdfrwt>
<pdfrwt beam="2">  1       21 0.29007227E-01 0.53366872E+01</pdfrwt>
<totfact> 0.15382404E+09</totfact>
</mgrwt>
</event>
<event>
 4    1  0.4039863E+006  0.5759543E+01  0.7546771E-02  0.2447811E+00
         21   -1    0    0  501  502  0.00000000000E+00  0.00000000000E+00  0.53847992760E+02  0.53847992760E+02  0.00000000000E+00 0. -1.
         21   -1    0    0  502  503 -0.00000000000E+00 -0.00000000000E+00 -0.78024502574E+00  0.78024502574E+00  0.00000000000E+00 0.  1.
          5    1    1    2  501    0  0.49325127139E+00 -0.32922688786E+01  0.39064405244E+02  0.39486707741E+02  0.47000000000E+01 0.  1.
         -5    1    1    2    0  503 -0.49325127139E+00  0.32922688786E+01  0.14003342491E+02  0.15141530045E+02  0.47000000000E+01 0.  1.
<mgrwt>
<rscale>  2 0.57595426E+01</rscale>
<asrwt>0</asrwt>
<pdfrwt beam="1">  1       21 0.82843037E-02 0.57595426E+01</pdfrwt>
<pdfrwt beam="2">  1       21 0.12003774E-03 0.57595426E+01</pdfrwt>
<totfact> 0.26020130E+09</totfact>
</mgrwt>
</event>
<event>
 4    1  0.4039863E+006  0.7072047E+01  0.7546771E-02  0.2293791E+00
         21   -1    0    0  501  502  0.00000000000E+00  0.00000000000E+00  0.99908495548E+00  0.99908495548E+00  0.00000000000E+00 0.  1.
         21   -1    0    0  502  503 -0.00000000000E+00 -0.00000000000E+00 -0.54590398648E+02  0.54590398648E+02  0.00000000000E+00 0. -1.
          5    1    1    2  501    0  0.33671947269E+01 -0.40725731041E+01 -0.18788302040E+02  0.20075212217E+02  0.47000000000E+01 0.  1.
         -5    1    1    2    0  503 -0.33671947269E+01  0.40725731041E+01 -0.34803011652E+02  0.35514271386E+02  0.47000000000E+01 0. -1.
<mgrwt>
<rscale>  2 0.70720472E+01</rscale>
<asrwt>0</asrwt>
<pdfrwt beam="1">  1       21 0.15370528E-03 0.70720472E+01</pdfrwt>
<pdfrwt beam="2">  1       21 0.83985282E-02 0.70720472E+01</pdfrwt>
<totfact> 0.21539680E+09</totfact>
</mgrwt>
</event>
<event>
 4    1  0.4039863E+006  0.5757390E+01  0.7546771E-02  0.2448111E+00
         21   -1    0    0  503  502  0.00000000000E+00  0.00000000000E+00  0.34448356549E+02  0.34448356549E+02  0.00000000000E+00 0.  1.
         21   -1    0    0  501  503 -0.00000000000E+00 -0.00000000000E+00 -0.10394070354E+01  0.10394070354E+01  0.00000000000E+00 0.  1.
          5    1    1    2  501    0  0.10614807693E+01  0.31513172466E+01  0.11869709679E+02  0.13192329198E+02  0.47000000000E+01 0.  1.
         -5    1    1    2    0  502 -0.10614807693E+01 -0.31513172466E+01  0.21539239835E+02  0.22295434386E+02  0.47000000000E+01 0.  1.
<mgrwt>
<rscale>  2 0.57573902E+01</rscale>
<asrwt>0</asrwt>
<pdfrwt beam="1">  1       21 0.52997463E-02 0.57573902E+01</pdfrwt>
<pdfrwt beam="2">  1       21 0.15990880E-03 0.57573902E+01</pdfrwt>
<totfact> 0.34493556E+09</totfact>
</mgrwt>
</event>
<event>
 4    1  0.4039863E+006  0.7701683E+01  0.7546771E-02  0.2235575E+00
         21   -1    0    0  503  502  0.00000000000E+00  0.00000000000E+00  0.26536203616E+01  0.26536203616E+01  0.00000000000E+00 0.  1.
         21   -1    0    0  501  503 -0.00000000000E+00 -0.00000000000E+00 -0.22695363670E+02  0.22695363670E+02  0.00000000000E+00 0. -1.
          5    1    1    2  501    0 -0.52446676761E+00  0.60787210047E+01 -0.11577970218E+02  0.13905585525E+02  0.47000000000E+01 0. -1.
         -5    1    1    2    0  502  0.52446676761E+00 -0.60787210047E+01 -0.84637730910E+01  0.11443398507E+02  0.47000000000E+01 0.  1.
<mgrwt>
<rscale>  2 0.77016826E+01</rscale>
<asrwt>0</asrwt>
<pdfrwt beam="1">  1       21 0.40824929E-03 0.77016826E+01</pdfrwt>
<pdfrwt beam="2">  1       21 0.34915944E-02 0.77016826E+01</pdfrwt>
<totfact> 0.22344283E+09</totfact>
</mgrwt>
</event>
<event>
 4    1  0.4039863E+006  0.4944197E+01  0.7546771E-02  0.2577149E+00
         21   -1    0    0  501  502  0.00000000000E+00  0.00000000000E+00  0.59388921422E+01  0.59388921422E+01  0.00000000000E+00 0.  1.
         21   -1    0    0  502  503 -0.00000000000E+00 -0.00000000000E+00 -0.74433802194E+01  0.74433802194E+01  0.00000000000E+00 0.  1.
          5    1    1    2  501    0  0.78181836842E-01 -0.15326345778E+01  0.37213789026E+01  0.61881937660E+01  0.47000000000E+01 0.  1.
         -5    1    1    2    0  503 -0.78181836842E-01  0.15326345778E+01 -0.52258669798E+01  0.71940785956E+01  0.47000000000E+01 0.  1.
<mgrwt>
<rscale>  2 0.49441967E+01</rscale>
<asrwt>0</asrwt>
<pdfrwt beam="1">  1       21 0.91367572E-03 0.49441967E+01</pdfrwt>
<pdfrwt beam="2">  1       21 0.11451354E-02 0.49441967E+01</pdfrwt>
<totfact> 0.24608354E+09</totfact>
</mgrwt>
</event>
<event>
 4    1  0.4039863E+006  0.7390320E+01  0.7546771E-02  0.2263354E+00
         21   -1    0    0  503  502  0.00000000000E+00  0.00000000000E+00  0.35321137550E+01  0.35321137550E+01  0.00000000000E+00 0.  1.
         21   -1    0    0  501  503 -0.00000000000E+00 -0.00000000000E+00 -0.46434438685E+02  0.46434438685E+02  0.00000000000E+00 0. -1.
          5    1    1    2  501    0 -0.16589873407E+01 -0.54566099664E+01 -0.41854934524E+02  0.42502380819E+02  0.47000000000E+01 0. -1.
         -5    1    1    2    0  502  0.16589873407E+01  0.54566099664E+01 -0.10473904065E+01  0.74641716209E+01  0.47000000000E+01 0.  1.
<mgrwt>
<rscale>  2 0.73903201E+01</rscale>
<asrwt>0</asrwt>
<pdfrwt beam="1">  1       21 0.54340212E-03 0.73903201E+01</pdfrwt>
<pdfrwt beam="2">  1       21 0.71437597E-02 0.73903201E+01</pdfrwt>
<totfact> 0.49413717E+08</totfact>
</mgrwt>
</event>
<event>
 4    1  0.4039863E+006  0.6321380E+01  0.7546771E-02  0.2375383E+00
         21   -1    0    0  501  502  0.00000000000E+00  0.00000000000E+00  0.67418548593E+02  0.67418548593E+02  0.00000000000E+00 0. -1.
         21   -1    0    0  502  503 -0.00000000000E+00 -0.00000000000E+00 -0.72915347743E+01  0.72915347743E+01  0.00000000000E+00 0. -1.
          5    1    1    2  501    0  0.27060210355E+01  0.32476594932E+01  0.65868118370E+02  0.66170755320E+02  0.47000000000E+01 0. -1.
         -5    1    1    2    0  503 -0.27060210355E+01 -0.32476594932E+01 -0.57411045514E+01  0.85393280472E+01  0.47000000000E+01 0. -1.
<mgrwt>
<rscale>  2 0.63213798E+01</rscale>
<asrwt>0</asrwt>
<pdfrwt beam="1">  1       21 0.10372084E-01 0.63213798E+01</pdfrwt>
<pdfrwt beam="2">  1       21 0.11217746E-02 0.63213798E+01</pdfrwt>
<totfact> 0.90500570E+07</totfact>
</mgrwt>
</event>
<event>
 4    1  0.4039863E+006  0.5906833E+01  0.7546771E-02  0.2427709E+00
         21   -1    0    0  501  502  0.00000000000E+00  0.00000000000E+00  0.92230165228E-01  0.92230165228E-01  0.00000000000E+00 0. -1.
         21   -1    0    0  502  503 -0.00000000000E+00 -0.00000000000E+00 -0.38479757728E+03  0.38479757728E+03  0.00000000000E+00 0.  1.
          5    1    1    2  501    0  0.27292662572E+01  0.23133923756E+01 -0.16734556892E+03  0.16744978386E+03  0.47000000000E+01 0. -1.
         -5    1    1    2    0  503 -0.27292662572E+01 -0.23133923756E+01 -0.21735977819E+03  0.21744002358E+03  0.47000000000E+01 0.  1.
<mgrwt>
<rscale>  2 0.59068332E+01</rscale>
<asrwt>0</asrwt>
<pdfrwt beam="1">  1       21 0.14189468E-04 0.59068332E+01</pdfrwt>
<pdfrwt beam="2">  1       21 0.59198743E-01 0.59068332E+01</pdfrwt>
<totfact> 0.18104893E+09</totfact>
</mgrwt>
</event>
<event>
 4    1  0.4039863E+006  0.7325450E+01  0.7546771E-02  0.2269383E+00
         21   -1    0    0  503  502  0.00000000000E+00  0.00000000000E+00  0.24509612797E+01  0.24509612797E+01  0.00000000000E+00 0. -1.
         21   -1    0    0  501  503 -0.00000000000E+00 -0.00000000000E+00 -0.24788078728E+02  0.24788078728E+02  0.00000000000E+00 0.  1.
          5    1    1    2  501    0  0.48469461322E+01  0.28424157632E+01 -0.15821943532E+02  0.17435484258E+02  0.47000000000E+01 0.  1.
         -5    1    1    2    0  502 -0.48469461322E+01 -0.28424157632E+01 -0.65151739164E+01  0.98035557499E+01  0.47000000000E+01 0. -1.
<mgrwt>
<rscale>  2 0.73254498E+01</rscale>
<asrwt>0</asrwt>
<pdfrwt beam="1">  1       21 0.37707094E-03 0.73254498E+01</pdfrwt>
<pdfrwt beam="2">  1       21 0.38135508E-02 0.73254498E+01</pdfrwt>
<totfact> 0.21101392E+09</totfact>
</mgrwt>
</event>
<event>
 4    1  0.4039863E+006  0.5734578E+01  0.7546771E-02  0.2451304E+00
         21   -1    0    0  501  502  0.00000000000E+00  0.00000000000E+00  0.74928649521E+02  0.74928649521E+02  0.00000000000E+00 0. -1.
         21   -1    0    0  502  503 -0.00000000000E+00 -0.00000000000E+00 -0.76257462717E+00  0.76257462717E+00  0.00000000000E+00 0. -1.
          5    1    1    2  501    0 -0.29390521876E+01 -0.14687937394E+01  0.61739789162E+02  0.62005539660E+02  0.47000000000E+01 0. -1.
         -5    1    1    2    0  503  0.29390521876E+01  0.14687937394E+01  0.12426285732E+02  0.13685684488E+02  0.47000000000E+01 0. -1.
<mgrwt>
<rscale>  2 0.57345778E+01</rscale>
<asrwt>0</asrwt>
<pdfrwt beam="1">  1       21 0.11527479E-01 0.57345778E+01</pdfrwt>
<pdfrwt beam="2">  1       21 0.11731923E-03 0.57345778E+01</pdfrwt>
<totfact> 0.16136773E+09</totfact>
</mgrwt>
</event>
<event>
 4    1  0.4039863E+006  0.6485889E+01  0.7546771E-02  0.2356172E+00
         21   -1    0    0  501  502  0.00000000000E+00  0.00000000000E+00  0.17139708699E+01  0.17139708699E+01  0.00000000000E+00 0.  1.
         21   -1    0    0  502  503 -0.00000000000E+00 -0.00000000000E+00 -0.41793107857E+02  0.41793107857E+02  0.00000000000E+00 0. -1.
          5    1    1    2  501    0  0.25928614830E+01  0.36405794849E+01 -0.60640509202E+01  0.88791589251E+01  0.47000000000E+01 0.  1.
         -5    1    1    2    0  503 -0.25928614830E+01 -0.36405794849E+01 -0.34015086067E+02  0.34627919801E+02  0.47000000000E+01 0. -1.
<mgrwt>
<rscale>  2 0.64858885E+01</rscale>
<asrwt>0</asrwt>
<pdfrwt beam="1">  1       21 0.26368783E-03 0.64858885E+01</pdfrwt>
<pdfrwt beam="2">  1       21 0.64297087E-02 0.64858885E+01</pdfrwt>
<totfact> 0.14451811E+09</totfact>
</mgrwt>
</event>
<event>
 4    1  0.4039863E+006  0.6404775E+01  0.7546771E-02  0.2365542E+00
         21   -1    0    0  501  502  0.00000000000E+00  0.00000000000E+00  0.11980172077E+03  0.11980172077E+03  0.00000000000E+00 0. -1.
         21   -1    0    0  502  503 -0.00000000000E+00 -0.00000000000E+00 -0.10301585194E+01  0.10301585194E+01  0.00000000000E+00 0.  1.
          5    1    1    2  501    0  0.24141199572E+01 -0.36198292090E+01  0.10875028554E+03  0.10893872472E+03  0.47000000000E+01 0. -1.
         -5    1    1    2    0  503 -0.24141199572E+01  0.36198292090E+01  0.10021276704E+02  0.11893154563E+02  0.47000000000E+01 0.  1.
<mgrwt>
<rscale>  2 0.64047747E+01</rscale>
<asrwt>0</asrwt>
<pdfrwt beam="1">  1       21 0.18431023E-01 0.64047747E+01</pdfrwt>
<pdfrwt beam="2">  1       21 0.15848602E-03 0.64047747E+01</pdfrwt>
<totfact> 0.55892189E+08</totfact>
</mgrwt>
</event>
<event>
 4    1  0.4039863E+006  0.4991469E+01  0.7546771E-02  0.2568669E+00
         21   -1    0    0  501  502  0.00000000000E+00  0.00000000000E+00  0.41978546170E+01  0.41978546170E+01  0.00000000000E+00 0.  1.
         21   -1    0    0  502  503 -0.00000000000E+00 -0.00000000000E+00 -0.93524280204E+01  0.93524280204E+01  0.00000000000E+00 0.  1.
          5    1    1    2  501    0 -0.13851192912E+01  0.95194949883E+00  0.15181323760E+01  0.52172300323E+01  0.47000000000E+01 0.  1.
         -5    1    1    2    0  503  0.13851192912E+01 -0.95194949883E+00 -0.66727057794E+01  0.83330526050E+01  0.47000000000E+01 0.  1.
<mgrwt>
<rscale>  2 0.49914691E+01</rscale>
<asrwt>0</asrwt>
<pdfrwt beam="1">  1       21 0.64582379E-03 0.49914691E+01</pdfrwt>
<pdfrwt beam="2">  1       21 0.14388351E-02 0.49914691E+01</pdfrwt>
<totfact> 0.29183140E+09</totfact>
</mgrwt>
</event>
<event>
 4    1  0.4039863E+006  0.5847004E+01  0.7546771E-02  0.2435772E+00
         21   -1    0    0  501  502  0.00000000000E+00  0.00000000000E+00  0.10840795589E+02  0.10840795589E+02  0.00000000000E+00 0. -1.
         21   -1    0    0  502  503 -0.00000000000E+00 -0.00000000000E+00 -0.38411042272E+01  0.38411042272E+01  0.00000000000E+00 0.  1.
          5    1    1    2  501    0 -0.20315540971E+01  0.28231620354E+01  0.66055788889E+01  0.88216284429E+01  0.47000000000E+01 0. -1.
         -5    1    1    2    0  503  0.20315540971E+01 -0.28231620354E+01  0.39411247296E+00  0.58602713733E+01  0.47000000000E+01 0.  1.
<mgrwt>
<rscale>  2 0.58470040E+01</rscale>
<asrwt>0</asrwt>
<pdfrwt beam="1">  1       21 0.16678147E-02 0.58470040E+01</pdfrwt>
<pdfrwt beam="2">  1       21 0.59093911E-03 0.58470040E+01</pdfrwt>
<totfact> 0.31196957E+09</totfact>
</mgrwt>
</event>
<event>
 4    1  0.4039863E+006  0.6373310E+01  0.7546771E-02  0.2369229E+00
         21   -1    0    0  503  502  0.00000000000E+00  0.00000000000E+00  0.22744112213E+00  0.22744112213E+00  0.00000000000E+00 0. -1.
         21   -1    0    0  501  503 -0.00000000000E+00 -0.00000000000E+00 -0.18605711829E+03  0.18605711829E+03  0.00000000000E+00 0. -1.
          5    1    1    2  501    0 -0.35884839164E+01  0.23773644467E+01 -0.11157232391E+03  0.11175420592E+03  0.47000000000E+01 0. -1.
         -5    1    1    2    0  502  0.35884839164E+01 -0.23773644467E+01 -0.74257353253E+02  0.74530353486E+02  0.47000000000E+01 0. -1.
<mgrwt>
<rscale>  2 0.63733099E+01</rscale>
<asrwt>0</asrwt>
<pdfrwt beam="1">  1       21 0.34990918E-04 0.63733099E+01</pdfrwt>
<pdfrwt beam="2">  1       21 0.28624192E-01 0.63733099E+01</pdfrwt>
<totfact> 0.20620446E+09</totfact>
</mgrwt>
</event>
<event>
 4    1  0.4039863E+006  0.8944842E+01  0.7546771E-02  0.2140531E+00
         21   -1    0    0  501  502  0.00000000000E+00  0.00000000000E+00  0.22499545176E+03  0.22499545176E+03  0.00000000000E+00 0. -1.
         21   -1    0    0  502  503 -0.00000000000E+00 -0.00000000000E+00 -0.10502145393E+01  0.10502145393E+01  0.00000000000E+00 0. -1.
          5    1    1    2  501    0  0.71876685582E+01  0.25015243158E+01  0.20388977528E+03  0.20408589041E+03  0.47000000000E+01 0. -1.
         -5    1    1    2    0  503 -0.71876685582E+01 -0.25015243158E+01  0.20055461945E+02  0.21959775888E+02  0.47000000000E+01 0. -1.
<mgrwt>
<rscale>  2 0.89448423E+01</rscale>
<asrwt>0</asrwt>
<pdfrwt beam="1">  1       21 0.34614646E-01 0.89448423E+01</pdfrwt>
<pdfrwt beam="2">  1       21 0.16157165E-03 0.89448423E+01</pdfrwt>
<totfact> 0.23049824E+08</totfact>
</mgrwt>
</event>
<event>
 4    1  0.4039863E+006  0.6113106E+01  0.7546771E-02  0.2400931E+00
         21   -1    0    0  501  502  0.00000000000E+00  0.00000000000E+00  0.67963019517E+02  0.67963019517E+02  0.00000000000E+00 0. -1.
         21   -1    0    0  502  503 -0.00000000000E+00 -0.00000000000E+00 -0.14392654854E+01  0.14392654854E+01  0.00000000000E+00 0. -1.
          5    1    1    2  501    0  0.18523891879E+01  0.34421965760E+01  0.60540567497E+02  0.60848421310E+02  0.47000000000E+01 0. -1.
         -5    1    1    2    0  503 -0.18523891879E+01 -0.34421965760E+01  0.59831865345E+01  0.85538636930E+01  0.47000000000E+01 0. -1.
<mgrwt>
<rscale>  2 0.61131058E+01</rscale>
<asrwt>0</asrwt>
<pdfrwt beam="1">  1       21 0.10455847E-01 0.61131058E+01</pdfrwt>
<pdfrwt beam="2">  1       21 0.22142551E-03 0.61131058E+01</pdfrwt>
<totfact> 0.83566511E+08</totfact>
</mgrwt>
</event>
<event>
 4    1  0.4039863E+006  0.6162133E+01  0.7546771E-02  0.2394788E+00
         21   -1    0    0  503  502  0.00000000000E+00  0.00000000000E+00  0.70855033842E+01  0.70855033842E+01  0.00000000000E+00 0.  1.
         21   -1    0    0  501  503 -0.00000000000E+00 -0.00000000000E+00 -0.60301103009E+01  0.60301103009E+01  0.00000000000E+00 0. -1.
          5    1    1    2  501    0  0.11794226216E+01  0.38066841639E+01 -0.16598755482E+01  0.63817763106E+01  0.47000000000E+01 0. -1.
         -5    1    1    2    0  502 -0.11794226216E+01 -0.38066841639E+01  0.27152686315E+01  0.67338373744E+01  0.47000000000E+01 0.  1.
<mgrwt>
<rscale>  2 0.61621329E+01</rscale>
<asrwt>0</asrwt>
<pdfrwt beam="1">  1       21 0.10900774E-02 0.61621329E+01</pdfrwt>
<pdfrwt beam="2">  1       21 0.92770928E-03 0.61621329E+01</pdfrwt>
<totfact> 0.31803230E+09</totfact>
</mgrwt>
</event>
<event>
 4    1  0.4039863E+006  0.8153781E+01  0.7546771E-02  0.2198325E+00
         21   -1    0    0  501  502  0.00000000000E+00  0.00000000000E+00  0.51132431954E+01  0.51132431954E+01  0.00000000000E+00 0.  1.
         21   -1    0    0  502  503 -0.00000000000E+00 -0.00000000000E+00 -0.38140069407E+02  0.38140069407E+02  0.00000000000E+00 0. -1.
          5    1    1    2  501    0  0.57694625918E+01  0.33327836364E+01  0.10440445827E+01  0.82203512368E+01  0.47000000000E+01 0.  1.
         -5    1    1    2    0  503 -0.57694625918E+01 -0.33327836364E+01 -0.34070870794E+02  0.35032961366E+02  0.47000000000E+01 0. -1.
<mgrwt>
<rscale>  2 0.81537810E+01</rscale>
<asrwt>0</asrwt>
<pdfrwt beam="1">  1       21 0.78665276E-03 0.81537810E+01</pdfrwt>
<pdfrwt beam="2">  1       21 0.58677033E-02 0.81537810E+01</pdfrwt>
<totfact> 0.42036949E+08</totfact>
</mgrwt>
</event>
<event>
 4    1  0.4039863E+006  0.5209830E+01  0.7546771E-02  0.2531224E+00
         21   -1    0    0  501  502  0.00000000000E+00  0.00000000000E+00  0.15049579587E+02  0.15049579587E+02  0.00000000000E+00 0.  1.
         21   -1    0    0  502  503 -0.00000000000E+00 -0.00000000000E+00 -0.15255766521E+02  0.15255766521E+02  0.00000000000E+00 0.  1.
          5    1    1    2  501    0  0.13341732809E+01  0.18089531743E+01  0.14125747466E+02  0.15055865016E+02  0.47000000000E+01 0.  1.
         -5    1    1    2    0  503 -0.13341732809E+01 -0.18089531743E+01 -0.14331934399E+02  0.15249481091E+02  0.47000000000E+01 0.  1.
<mgrwt>
<rscale>  2 0.52098301E+01</rscale>
<asrwt>0</asrwt>
<pdfrwt beam="1">  1       21 0.23153199E-02 0.52098301E+01</pdfrwt>
<pdfrwt beam="2">  1       21 0.23470410E-02 0.52098301E+01</pdfrwt>
<totfact> 0.25303235E+08</totfact>
</mgrwt>
</event>
<event>
 4    1  0.4039863E+006  0.1528719E+02  0.7546771E-02  0.1859429E+00
         21   -1    0    0  503  502  0.00000000000E+00  0.00000000000E+00  0.29846742293E+02  0.29846742293E+02  0.00000000000E+00 0.  1.
         21   -1    0    0  501  503 -0.00000000000E+00 -0.00000000000E+00 -0.81548878847E+01  0.81548878847E+01  0.00000000000E+00 0. -1.
          5    1    1    2  501    0 -0.14492602760E+02  0.12540049725E+01  0.70530115617E+01  0.16835766550E+02  0.47000000000E+01 0. -1.
         -5    1    1    2    0  502  0.14492602760E+02 -0.12540049725E+01  0.14638842846E+02  0.21165863628E+02  0.47000000000E+01 0.  1.
<mgrwt>
<rscale>  2 0.15287186E+02</rscale>
<asrwt>0</asrwt>
<pdfrwt beam="1">  1       21 0.45918065E-02 0.15287186E+02</pdfrwt>
<pdfrwt beam="2">  1       21 0.12545981E-02 0.15287186E+02</pdfrwt>
<totfact> 0.42735598E+08</totfact>
</mgrwt>
</event>
<event>
 4    1  0.4039863E+006  0.5278177E+01  0.7546771E-02  0.2520051E+00
         21   -1    0    0  503  502  0.00000000000E+00  0.00000000000E+00  0.67931730161E+00  0.67931730161E+00  0.00000000000E+00 0.  1.
         21   -1    0    0  501  503 -0.00000000000E+00 -0.00000000000E+00 -0.59102558343E+02  0.59102558343E+02  0.00000000000E+00 0. -1.
          5    1    1    2  501    0  0.19059663115E+01  0.14616573561E+01 -0.45749516514E+02  0.46052984822E+02  0.47000000000E+01 0. -1.
         -5    1    1    2    0  502 -0.19059663115E+01 -0.14616573561E+01 -0.12673724528E+02  0.13728890823E+02  0.47000000000E+01 0.  1.
<mgrwt>
<rscale>  2 0.52781768E+01</rscale>
<asrwt>0</asrwt>
<pdfrwt beam="1">  1       21 0.10451034E-03 0.52781768E+01</pdfrwt>
<pdfrwt beam="2">  1       21 0.90927021E-02 0.52781768E+01</pdfrwt>
<totfact> 0.25138051E+09</totfact>
</mgrwt>
</event>
<event>
 4    1  0.4039863E+006  0.4738845E+01  0.7546771E-02  0.2615678E+00
         21   -1    0    0  501  502  0.00000000000E+00  0.00000000000E+00  0.84278906449E+02  0.84278906449E+02  0.00000000000E+00 0.  1.
         21   -1    0    0  502  503 -0.00000000000E+00 -0.00000000000E+00 -0.26664367699E+00  0.26664367699E+00  0.00000000000E+00 0.  1.
          5    1    1    2  501    0 -0.59846643330E+00 -0.92146977109E-01  0.40885792757E+02  0.41159503186E+02  0.47000000000E+01 0.  1.
         -5    1    1    2    0  503  0.59846643330E+00  0.92146977109E-01  0.43126470015E+02  0.43386046940E+02  0.47000000000E+01 0.  1.
<mgrwt>
<rscale>  2 0.47388451E+01</rscale>
<asrwt>0</asrwt>
<pdfrwt beam="1">  1       21 0.12965964E-01 0.47388451E+01</pdfrwt>
<pdfrwt beam="2">  1       21 0.41022171E-04 0.47388451E+01</pdfrwt>
<totfact> 0.45478058E+09</totfact>
</mgrwt>
</event>
<event>
 4    1  0.4039863E+006  0.5366956E+01  0.7546771E-02  0.2505902E+00
         21   -1    0    0  501  502  0.00000000000E+00  0.00000000000E+00  0.10975168114E+02  0.10975168114E+02  0.00000000000E+00 0.  1.
         21   -1    0    0  502  503 -0.00000000000E+00 -0.00000000000E+00 -0.27746599649E+01  0.27746599649E+01  0.00000000000E+00 0. -1.
          5    1    1    2  501    0  0.17896998399E+01  0.18738175969E+01  0.56996429387E+01  0.78288024329E+01  0.47000000000E+01 0.  1.
         -5    1    1    2    0  503 -0.17896998399E+01 -0.18738175969E+01  0.25008652106E+01  0.59210256464E+01  0.47000000000E+01 0.  1.
<mgrwt>
<rscale>  2 0.53669561E+01</rscale>
<asrwt>0</asrwt>
<pdfrwt beam="1">  1       21 0.16884874E-02 0.53669561E+01</pdfrwt>
<pdfrwt beam="2">  1       21 0.42687077E-03 0.53669561E+01</pdfrwt>
<totfact> 0.44351761E+09</totfact>
</mgrwt>
</event>
<event>
 4    1  0.4039863E+006  0.5035907E+01  0.7546771E-02  0.2560823E+00
         21   -1    0    0  501  502  0.00000000000E+00  0.00000000000E+00  0.28748755338E+03  0.28748755338E+03  0.00000000000E+00 0. -1.
         21   -1    0    0  502  503 -0.00000000000E+00 -0.00000000000E+00 -0.26016071224E+00  0.26016071224E+00  0.00000000000E+00 0. -1.
          5    1    1    2  501    0 -0.16914063732E+01 -0.63992342485E+00  0.26057932882E+03  0.26062798577E+03  0.47000000000E+01 0. -1.
         -5    1    1    2    0  503  0.16914063732E+01  0.63992342485E+00  0.26648063842E+02  0.27119728318E+02  0.47000000000E+01 0. -1.
<mgrwt>
<rscale>  2 0.50359068E+01</rscale>
<asrwt>0</asrwt>
<pdfrwt beam="1">  1       21 0.44228600E-01 0.50359068E+01</pdfrwt>
<pdfrwt beam="2">  1       21 0.40024955E-04 0.50359068E+01</pdfrwt>
<totfact> 0.67907286E+08</totfact>
</mgrwt>
</event>
<event>
 4    1  0.4039863E+006  0.4729691E+01  0.7546771E-02  0.2617463E+00
         21   -1    0    0  503  502  0.00000000000E+00  0.00000000000E+00  0.18285945463E+01  0.18285945463E+01  0.00000000000E+00 0. -1.
         21   -1    0    0  501  503 -0.00000000000E+00 -0.00000000000E+00 -0.47664233636E+02  0.47664233636E+02  0.00000000000E+00 0. -1.
          5    1    1    2  501    0 -0.31777532102E+00  0.42308387430E+00 -0.44253498985E+02  0.44505529472E+02  0.47000000000E+01 0. -1.
         -5    1    1    2    0  502  0.31777532102E+00 -0.42308387430E+00 -0.15821401045E+01  0.49872987107E+01  0.47000000000E+01 0. -1.
<mgrwt>
<rscale>  2 0.47296914E+01</rscale>
<asrwt>0</asrwt>
<pdfrwt beam="1">  1       21 0.28132219E-03 0.47296914E+01</pdfrwt>
<pdfrwt beam="2">  1       21 0.73329602E-02 0.47296914E+01</pdfrwt>
<totfact> 0.82746611E+08</totfact>
</mgrwt>
</event>
<event>
 4    1  0.4039863E+006  0.1157875E+02  0.7546771E-02  0.1994903E+00
         21   -1    0    0  501  502  0.00000000000E+00  0.00000000000E+00  0.13511213801E+02  0.13511213801E+02  0.00000000000E+00 0.  1.
         21   -1    0    0  502  503 -0.00000000000E+00 -0.00000000000E+00 -0.13918414510E+02  0.13918414510E+02  0.00000000000E+00 0.  1.
          5    1    1    2  501    0 -0.90339319713E+01 -0.55104922178E+01  0.71448092240E+01  0.13605724905E+02  0.47000000000E+01 0.  1.
         -5    1    1    2    0  503  0.90339319713E+01  0.55104922178E+01 -0.75520099330E+01  0.13823903406E+02  0.47000000000E+01 0.  1.
<mgrwt>
<rscale>  2 0.11578750E+02</rscale>
<asrwt>0</asrwt>
<pdfrwt beam="1">  1       21 0.20786483E-02 0.11578750E+02</pdfrwt>
<pdfrwt beam="2">  1       21 0.21412945E-02 0.11578750E+02</pdfrwt>
<totfact> 0.56653341E+08</totfact>
</mgrwt>
</event>
<event>
 4    1  0.4039863E+006  0.6178361E+01  0.7546771E-02  0.2392772E+00
         21   -1    0    0  503  502  0.00000000000E+00  0.00000000000E+00  0.15651618963E+01  0.15651618963E+01  0.00000000000E+00 0. -1.
         21   -1    0    0  501  503 -0.00000000000E+00 -0.00000000000E+00 -0.40234593953E+02  0.40234593953E+02  0.00000000000E+00 0. -1.
          5    1    1    2  501    0  0.17932129529E+00  0.40062443839E+01 -0.32450773365E+02  0.33033692530E+02  0.47000000000E+01 0. -1.
         -5    1    1    2    0  502 -0.17932129529E+00 -0.40062443839E+01 -0.62186586916E+01  0.87660633190E+01  0.47000000000E+01 0. -1.
<mgrwt>
<rscale>  2 0.61783614E+01</rscale>
<asrwt>0</asrwt>
<pdfrwt beam="1">  1       21 0.24079411E-03 0.61783614E+01</pdfrwt>
<pdfrwt beam="2">  1       21 0.61899384E-02 0.61783614E+01</pdfrwt>
<totfact> 0.16666636E+09</totfact>
</mgrwt>
</event>
<event>
 4    1  0.4039863E+006  0.7178133E+01  0.7546771E-02  0.2283401E+00
         21   -1    0    0  503  502  0.00000000000E+00  0.00000000000E+00  0.37079130739E+00  0.37079130739E+00  0.00000000000E+00 0. -1.
         21   -1    0    0  501  503 -0.00000000000E+00 -0.00000000000E+00 -0.47063670469E+03  0.47063670469E+03  0.00000000000E+00 0.  1.
          5    1    1    2  501    0  0.43569594240E+01  0.32330323642E+01 -0.43283522187E+03  0.43289473881E+03  0.47000000000E+01 0.  1.
         -5    1    1    2    0  502 -0.43569594240E+01 -0.32330323642E+01 -0.37430691503E+02  0.38112757183E+02  0.47000000000E+01 0. -1.
<mgrwt>
<rscale>  2 0.71781330E+01</rscale>
<asrwt>0</asrwt>
<pdfrwt beam="1">  1       21 0.57044682E-04 0.71781330E+01</pdfrwt>
<pdfrwt beam="2">  1       21 0.72405818E-01 0.71781330E+01</pdfrwt>
<totfact> 0.21802663E+08</totfact>
</mgrwt>
</event>
<event>
 4    1  0.4039863E+006  0.1310453E+02  0.7546771E-02  0.1932099E+00
         21   -1    0    0  503  502  0.00000000000E+00  0.00000000000E+00  0.61720812407E+00  0.61720812407E+00  0.00000000000E+00 0.  1.
         21   -1    0    0  501  503 -0.00000000000E+00 -0.00000000000E+00 -0.37140566356E+03  0.37140566356E+03  0.00000000000E+00 0. -1.
          5    1    1    2  501    0 -0.11959810521E+02  0.25693597226E+01 -0.27855988006E+03  0.27886795344E+03  0.47000000000E+01 0. -1.
         -5    1    1    2    0  502  0.11959810521E+02 -0.25693597226E+01 -0.92228575374E+02  0.93154918241E+02  0.47000000000E+01 0.  1.
<mgrwt>
<rscale>  2 0.13104529E+02</rscale>
<asrwt>0</asrwt>
<pdfrwt beam="1">  1       21 0.94955007E-04 0.13104529E+02</pdfrwt>
<pdfrwt beam="2">  1       21 0.57139386E-01 0.13104529E+02</pdfrwt>
<totfact> 0.22703358E+08</totfact>
</mgrwt>
</event>
<event>
 4    1  0.4039863E+006  0.4927656E+01  0.7546771E-02  0.2580150E+00
         21   -1    0    0  503  502  0.00000000000E+00  0.00000000000E+00  0.30384680371E+00  0.30384680371E+00  0.00000000000E+00 0.  1.
         21   -1    0    0  501  503 -0.00000000000E+00 -0.00000000000E+00 -0.57753350073E+03  0.57753350073E+03  0.00000000000E+00 0.  1.
          5    1    1    2  501    0  0.13118702330E+01  0.68614000792E+00 -0.55680043110E+03  0.55682223542E+03  0.47000000000E+01 0.  1.
         -5    1    1    2    0  502 -0.13118702330E+01 -0.68614000792E+00 -0.20429222829E+02  0.21015112111E+02  0.47000000000E+01 0.  1.
<mgrwt>
<rscale>  2 0.49276558E+01</rscale>
<asrwt>0</asrwt>
<pdfrwt beam="1">  1       21 0.46745435E-04 0.49276558E+01</pdfrwt>
<pdfrwt beam="2">  1       21 0.88851740E-01 0.49276558E+01</pdfrwt>
<totfact> 0.15034955E+08</totfact>
</mgrwt>
</event>
<event>
 4    1  0.4039863E+006  0.7031510E+01  0.7546771E-02  0.2297829E+00
         21   -1    0    0  503  502  0.00000000000E+00  0.00000000000E+00  0.91869548677E+03  0.91869548677E+03  0.00000000000E+00 0.  1.
         21   -1    0    0  501  503 -0.00000000000E+00 -0.00000000000E+00 -0.54992306166E-01  0.54992306166E-01  0.00000000000E+00 0.  1.
          5    1    1    2  501    0  0.14667701920E+01 -0.50200317807E+01  0.39218485501E+03  0.39224788417E+03  0.47000000000E+01 0.  1.
         -5    1    1    2    0  502 -0.14667701920E+01  0.50200317807E+01  0.52645563945E+03  0.52650259490E+03  0.47000000000E+01 0.  1.
<mgrwt>
<rscale>  2 0.70315101E+01</rscale>
<asrwt>0</asrwt>
<pdfrwt beam="1">  1       21 0.14132548E+00 0.70315101E+01</pdfrwt>
<pdfrwt beam="2">  1       21 0.84610906E-05 0.70315101E+01</pdfrwt>
<totfact> 0.70933271E+08</totfact>
</mgrwt>
</event>
<event>
 4    1  0.4039863E+006  0.1810735E+02  0.7546771E-02  0.1785815E+00
         21   -1    0    0  501  502  0.00000000000E+00  0.00000000000E+00  0.24412531059E+03  0.24412531059E+03  0.00000000000E+00 0.  1.
         21   -1    0    0  502  503 -0.00000000000E+00 -0.00000000000E+00 -0.14785103496E+01  0.14785103496E+01  0.00000000000E+00 0. -1.
          5    1    1    2  501    0 -0.10696751936E+02  0.13833501990E+02  0.15849182925E+03  0.15952283917E+03  0.47000000000E+01 0.  1.
         -5    1    1    2    0  503  0.10696751936E+02 -0.13833501990E+02  0.84154970992E+02  0.86080981766E+02  0.47000000000E+01 0. -1.
<mgrwt>
<rscale>  2 0.18107354E+02</rscale>
<asrwt>0</asrwt>
<pdfrwt beam="1">  1       21 0.37557708E-01 0.18107354E+02</pdfrwt>
<pdfrwt beam="2">  1       21 0.22746332E-03 0.18107354E+02</pdfrwt>
<totfact> 0.16325001E+08</totfact>
</mgrwt>
</event>
<event>
 4    1  0.4039863E+006  0.7069732E+01  0.7546771E-02  0.2294021E+00
         21   -1    0    0  503  502  0.00000000000E+00  0.00000000000E+00  0.19576874096E+02  0.19576874096E+02  0.00000000000E+00 0. -1.
         21   -1    0    0  501  503 -0.00000000000E+00 -0.00000000000E+00 -0.15332033546E+02  0.15332033546E+02  0.00000000000E+00 0.  1.
          5    1    1    2  501    0  0.16968649022E+01  0.50011758612E+01 -0.13812658533E+02  0.15516785951E+02  0.47000000000E+01 0.  1.
         -5    1    1    2    0  502 -0.16968649022E+01 -0.50011758612E+01  0.18057499084E+02  0.19392121691E+02  0.47000000000E+01 0. -1.
<mgrwt>
<rscale>  2 0.70697320E+01</rscale>
<asrwt>0</asrwt>
<pdfrwt beam="1">  1       21 0.30118268E-02 0.70697320E+01</pdfrwt>
<pdfrwt beam="2">  1       21 0.23587744E-02 0.70697320E+01</pdfrwt>
<totfact> 0.21387906E+08</totfact>
</mgrwt>
</event>
<event>
 4    1  0.4039863E+006  0.9855353E+01  0.7546771E-02  0.2083314E+00
         21   -1    0    0  501  502  0.00000000000E+00  0.00000000000E+00  0.70101418351E+02  0.70101418351E+02  0.00000000000E+00 0. -1.
         21   -1    0    0  502  503 -0.00000000000E+00 -0.00000000000E+00 -0.14988577900E+01  0.14988577900E+01  0.00000000000E+00 0.  1.
          5    1    1    2  501    0  0.59529238826E+01 -0.62929077235E+01  0.44145074424E+02  0.45231798398E+02  0.47000000000E+01 0.  1.
         -5    1    1    2    0  503 -0.59529238826E+01  0.62929077235E+01  0.24457486137E+02  0.26368477743E+02  0.47000000000E+01 0.  1.
<mgrwt>
<rscale>  2 0.98553534E+01</rscale>
<asrwt>0</asrwt>
<pdfrwt beam="1">  1       21 0.10784831E-01 0.98553534E+01</pdfrwt>
<pdfrwt beam="2">  1       21 0.23059356E-03 0.98553534E+01</pdfrwt>
<totfact> 0.10336713E+09</totfact>
</mgrwt>
</event>
<event>
 4    1  0.4039863E+006  0.1190864E+02  0.7546771E-02  0.1980282E+00
         21   -1    0    0  503  502  0.00000000000E+00  0.00000000000E+00  0.36544316032E+03  0.36544316032E+03  0.00000000000E+00 0. -1.
         21   -1    0    0  501  503 -0.00000000000E+00 -0.00000000000E+00 -0.40393007481E+00  0.40393007481E+00  0.00000000000E+00 0.  1.
          5    1    1    2  501    0 -0.10266761141E+02  0.37840946630E+01  0.14626732456E+03  0.14675130661E+03  0.47000000000E+01 0.  1.
         -5    1    1    2    0  502  0.10266761141E+02 -0.37840946630E+01  0.21877190569E+03  0.21909578379E+03  0.47000000000E+01 0. -1.
<mgrwt>
<rscale>  2 0.11908642E+02</rscale>
<asrwt>0</asrwt>
<pdfrwt beam="1">  1       21 0.56221760E-01 0.11908642E+02</pdfrwt>
<pdfrwt beam="2">  1       21 0.62143381E-04 0.11908642E+02</pdfrwt>
<totfact> 0.40544331E+08</totfact>
</mgrwt>
</event>
<event>
 4    1  0.4039863E+006  0.4863277E+01  0.7546771E-02  0.2591995E+00
         21   -1    0    0  503  502  0.00000000000E+00  0.00000000000E+00  0.88707853988E+01  0.88707853988E+01  0.00000000000E+00 0.  1.
         21   -1    0    0  501  503 -0.00000000000E+00 -0.00000000000E+00 -0.28456473907E+01  0.28456473907E+01  0.00000000000E+00 0.  1.
          5    1    1    2  501    0  0.86829630870E+00 -0.89862116645E+00  0.44835944608E+01  0.66146865208E+01  0.47000000000E+01 0.  1.
         -5    1    1    2    0  502 -0.86829630870E+00  0.89862116645E+00  0.15415435473E+01  0.51017462686E+01  0.47000000000E+01 0.  1.
<mgrwt>
<rscale>  2 0.48632765E+01</rscale>
<asrwt>0</asrwt>
<pdfrwt beam="1">  1       21 0.13647362E-02 0.48632765E+01</pdfrwt>
<pdfrwt beam="2">  1       21 0.43779191E-03 0.48632765E+01</pdfrwt>
<totfact> 0.52168457E+09</totfact>
</mgrwt>
</event>
<event>
 4    1  0.4039863E+006  0.7543424E+01  0.7546771E-02  0.2249462E+00
         21   -1    0    0  501  502  0.00000000000E+00  0.00000000000E+00  0.45494572243E+02  0.45494572243E+02  0.00000000000E+00 0.  1.
         21   -1    0    0  502  503 -0.00000000000E+00 -0.00000000000E+00 -0.13959679941E+01  0.13959679941E+01  0.00000000000E+00 0. -1.
          5    1    1    2  501    0 -0.56179128284E+01  0.18034125250E+01  0.29610628385E+02  0.30556383206E+02  0.47000000000E+01 0.  1.
         -5    1    1    2    0  503  0.56179128284E+01 -0.18034125250E+01  0.14487975864E+02  0.16334157031E+02  0.47000000000E+01 0. -1.
<mgrwt>
<rscale>  2 0.75434237E+01</rscale>
<asrwt>0</asrwt>
<pdfrwt beam="1">  1       21 0.69991638E-02 0.75434237E+01</pdfrwt>
<pdfrwt beam="2">  1       21 0.21476434E-03 0.75434237E+01</pdfrwt>
<totfact> 0.18869901E+09</totfact>
</mgrwt>
</event>
<event>
 4    1  0.4039863E+006  0.7849387E+01  0.7546771E-02  0.2223025E+00
         21   -1    0    0  503  502  0.00000000000E+00  0.00000000000E+00  0.54206804287E+03  0.54206804287E+03  0.00000000000E+00 0.  1.
         21   -1    0    0  501  503 -0.00000000000E+00 -0.00000000000E+00 -0.25949405002E+00  0.25949405002E+00  0.00000000000E+00 0. -1.
          5    1    1    2  501    0  0.46766438400E+01  0.42014137826E+01  0.67624803320E+02  0.68078828570E+02  0.47000000000E+01 0. -1.
         -5    1    1    2    0  502 -0.46766438400E+01 -0.42014137826E+01  0.47418374550E+03  0.47424870835E+03  0.47000000000E+01 0.  1.
<mgrwt>
<rscale>  2 0.78493869E+01</rscale>
<asrwt>0</asrwt>
<pdfrwt beam="1">  1       21 0.83394177E-01 0.78493869E+01</pdfrwt>
<pdfrwt beam="2">  1       21 0.39922595E-04 0.78493869E+01</pdfrwt>
<totfact> 0.28091275E+08</totfact>
</mgrwt>
</event>
<event>
 4    1  0.4039863E+006  0.7992124E+01  0.7546771E-02  0.2211254E+00
         21   -1    0    0  501  502  0.00000000000E+00  0.00000000000E+00  0.33754825983E+00  0.33754825983E+00  0.00000000000E+00 0. -1.
         21   -1    0    0  502  503 -0.00000000000E+00 -0.00000000000E+00 -0.23624593559E+03  0.23624593559E+03  0.00000000000E+00 0.  1.
          5    1    1    2  501    0 -0.64448447731E+01 -0.49801018266E+00 -0.65182893897E+02  0.65671026298E+02  0.47000000000E+01 0. -1.
         -5    1    1    2    0  503  0.64448447731E+01  0.49801018266E+00 -0.17072549344E+03  0.17091245756E+03  0.47000000000E+01 0.  1.
<mgrwt>
<rscale>  2 0.79921235E+01</rscale>
<asrwt>0</asrwt>
<pdfrwt beam="1">  1       21 0.51930746E-04 0.79921235E+01</pdfrwt>
<pdfrwt beam="2">  1       21 0.36345357E-01 0.79921235E+01</pdfrwt>
<totfact> 0.93821186E+08</totfact>
</mgrwt>
</event>
<event>
 4    1  0.4039863E+006  0.4918313E+01  0.7546771E-02  0.2581852E+00
         21   -1    0    0  503  502  0.00000000000E+00  0.00000000000E+00  0.36297071542E+03  0.36297071542E+03  0.00000000000E+00 0.  1.
         21   -1    0    0  501  503 -0.00000000000E+00 -0.00000000000E+00 -0.14733338015E+00  0.14733338015E+00  0.00000000000E+00 0.  1.
          5    1    1    2  501    0  0.18203219611E+00  0.14375897519E+01  0.47049955604E+02  0.47306322224E+02  0.47000000000E+01 0.  1.
         -5    1    1    2    0  502 -0.18203219611E+00 -0.14375897519E+01  0.31577342644E+03  0.31581172658E+03  0.47000000000E+01 0.  1.
<mgrwt>
<rscale>  2 0.49183127E+01</rscale>
<asrwt>0</asrwt>
<pdfrwt beam="1">  1       21 0.55840933E-01 0.49183127E+01</pdfrwt>
<pdfrwt beam="2">  1       21 0.22666964E-04 0.49183127E+01</pdfrwt>
<totfact> 0.93483805E+08</totfact>
</mgrwt>
</event>
<event>
 4    1  0.4039863E+006  0.6104333E+01  0.7546771E-02  0.2402039E+00
         21   -1    0    0  501  502  0.00000000000E+00  0.00000000000E+00  0.13561906282E+00  0.13561906282E+00  0.00000000000E+00 0. -1.
         21   -1    0    0  502  503 -0.00000000000E+00 -0.00000000000E+00 -0.39110439824E+03  0.39110439824E+03  0.00000000000E+00 0.  1.
          5    1    1    2  501    0 -0.26175497453E+01  0.28846686083E+01 -0.30217767869E+03  0.30223932964E+03  0.47000000000E+01 0.  1.
         -5    1    1    2    0  503  0.26175497453E+01 -0.28846686083E+01 -0.88791100491E+02  0.89000687672E+02  0.47000000000E+01 0. -1.
<mgrwt>
<rscale>  2 0.61043329E+01</rscale>
<asrwt>0</asrwt>
<pdfrwt beam="1">  1       21 0.20864908E-04 0.61043329E+01</pdfrwt>
<pdfrwt beam="2">  1       21 0.60168647E-01 0.61043329E+01</pdfrwt>
<totfact> 0.10765855E+09</totfact>
</mgrwt>
</event>
<event>
 4    1  0.4039863E+006  0.5692113E+01  0.7546771E-02  0.2457305E+00
         21   -1    0    0  501  502  0.00000000000E+00  0.00000000000E+00  0.36857012393E-01  0.36857012393E-01  0.00000000000E+00 0.  1.
         21   -1    0    0  502  503 -0.00000000000E+00 -0.00000000000E+00 -0.91747054232E+03  0.91747054232E+03  0.00000000000E+00 0. -1.
          5    1    1    2  501    0  0.22330609918E+01 -0.23072901798E+01 -0.55256224338E+03  0.55259156070E+03  0.47000000000E+01 0.  1.
         -5    1    1    2    0  503 -0.22330609918E+01  0.23072901798E+01 -0.36487144193E+03  0.36491583863E+03  0.47000000000E+01 0.  1.
<mgrwt>
<rscale>  2 0.56921129E+01</rscale>
<asrwt>0</asrwt>
<pdfrwt beam="1">  1       21 0.56698165E-05 0.56921129E+01</pdfrwt>
<pdfrwt beam="2">  1       21 0.14116159E+00 0.56921129E+01</pdfrwt>
<totfact> 0.10668998E+09</totfact>
</mgrwt>
</event>
<event>
 4    1  0.4039863E+006  0.6160622E+01  0.7546771E-02  0.2394976E+00
         21   -1    0    0  503  502  0.00000000000E+00  0.00000000000E+00  0.88434748945E+02  0.88434748945E+02  0.00000000000E+00 0.  1.
         21   -1    0    0  501  503 -0.00000000000E+00 -0.00000000000E+00 -0.63851327792E+00  0.63851327792E+00  0.00000000000E+00 0. -1.
          5    1    1    2  501    0  0.32772137539E+01 -0.22634334398E+01  0.18396649118E+02  0.19400772141E+02  0.47000000000E+01 0. -1.
         -5    1    1    2    0  502 -0.32772137539E+01  0.22634334398E+01  0.69399586549E+02  0.69672490081E+02  0.47000000000E+01 0.  1.
<mgrwt>
<rscale>  2 0.61606218E+01</rscale>
<asrwt>0</asrwt>
<pdfrwt beam="1">  1       21 0.13605336E-01 0.61606218E+01</pdfrwt>
<pdfrwt beam="2">  1       21 0.98232882E-04 0.61606218E+01</pdfrwt>
<totfact> 0.16790631E+09</totfact>
</mgrwt>
</event>
<event>
 4    1  0.4039863E+006  0.5156048E+01  0.7546771E-02  0.2540194E+00
         21   -1    0    0  501  502  0.00000000000E+00  0.00000000000E+00  0.19256552543E+00  0.19256552543E+00  0.00000000000E+00 0. -1.
         21   -1    0    0  502  503 -0.00000000000E+00 -0.00000000000E+00 -0.17996914879E+03  0.17996914879E+03  0.00000000000E+00 0. -1.
          5    1    1    2  501    0  0.18434135023E+01 -0.10472165630E+01 -0.46416417605E+02  0.46701912800E+02  0.47000000000E+01 0. -1.
         -5    1    1    2    0  503 -0.18434135023E+01  0.10472165630E+01 -0.13336016566E+03  0.13345980152E+03  0.47000000000E+01 0. -1.
<mgrwt>
<rscale>  2 0.51560485E+01</rscale>
<asrwt>0</asrwt>
<pdfrwt beam="1">  1       21 0.29625341E-04 0.51560485E+01</pdfrwt>
<pdfrwt beam="2">  1       21 0.27687677E-01 0.51560485E+01</pdfrwt>
<totfact> 0.22833825E+09</totfact>
</mgrwt>
</event>
<event>
 4    1  0.4039863E+006  0.1010166E+02  0.7546771E-02  0.2069248E+00
         21   -1    0    0  501  502  0.00000000000E+00  0.00000000000E+00  0.18761932673E+02  0.18761932673E+02  0.00000000000E+00 0. -1.
         21   -1    0    0  502  503 -0.00000000000E+00 -0.00000000000E+00 -0.31664921855E+02  0.31664921855E+02  0.00000000000E+00 0.  1.
          5    1    1    2  501    0 -0.57475965512E+00  0.89231846916E+01  0.16494621805E+02  0.19342081641E+02  0.47000000000E+01 0. -1.
         -5    1    1    2    0  503  0.57475965512E+00 -0.89231846916E+01 -0.29397610987E+02  0.31084772888E+02  0.47000000000E+01 0.  1.
<mgrwt>
<rscale>  2 0.10101662E+02</rscale>
<asrwt>0</asrwt>
<pdfrwt beam="1">  1       21 0.28864512E-02 0.10101662E+02</pdfrwt>
<pdfrwt beam="2">  1       21 0.48715264E-02 0.10101662E+02</pdfrwt>
<totfact> 0.93697141E+07</totfact>
</mgrwt>
</event>
<event>
 4    1  0.4039863E+006  0.4900139E+01  0.7546771E-02  0.2585180E+00
         21   -1    0    0  501  502  0.00000000000E+00  0.00000000000E+00  0.80963458427E+01  0.80963458427E+01  0.00000000000E+00 0. -1.
         21   -1    0    0  502  503 -0.00000000000E+00 -0.00000000000E+00 -0.23835600198E+02  0.23835600198E+02  0.00000000000E+00 0. -1.
          5    1    1    2  501    0 -0.13441261982E+01  0.33865394478E+00  0.70700940584E+01  0.86021852878E+01  0.47000000000E+01 0. -1.
         -5    1    1    2    0  503  0.13441261982E+01 -0.33865394478E+00 -0.22809348413E+02  0.23329760753E+02  0.47000000000E+01 0. -1.
<mgrwt>
<rscale>  2 0.49001390E+01</rscale>
<asrwt>0</asrwt>
<pdfrwt beam="1">  1       21 0.12455917E-02 0.49001390E+01</pdfrwt>
<pdfrwt beam="2">  1       21 0.36670154E-02 0.49001390E+01</pdfrwt>
<totfact> 0.30390634E+08</totfact>
</mgrwt>
</event>
<event>
 4    1  0.4039863E+006  0.9956502E+01  0.7546771E-02  0.2077472E+00
         21   -1    0    0  503  502  0.00000000000E+00  0.00000000000E+00  0.74581816838E+02  0.74581816838E+02  0.00000000000E+00 0.  1.
         21   -1    0    0  501  503 -0.00000000000E+00 -0.00000000000E+00 -0.32547566135E+01  0.32547566135E+01  0.00000000000E+00 0.  1.
          5    1    1    2  501    0 -0.73234323495E+01  0.48383119635E+01  0.57287572353E+01  0.11486974514E+02  0.47000000000E+01 0.  1.
         -5    1    1    2    0  502  0.73234323495E+01 -0.48383119635E+01  0.65598302990E+02  0.66349598938E+02  0.47000000000E+01 0.  1.
<mgrwt>
<rscale>  2 0.99565016E+01</rscale>
<asrwt>0</asrwt>
<pdfrwt beam="1">  1       21 0.11474124E-01 0.99565016E+01</pdfrwt>
<pdfrwt beam="2">  1       21 0.50073184E-03 0.99565016E+01</pdfrwt>
<totfact> 0.31452277E+08</totfact>
</mgrwt>
</event>
<event>
 4    1  0.4039863E+006  0.5610499E+01  0.7546771E-02  0.2469053E+00
         21   -1    0    0  501  502  0.00000000000E+00  0.00000000000E+00  0.91836529844E+02  0.91836529844E+02  0.00000000000E+00 0.  1.
         21   -1    0    0  502  503 -0.00000000000E+00 -0.00000000000E+00 -0.58588815234E+00  0.58588815234E+00  0.00000000000E+00 0.  1.
          5    1    1    2  501    0 -0.24637188649E+01  0.18214812284E+01  0.75393988098E+02  0.75602454629E+02  0.47000000000E+01 0.  1.
         -5    1    1    2    0  503  0.24637188649E+01 -0.18214812284E+01  0.15856653593E+02  0.16819963368E+02  0.47000000000E+01 0.  1.
<mgrwt>
<rscale>  2 0.56104995E+01</rscale>
<asrwt>0</asrwt>
<pdfrwt beam="1">  1       21 0.14128685E-01 0.56104995E+01</pdfrwt>
<pdfrwt beam="2">  1       21 0.90136712E-04 0.56104995E+01</pdfrwt>
<totfact> 0.16444154E+09</totfact>
</mgrwt>
</event>
<event>
 4    1  0.4039863E+006  0.5327752E+01  0.7546771E-02  0.2512101E+00
         21   -1    0    0  501  502  0.00000000000E+00  0.00000000000E+00  0.17184861500E-01  0.17184861500E-01  0.00000000000E+00 0.  1.
         21   -1    0    0  502  503 -0.00000000000E+00 -0.00000000000E+00 -0.17940207887E+04  0.17940207887E+04  0.00000000000E+00 0.  1.
          5    1    1    2  501    0  0.31259750380E+00  0.24894229161E+01 -0.64438675851E+03  0.64440878290E+03  0.47000000000E+01 0.  1.
         -5    1    1    2    0  503 -0.31259750380E+00 -0.24894229161E+01 -0.11496168453E+04  0.11496291906E+04  0.47000000000E+01 0.  1.
<mgrwt>
<rscale>  2 0.53277522E+01</rscale>
<asrwt>0</asrwt>
<pdfrwt beam="1">  1       21 0.26432568E-05 0.53277522E+01</pdfrwt>
<pdfrwt beam="2">  1       21 0.27606252E+00 0.53277522E+01</pdfrwt>
<totfact> 0.65433447E+08</totfact>
</mgrwt>
</event>
<event>
 4    1  0.4039863E+006  0.4962801E+01  0.7546771E-02  0.2573795E+00
         21   -1    0    0  503  502  0.00000000000E+00  0.00000000000E+00  0.69923561503E+00  0.69923561503E+00  0.00000000000E+00 0. -1.
         21   -1    0    0  501  503 -0.00000000000E+00 -0.00000000000E+00 -0.37821132387E+02  0.37821132387E+02  0.00000000000E+00 0. -1.
          5    1    1    2  501    0  0.12306282827E+01 -0.10123992696E+01 -0.23608691529E+02  0.24124670236E+02  0.47000000000E+01 0.  1.
         -5    1    1    2    0  502 -0.12306282827E+01  0.10123992696E+01 -0.13513205242E+02  0.14395697766E+02  0.47000000000E+01 0.  1.
<mgrwt>
<rscale>  2 0.49628015E+01</rscale>
<asrwt>0</asrwt>
<pdfrwt beam="1">  1       21 0.10757471E-03 0.49628015E+01</pdfrwt>
<pdfrwt beam="2">  1       21 0.58186359E-02 0.49628015E+01</pdfrwt>
<totfact> 0.44243771E+09</totfact>
</mgrwt>
</event>
<event>
 4    1  0.4039863E+006  0.7434733E+01  0.7546771E-02  0.2259277E+00
         21   -1    0    0  501  502  0.00000000000E+00  0.00000000000E+00  0.83518522068E+01  0.83518522068E+01  0.00000000000E+00 0.  1.
         21   -1    0    0  502  503 -0.00000000000E+00 -0.00000000000E+00 -0.68234941296E+01  0.68234941296E+01  0.00000000000E+00 0. -1.
          5    1    1    2  501    0  0.10844260229E+00 -0.57596433866E+01  0.20799000578E+01  0.77201836758E+01  0.47000000000E+01 0.  1.
         -5    1    1    2    0  503 -0.10844260229E+00  0.57596433866E+01 -0.55154198063E+00  0.74551626605E+01  0.47000000000E+01 0. -1.
<mgrwt>
<rscale>  2 0.74347328E+01</rscale>
<asrwt>0</asrwt>
<pdfrwt beam="1">  1       21 0.12849003E-02 0.74347328E+01</pdfrwt>
<pdfrwt beam="2">  1       21 0.10497683E-02 0.74347328E+01</pdfrwt>
<totfact> 0.24592106E+09</totfact>
</mgrwt>
</event>
<event>
 4    1  0.4039863E+006  0.5621019E+01  0.7546771E-02  0.2467523E+00
         21   -1    0    0  503  502  0.00000000000E+00  0.00000000000E+00  0.79559365492E+01  0.79559365492E+01  0.00000000000E+00 0. -1.
         21   -1    0    0  501  503 -0.00000000000E+00 -0.00000000000E+00 -0.39793309417E+01  0.39793309417E+01  0.00000000000E+00 0. -1.
          5    1    1    2  501    0 -0.29076502884E+01 -0.10253893118E+01  0.22554624437E+01  0.60566462894E+01  0.47000000000E+01 0. -1.
         -5    1    1    2    0  502  0.29076502884E+01  0.10253893118E+01  0.17211431638E+01  0.58786212015E+01  0.47000000000E+01 0. -1.
<mgrwt>
<rscale>  2 0.56210189E+01</rscale>
<asrwt>0</asrwt>
<pdfrwt beam="1">  1       21 0.12239902E-02 0.56210189E+01</pdfrwt>
<pdfrwt beam="2">  1       21 0.61220476E-03 0.56210189E+01</pdfrwt>
<totfact> 0.44426767E+09</totfact>
</mgrwt>
</event>
<event>
 4    1  0.4039863E+006  0.8956212E+01  0.7546771E-02  0.2139761E+00
         21   -1    0    0  501  502  0.00000000000E+00  0.00000000000E+00  0.56054516033E+00  0.56054516033E+00  0.00000000000E+00 0.  1.
         21   -1    0    0  502  503 -0.00000000000E+00 -0.00000000000E+00 -0.15690137459E+03  0.15690137459E+03  0.00000000000E+00 0. -1.
          5    1    1    2  501    0 -0.51478025367E+01 -0.56235097967E+01 -0.54819646318E+02  0.55546443233E+02  0.47000000000E+01 0.  1.
         -5    1    1    2    0  503  0.51478025367E+01  0.56235097967E+01 -0.10152118311E+03  0.10191547652E+03  0.47000000000E+01 0. -1.
<mgrwt>
<rscale>  2 0.89562120E+01</rscale>
<asrwt>0</asrwt>
<pdfrwt beam="1">  1       21 0.86237570E-04 0.89562120E+01</pdfrwt>
<pdfrwt beam="2">  1       21 0.24138714E-01 0.89562120E+01</pdfrwt>
<totfact> 0.10192025E+09</totfact>
</mgrwt>
</event>
<event>
 4    1  0.4039863E+006  0.5567820E+01  0.7546771E-02  0.2475313E+00
         21   -1    0    0  501  502  0.00000000000E+00  0.00000000000E+00  0.37374380127E+02  0.37374380127E+02  0.00000000000E+00 0.  1.
         21   -1    0    0  502  503 -0.00000000000E+00 -0.00000000000E+00 -0.82997845658E+00  0.82997845658E+00  0.00000000000E+00 0.  1.
          5    1    1    2  501    0  0.20211117616E+01  0.21967526831E+01  0.18748864946E+02  0.19558132627E+02  0.47000000000E+01 0.  1.
         -5    1    1    2    0  503 -0.20211117616E+01 -0.21967526831E+01  0.17795536725E+02  0.18646225957E+02  0.47000000000E+01 0.  1.
<mgrwt>
<rscale>  2 0.55678196E+01</rscale>
<asrwt>0</asrwt>
<pdfrwt beam="1">  1       21 0.57499033E-02 0.55678196E+01</pdfrwt>
<pdfrwt beam="2">  1       21 0.12768902E-03 0.55678196E+01</pdfrwt>
<totfact> 0.40140190E+09</totfact>
</mgrwt>
</event>
<event>
 4    1  0.4039863E+006  0.6430859E+01  0.7546771E-02  0.2362507E+00
         21   -1    0    0  503  502  0.00000000000E+00  0.00000000000E+00  0.35501516603E-01  0.35501516603E-01  0.00000000000E+00 0. -1.
         21   -1    0    0  501  503 -0.00000000000E+00 -0.00000000000E+00 -0.12484683842E+04  0.12484683842E+04  0.00000000000E+00 0. -1.
          5    1    1    2  501    0  0.15838517136E+01 -0.40935748360E+01 -0.78571762091E+03  0.78574393777E+03  0.47000000000E+01 0.  1.
         -5    1    1    2    0  502 -0.15838517136E+01  0.40935748360E+01 -0.46271526178E+03  0.46275994795E+03  0.47000000000E+01 0.  1.
<mgrwt>
<rscale>  2 0.64308585E+01</rscale>
<asrwt>0</asrwt>
<pdfrwt beam="1">  1       21 0.54614595E-05 0.64308585E+01</pdfrwt>
<pdfrwt beam="2">  1       21 0.19208304E+00 0.64308585E+01</pdfrwt>
<totfact> 0.61830700E+08</totfact>
</mgrwt>
</event>
<event>
 4    1  0.4039863E+006  0.4980651E+01  0.7546771E-02  0.2570598E+00
         21   -1    0    0  501  502  0.00000000000E+00  0.00000000000E+00  0.32155821774E+03  0.32155821774E+03  0.00000000000E+00 0. -1.
         21   -1    0    0  502  503 -0.00000000000E+00 -0.00000000000E+00 -0.77560010907E-01  0.77560010907E-01  0.00000000000E+00 0. -1.
          5    1    1    2  501    0 -0.13242357859E+01  0.98147210740E+00  0.14898890784E+03  0.14907213538E+03  0.47000000000E+01 0. -1.
         -5    1    1    2    0  503  0.13242357859E+01 -0.98147210740E+00  0.17249174990E+03  0.17256364238E+03  0.47000000000E+01 0. -1.
<mgrwt>
<rscale>  2 0.49806514E+01</rscale>
<asrwt>0</asrwt>
<pdfrwt beam="1">  1       21 0.49469428E-01 0.49806514E+01</pdfrwt>
<pdfrwt beam="2">  1       21 0.11932567E-04 0.49806514E+01</pdfrwt>
<totfact> 0.27424789E+09</totfact>
</mgrwt>
</event>
<event>
 4    1  0.4039863E+006  0.1166759E+02  0.7546771E-02  0.1990903E+00
         21   -1    0    0  503  502  0.00000000000E+00  0.00000000000E+00  0.89475714876E+00  0.89475714876E+00  0.00000000000E+00 0. -1.
         21   -1    0    0  501  503 -0.00000000000E+00 -0.00000000000E+00 -0.56378451664E+03  0.56378451664E+03  0.00000000000E+00 0.  1.
          5    1    1    2  501    0 -0.42192394634E+01  0.98102315712E+01 -0.40191210094E+02  0.41850519638E+02  0.47000000000E+01 0. -1.
         -5    1    1    2    0  502  0.42192394634E+01 -0.98102315712E+01 -0.52269854940E+03  0.52282875415E+03  0.47000000000E+01 0.  1.
<mgrwt>
<rscale>  2 0.11667589E+02</rscale>
<asrwt>0</asrwt>
<pdfrwt beam="1">  1       21 0.13765493E-03 0.11667589E+02</pdfrwt>
<pdfrwt beam="2">  1       21 0.86736088E-01 0.11667589E+02</pdfrwt>
<totfact> 0.56436978E+07</totfact>
</mgrwt>
</event>
<event>
 4    1  0.4039863E+006  0.1794509E+02  0.7546771E-02  0.1789577E+00
         21   -1    0    0  503  502  0.00000000000E+00  0.00000000000E+00  0.52674920408E+01  0.52674920408E+01  0.00000000000E+00 0. -1.
         21   -1    0    0  501  503 -0.00000000000E+00 -0.00000000000E+00 -0.14449599294E+03  0.14449599294E+03  0.00000000000E+00 0.  1.
          5    1    1    2  501    0 -0.14052851957E+02  0.10121932255E+02 -0.12649043456E+03  0.12775702014E+03  0.47000000000E+01 0.  1.
         -5    1    1    2    0  502  0.14052851957E+02 -0.10121932255E+02 -0.12738066346E+02  0.22006464844E+02  0.47000000000E+01 0. -1.
<mgrwt>
<rscale>  2 0.17945087E+02</rscale>
<asrwt>0</asrwt>
<pdfrwt beam="1">  1       21 0.81038353E-03 0.17945087E+02</pdfrwt>
<pdfrwt beam="2">  1       21 0.22230149E-01 0.17945087E+02</pdfrwt>
<totfact> 0.65443172E+07</totfact>
</mgrwt>
</event>
<event>
 4    1  0.4039863E+006  0.6277976E+01  0.7546771E-02  0.2380590E+00
         21   -1    0    0  503  502  0.00000000000E+00  0.00000000000E+00  0.22523205248E+03  0.22523205248E+03  0.00000000000E+00 0.  1.
         21   -1    0    0  501  503 -0.00000000000E+00 -0.00000000000E+00 -0.34654278236E+00  0.34654278236E+00  0.00000000000E+00 0.  1.
          5    1    1    2  501    0 -0.26103508629E+01 -0.32417664061E+01  0.33084801601E+02  0.33675170052E+02  0.47000000000E+01 0.  1.
         -5    1    1    2    0  502  0.26103508629E+01  0.32417664061E+01  0.19180070810E+03  0.19190342521E+03  0.47000000000E+01 0.  1.
<mgrwt>
<rscale>  2 0.62779759E+01</rscale>
<asrwt>0</asrwt>
<pdfrwt beam="1">  1       21 0.34650968E-01 0.62779759E+01</pdfrwt>
<pdfrwt beam="2">  1       21 0.53314454E-04 0.62779759E+01</pdfrwt>
<totfact> 0.83819405E+08</totfact>
</mgrwt>
</event>
<event>
 4    1  0.4039863E+006  0.5321191E+01  0.7546771E-02  0.2513146E+00
         21   -1    0    0  501  502  0.00000000000E+00  0.00000000000E+00  0.47284185379E+01  0.47284185379E+01  0.00000000000E+00 0. -1.
         21   -1    0    0  502  503 -0.00000000000E+00 -0.00000000000E+00 -0.33166983472E+02  0.33166983472E+02  0.00000000000E+00 0.  1.
          5    1    1    2  501    0 -0.12983418299E+01  0.21305827387E+01  0.29328426887E+01  0.60759065620E+01  0.47000000000E+01 0. -1.
         -5    1    1    2    0  503  0.12983418299E+01 -0.21305827387E+01 -0.31371407623E+02  0.31819495448E+02  0.47000000000E+01 0.  1.
<mgrwt>
<rscale>  2 0.53211911E+01</rscale>
<asrwt>0</asrwt>
<pdfrwt beam="1">  1       21 0.72744901E-03 0.53211911E+01</pdfrwt>
<pdfrwt beam="2">  1       21 0.51026128E-02 0.53211911E+01</pdfrwt>
<totfact> 0.42722871E+08</totfact>
</mgrwt>
</event>
<event>
 4    1  0.4039863E+006  0.5441582E+01  0.7546771E-02  0.2494314E+00
         21   -1    0    0  503  502  0.00000000000E+00  0.00000000000E+00  0.20542742149E+02  0.20542742149E+02  0.00000000000E+00 0. -1.
         21   -1    0    0  501  503 -0.00000000000E+00 -0.00000000000E+00 -0.15462282560E+01  0.15462282560E+01  0.00000000000E+00 0. -1.
          5    1    1    2  501    0  0.34658218888E+00  0.27204218010E+01  0.12373647759E+02  0.13517321216E+02  0.47000000000E+01 0. -1.
         -5    1    1    2    0  502 -0.34658218888E+00 -0.27204218010E+01  0.66228661332E+01  0.85716491883E+01  0.47000000000E+01 0. -1.
<mgrwt>
<rscale>  2 0.54415819E+01</rscale>
<asrwt>0</asrwt>
<pdfrwt beam="1">  1       21 0.31604217E-02 0.54415819E+01</pdfrwt>
<pdfrwt beam="2">  1       21 0.23788128E-03 0.54415819E+01</pdfrwt>
<totfact> 0.40735710E+09</totfact>
</mgrwt>
</event>
<event>
 4    1  0.4039863E+006  0.1825746E+02  0.7546771E-02  0.1782380E+00
         21   -1    0    0  501  502  0.00000000000E+00  0.00000000000E+00  0.11654099209E+03  0.11654099209E+03  0.00000000000E+00 0. -1.
         21   -1    0    0  502  503 -0.00000000000E+00 -0.00000000000E+00 -0.40384349939E+01  0.40384349939E+01  0.00000000000E+00 0.  1.
          5    1    1    2  501    0  0.17545398174E+02  0.18449092784E+01  0.88815903505E+02  0.90673035699E+02  0.47000000000E+01 0. -1.
         -5    1    1    2    0  503 -0.17545398174E+02 -0.18449092784E+01  0.23686653587E+02  0.29906391382E+02  0.47000000000E+01 0.  1.
<mgrwt>
<rscale>  2 0.18257456E+02</rscale>
<asrwt>0</asrwt>
<pdfrwt beam="1">  1       21 0.17929381E-01 0.18257456E+02</pdfrwt>
<pdfrwt beam="2">  1       21 0.62129778E-03 0.18257456E+02</pdfrwt>
<totfact> 0.14111843E+08</totfact>
</mgrwt>
</event>
<event>
 4    1  0.4039863E+006  0.5541777E+01  0.7546771E-02  0.2479173E+00
         21   -1    0    0  501  502  0.00000000000E+00  0.00000000000E+00  0.13974488122E+00  0.13974488122E+00  0.00000000000E+00 0. -1.
         21   -1    0    0  502  503 -0.00000000000E+00 -0.00000000000E+00 -0.27510130542E+03  0.27510130542E+03  0.00000000000E+00 0. -1.
          5    1    1    2  501    0  0.14713719628E+01 -0.25409359233E+01 -0.75759525264E+02  0.75961944150E+02  0.47000000000E+01 0. -1.
         -5    1    1    2    0  503 -0.14713719628E+01  0.25409359233E+01 -0.19920203527E+03  0.19927910615E+03  0.47000000000E+01 0. -1.
<mgrwt>
<rscale>  2 0.55417769E+01</rscale>
<asrwt>0</asrwt>
<pdfrwt beam="1">  1       21 0.21499194E-04 0.55417769E+01</pdfrwt>
<pdfrwt beam="2">  1       21 0.42323314E-01 0.55417769E+01</pdfrwt>
<totfact> 0.18106472E+09</totfact>
</mgrwt>
</event>
<event>
 4    1  0.4039863E+006  0.6715063E+01  0.7546771E-02  0.2330715E+00
         21   -1    0    0  503  502  0.00000000000E+00  0.00000000000E+00  0.21418824161E+01  0.21418824161E+01  0.00000000000E+00 0. -1.
         21   -1    0    0  501  503 -0.00000000000E+00 -0.00000000000E+00 -0.28137061031E+02  0.28137061031E+02  0.00000000000E+00 0.  1.
          5    1    1    2  501    0  0.43591071729E+01 -0.20000643756E+01 -0.20594315839E+02  0.21661438497E+02  0.47000000000E+01 0.  1.
         -5    1    1    2    0  502 -0.43591071729E+01  0.20000643756E+01 -0.54008627755E+01  0.86175049505E+01  0.47000000000E+01 0. -1.
<mgrwt>
<rscale>  2 0.67150631E+01</rscale>
<asrwt>0</asrwt>
<pdfrwt beam="1">  1       21 0.32952037E-03 0.67150631E+01</pdfrwt>
<pdfrwt beam="2">  1       21 0.43287786E-02 0.67150631E+01</pdfrwt>
<totfact> 0.19728791E+09</totfact>
</mgrwt>
</event>
<event>
 4    1  0.4039863E+006  0.1261437E+02  0.7546771E-02  0.1951000E+00
         21   -1    0    0  503  502  0.00000000000E+00  0.00000000000E+00  0.30533937718E+02  0.30533937718E+02  0.00000000000E+00 0. -1.
         21   -1    0    0  501  503 -0.00000000000E+00 -0.00000000000E+00 -0.10154619767E+02  0.10154619767E+02  0.00000000000E+00 0.  1.
          5    1    1    2  501    0 -0.55462126137E+01 -0.10308819364E+02 -0.40047978731E+01  0.13234826672E+02  0.47000000000E+01 0.  1.
         -5    1    1    2    0  502  0.55462126137E+01  0.10308819364E+02  0.24384115824E+02  0.27453730813E+02  0.47000000000E+01 0. -1.
<mgrwt>
<rscale>  2 0.12614366E+02</rscale>
<asrwt>0</asrwt>
<pdfrwt beam="1">  1       21 0.46975288E-02 0.12614366E+02</pdfrwt>
<pdfrwt beam="2">  1       21 0.15622492E-02 0.12614366E+02</pdfrwt>
<totfact> 0.27383880E+08</totfact>
</mgrwt>
</event>
<event>
 4    1  0.4039863E+006  0.7040191E+01  0.7546771E-02  0.2296961E+00
         21   -1    0    0  501  502  0.00000000000E+00  0.00000000000E+00  0.37239425606E+00  0.37239425606E+00  0.00000000000E+00 0. -1.
         21   -1    0    0  502  503 -0.00000000000E+00 -0.00000000000E+00 -0.82857178389E+03  0.82857178389E+03  0.00000000000E+00 0.  1.
          5    1    1    2  501    0  0.52022987155E+01  0.64060621495E+00 -0.34372989879E+02  0.35086560411E+02  0.47000000000E+01 0. -1.
         -5    1    1    2    0  503 -0.52022987155E+01 -0.64060621495E+00 -0.79382639975E+03  0.79385761773E+03  0.47000000000E+01 0.  1.
<mgrwt>
<rscale>  2 0.70401909E+01</rscale>
<asrwt>0</asrwt>
<pdfrwt beam="1">  1       21 0.57291545E-04 0.70401909E+01</pdfrwt>
<pdfrwt beam="2">  1       21 0.12747231E+00 0.70401909E+01</pdfrwt>
<totfact> 0.67956506E+07</totfact>
</mgrwt>
</event>
<event>
 4    1  0.4039863E+006  0.5799406E+01  0.7546771E-02  0.2442286E+00
         21   -1    0    0  501  502  0.00000000000E+00  0.00000000000E+00  0.78697938090E+02  0.78697938090E+02  0.00000000000E+00 0. -1.
         21   -1    0    0  502  503 -0.00000000000E+00 -0.00000000000E+00 -0.44896639935E+00  0.44896639935E+00  0.00000000000E+00 0. -1.
          5    1    1    2  501    0 -0.33928917377E+01  0.17718889201E+00  0.47803916019E+02  0.48154413058E+02  0.47000000000E+01 0. -1.
         -5    1    1    2    0  503  0.33928917377E+01 -0.17718889201E+00  0.30445055672E+02  0.30992491431E+02  0.47000000000E+01 0. -1.
<mgrwt>
<rscale>  2 0.57994060E+01</rscale>
<asrwt>0</asrwt>
<pdfrwt beam="1">  1       21 0.12107364E-01 0.57994060E+01</pdfrwt>
<pdfrwt beam="2">  1       21 0.69071816E-04 0.57994060E+01</pdfrwt>
<totfact> 0.30704900E+09</totfact>
</mgrwt>
</event>
<event>
 4    1  0.4039863E+006  0.7031195E+01  0.7546771E-02  0.2297860E+00
         21   -1    0    0  503  502  0.00000000000E+00  0.00000000000E+00  0.18747067133E+03  0.18747067133E+03  0.00000000000E+00 0. -1.
         21   -1    0    0  501  503 -0.00000000000E+00 -0.00000000000E+00 -0.30939874474E+00  0.30939874474E+00  0.00000000000E+00 0.  1.
          5    1    1    2  501    0  0.51257153208E+01 -0.10367015122E+01  0.57500390783E+02  0.57928685880E+02  0.47000000000E+01 0.  1.
         -5    1    1    2    0  502 -0.51257153208E+01  0.10367015122E+01  0.12966088181E+03  0.12985138420E+03  0.47000000000E+01 0. -1.
<mgrwt>
<rscale>  2 0.70311953E+01</rscale>
<asrwt>0</asrwt>
<pdfrwt beam="1">  1       21 0.28841551E-01 0.70311953E+01</pdfrwt>
<pdfrwt beam="2">  1       21 0.47599957E-04 0.70311953E+01</pdfrwt>
<totfact> 0.14466046E+09</totfact>
</mgrwt>
</event>
<event>
 4    1  0.4039863E+006  0.6860180E+01  0.7546771E-02  0.2315325E+00
         21   -1    0    0  501  502  0.00000000000E+00  0.00000000000E+00  0.24704945556E+00  0.24704945556E+00  0.00000000000E+00 0. -1.
         21   -1    0    0  502  503 -0.00000000000E+00 -0.00000000000E+00 -0.97838694235E+03  0.97838694235E+03  0.00000000000E+00 0.  1.
          5    1    1    2  501    0 -0.10658736463E+01 -0.48822103929E+01 -0.49965450708E+02  0.50434198015E+02  0.47000000000E+01 0. -1.
         -5    1    1    2    0  503  0.10658736463E+01  0.48822103929E+01 -0.92817444219E+03  0.92819979380E+03  0.47000000000E+01 0.  1.
<mgrwt>
<rscale>  2 0.68601797E+01</rscale>
<asrwt>0</asrwt>
<pdfrwt beam="1">  1       21 0.38008331E-04 0.68601797E+01</pdfrwt>
<pdfrwt beam="2">  1       21 0.15051821E+00 0.68601797E+01</pdfrwt>
<totfact> 0.81506774E+07</totfact>
</mgrwt>
</event>
<event>
 4    1  0.4039863E+006  0.5725774E+01  0.7546771E-02  0.2452542E+00
         21   -1    0    0  501  502  0.00000000000E+00  0.00000000000E+00  0.60580095587E+02  0.60580095587E+02  0.00000000000E+00 0. -1.
         21   -1    0    0  502  503 -0.00000000000E+00 -0.00000000000E+00 -0.34744552851E+01  0.34744552851E+01  0.00000000000E+00 0.  1.
          5    1    1    2  501    0  0.30517406792E+01 -0.11753151986E+01  0.57980318722E+02  0.58262353592E+02  0.47000000000E+01 0. -1.
         -5    1    1    2    0  503 -0.30517406792E+01  0.11753151986E+01 -0.87467842027E+00  0.57921972798E+01  0.47000000000E+01 0.  1.
<mgrwt>
<rscale>  2 0.57257739E+01</rscale>
<asrwt>0</asrwt>
<pdfrwt beam="1">  1       21 0.93200139E-02 0.57257739E+01</pdfrwt>
<pdfrwt beam="2">  1       21 0.53453163E-03 0.57257739E+01</pdfrwt>
<totfact> 0.28198316E+08</totfact>
</mgrwt>
</event>
<event>
 4    1  0.4039863E+006  0.1127786E+02  0.7546771E-02  0.2008812E+00
         21   -1    0    0  503  502  0.00000000000E+00  0.00000000000E+00  0.53490155281E+02  0.53490155281E+02  0.00000000000E+00 0.  1.
         21   -1    0    0  501  503 -0.00000000000E+00 -0.00000000000E+00 -0.34410016850E+01  0.34410016850E+01  0.00000000000E+00 0.  1.
          5    1    1    2  501    0  0.10198451501E+02  0.10448639491E+01  0.92018773381E+01  0.14555572824E+02  0.47000000000E+01 0.  1.
         -5    1    1    2    0  502 -0.10198451501E+02 -0.10448639491E+01  0.40847276258E+02  0.42375584142E+02  0.47000000000E+01 0.  1.
<mgrwt>
<rscale>  2 0.11277861E+02</rscale>
<asrwt>0</asrwt>
<pdfrwt beam="1">  1       21 0.82292541E-02 0.11277861E+02</pdfrwt>
<pdfrwt beam="2">  1       21 0.52938491E-03 0.11277861E+02</pdfrwt>
<totfact> 0.52511017E+08</totfact>
</mgrwt>
</event>
<event>
 4    1  0.4039863E+006  0.7654401E+01  0.7546771E-02  0.2239675E+00
         21   -1    0    0  503  502  0.00000000000E+00  0.00000000000E+00  0.11854609869E+01  0.11854609869E+01  0.00000000000E+00 0. -1.
         21   -1    0    0  501  503 -0.00000000000E+00 -0.00000000000E+00 -0.63194130986E+02  0.63194130986E+02  0.00000000000E+00 0. -1.
          5    1    1    2  501    0 -0.56933402757E+01  0.20213210239E+01 -0.46030691820E+02  0.46662773724E+02  0.47000000000E+01 0. -1.
         -5    1    1    2    0  502  0.56933402757E+01 -0.20213210239E+01 -0.15977978179E+02  0.17716818249E+02  0.47000000000E+01 0. -1.
<mgrwt>
<rscale>  2 0.76544015E+01</rscale>
<asrwt>0</asrwt>
<pdfrwt beam="1">  1       21 0.18237859E-03 0.76544015E+01</pdfrwt>
<pdfrwt beam="2">  1       21 0.97221751E-02 0.76544015E+01</pdfrwt>
<totfact> 0.14382058E+09</totfact>
</mgrwt>
</event>
<event>
 4    1  0.4039863E+006  0.6371667E+01  0.7546771E-02  0.2369423E+00
         21   -1    0    0  501  502  0.00000000000E+00  0.00000000000E+00  0.14208991936E+02  0.14208991936E+02  0.00000000000E+00 0. -1.
         21   -1    0    0  502  503 -0.00000000000E+00 -0.00000000000E+00 -0.34161428011E+01  0.34161428011E+01  0.00000000000E+00 0. -1.
          5    1    1    2  501    0 -0.57416985262E+00 -0.42636216915E+01  0.89610377225E+01  0.10995378030E+02  0.47000000000E+01 0. -1.
         -5    1    1    2    0  503  0.57416985262E+00  0.42636216915E+01  0.18318114121E+01  0.66297567072E+01  0.47000000000E+01 0. -1.
<mgrwt>
<rscale>  2 0.63716670E+01</rscale>
<asrwt>0</asrwt>
<pdfrwt beam="1">  1       21 0.21859987E-02 0.63716670E+01</pdfrwt>
<pdfrwt beam="2">  1       21 0.52556044E-03 0.63716670E+01</pdfrwt>
<totfact> 0.26860120E+09</totfact>
</mgrwt>
</event>
<event>
 4    1  0.4039863E+006  0.6349476E+01  0.7546771E-02  0.2372043E+00
         21   -1    0    0  501  502  0.00000000000E+00  0.00000000000E+00  0.41202594015E+00  0.41202594015E+00  0.00000000000E+00 0. -1.
         21   -1    0    0  502  503 -0.00000000000E+00 -0.00000000000E+00 -0.14272040268E+03  0.14272040268E+03  0.00000000000E+00 0. -1.
          5    1    1    2  501    0  0.31368881749E+01 -0.28958213558E+01 -0.31025455698E+02  0.31668513543E+02  0.47000000000E+01 0. -1.
         -5    1    1    2    0  503 -0.31368881749E+01  0.28958213558E+01 -0.11128292104E+03  0.11146391507E+03  0.47000000000E+01 0. -1.
<mgrwt>
<rscale>  2 0.63494763E+01</rscale>
<asrwt>0</asrwt>
<pdfrwt beam="1">  1       21 0.63388672E-04 0.63494763E+01</pdfrwt>
<pdfrwt beam="2">  1       21 0.21956962E-01 0.63494763E+01</pdfrwt>
<totfact> 0.14392483E+09</totfact>
</mgrwt>
</event>
<event>
 4    1  0.4039863E+006  0.9509295E+01  0.7546771E-02  0.2104039E+00
         21   -1    0    0  503  502  0.00000000000E+00  0.00000000000E+00  0.13502251529E+01  0.13502251529E+01  0.00000000000E+00 0.  1.
         21   -1    0    0  501  503 -0.00000000000E+00 -0.00000000000E+00 -0.71130693488E+02  0.71130693488E+02  0.00000000000E+00 0. -1.
          5    1    1    2  501    0 -0.72831184800E+01 -0.39106118333E+01 -0.43653500824E+02  0.44677229478E+02  0.47000000000E+01 0. -1.
         -5    1    1    2    0  502  0.72831184800E+01  0.39106118333E+01 -0.26126967511E+02  0.27803689162E+02  0.47000000000E+01 0.  1.
<mgrwt>
<rscale>  2 0.95092954E+01</rscale>
<asrwt>0</asrwt>
<pdfrwt beam="1">  1       21 0.20772696E-03 0.95092954E+01</pdfrwt>
<pdfrwt beam="2">  1       21 0.10943183E-01 0.95092954E+01</pdfrwt>
<totfact> 0.11450007E+09</totfact>
</mgrwt>
</event>
<event>
 4    1  0.4039863E+006  0.5322191E+01  0.7546771E-02  0.2512986E+00
         21   -1    0    0  503  502  0.00000000000E+00  0.00000000000E+00  0.17910772165E+01  0.17910772165E+01  0.00000000000E+00 0. -1.
         21   -1    0    0  501  503 -0.00000000000E+00 -0.00000000000E+00 -0.43086462104E+02  0.43086462104E+02  0.00000000000E+00 0.  1.
          5    1    1    2  501    0 -0.23756380461E+01  0.76945424574E+00 -0.38499557317E+02  0.38865687046E+02  0.47000000000E+01 0.  1.
         -5    1    1    2    0  502  0.23756380461E+01 -0.76945424574E+00 -0.27958275703E+01  0.60118522741E+01  0.47000000000E+01 0. -1.
<mgrwt>
<rscale>  2 0.53221909E+01</rscale>
<asrwt>0</asrwt>
<pdfrwt beam="1">  1       21 0.27555034E-03 0.53221909E+01</pdfrwt>
<pdfrwt beam="2">  1       21 0.66286865E-02 0.53221909E+01</pdfrwt>
<totfact> 0.11030565E+09</totfact>
</mgrwt>
</event>
<event>
 4    1  0.4039863E+006  0.8130148E+01  0.7546771E-02  0.2200190E+00
         21   -1    0    0  503  502  0.00000000000E+00  0.00000000000E+00  0.28835209882E+00  0.28835209882E+00  0.00000000000E+00 0. -1.
         21   -1    0    0  501  503 -0.00000000000E+00 -0.00000000000E+00 -0.29795513571E+03  0.29795513571E+03  0.00000000000E+00 0.  1.
          5    1    1    2  501    0  0.52621190757E+01 -0.40397282964E+01 -0.22045094859E+03  0.22060081604E+03  0.47000000000E+01 0.  1.
         -5    1    1    2    0  502 -0.52621190757E+01  0.40397282964E+01 -0.77215835019E+02  0.77642671770E+02  0.47000000000E+01 0. -1.
<mgrwt>
<rscale>  2 0.81301477E+01</rscale>
<asrwt>0</asrwt>
<pdfrwt beam="1">  1       21 0.44361705E-04 0.81301477E+01</pdfrwt>
<pdfrwt beam="2">  1       21 0.45839413E-01 0.81301477E+01</pdfrwt>
<totfact> 0.77507515E+08</totfact>
</mgrwt>
</event>
<event>
 4    1  0.4039863E+006  0.5006208E+01  0.7546771E-02  0.2566054E+00
         21   -1    0    0  501  502  0.00000000000E+00  0.00000000000E+00  0.19430324613E+00  0.19430324613E+00  0.00000000000E+00 0. -1.
         21   -1    0    0  502  503 -0.00000000000E+00 -0.00000000000E+00 -0.21697459619E+03  0.21697459619E+03  0.00000000000E+00 0. -1.
          5    1    1    2  501    0  0.59068905586E+00  0.16196322073E+01 -0.39242103032E+02  0.39560141208E+02  0.47000000000E+01 0. -1.
         -5    1    1    2    0  503 -0.59068905586E+00 -0.16196322073E+01 -0.17753818991E+03  0.17760875823E+03  0.47000000000E+01 0. -1.
<mgrwt>
<rscale>  2 0.50062084E+01</rscale>
<asrwt>0</asrwt>
<pdfrwt beam="1">  1       21 0.29892695E-04 0.50062084E+01</pdfrwt>
<pdfrwt beam="2">  1       21 0.33380833E-01 0.50062084E+01</pdfrwt>
<totfact> 0.16098311E+09</totfact>
</mgrwt>
</event>
<event>
 4    1  0.4039863E+006  0.4839668E+01  0.7546771E-02  0.2596407E+00
         21   -1    0    0  501  502  0.00000000000E+00  0.00000000000E+00  0.19435190890E+03  0.19435190890E+03  0.00000000000E+00 0.  1.
         21   -1    0    0  502  503 -0.00000000000E+00 -0.00000000000E+00 -0.21768648239E+00  0.21768648239E+00  0.00000000000E+00 0.  1.
          5    1    1    2  501    0  0.19261952146E+00  0.11381048522E+01  0.16206480091E+03  0.16213704721E+03  0.47000000000E+01 0.  1.
         -5    1    1    2    0  503 -0.19261952146E+00 -0.11381048522E+01  0.32069421513E+02  0.32432548174E+02  0.47000000000E+01 0.  1.
<mgrwt>
<rscale>  2 0.48396679E+01</rscale>
<asrwt>0</asrwt>
<pdfrwt beam="1">  1       21 0.29900155E-01 0.48396679E+01</pdfrwt>
<pdfrwt beam="2">  1       21 0.33490383E-04 0.48396679E+01</pdfrwt>
<totfact> 0.16134846E+09</totfact>
</mgrwt>
</event>
<event>
 4    1  0.4039863E+006  0.5437748E+01  0.7546771E-02  0.2494902E+00
         21   -1    0    0  503  502  0.00000000000E+00  0.00000000000E+00  0.43601196255E+02  0.43601196255E+02  0.00000000000E+00 0.  1.
         21   -1    0    0  501  503 -0.00000000000E+00 -0.00000000000E+00 -0.71104173341E+00  0.71104173341E+00  0.00000000000E+00 0.  1.
          5    1    1    2  501    0 -0.23736027770E+01 -0.13583497745E+01  0.16681368793E+02  0.17545289084E+02  0.47000000000E+01 0.  1.
         -5    1    1    2    0  502  0.23736027770E+01  0.13583497745E+01  0.26208785729E+02  0.26766948905E+02  0.47000000000E+01 0.  1.
<mgrwt>
<rscale>  2 0.54377481E+01</rscale>
<asrwt>0</asrwt>
<pdfrwt beam="1">  1       21 0.67078743E-02 0.54377481E+01</pdfrwt>
<pdfrwt beam="2">  1       21 0.10939107E-03 0.54377481E+01</pdfrwt>
<totfact> 0.38416891E+09</totfact>
</mgrwt>
</event>
<event>
 4    1  0.4039863E+006  0.5837348E+01  0.7546771E-02  0.2437086E+00
         21   -1    0    0  501  502  0.00000000000E+00  0.00000000000E+00  0.23843735171E+00  0.23843735171E+00  0.00000000000E+00 0. -1.
         21   -1    0    0  502  503 -0.00000000000E+00 -0.00000000000E+00 -0.16532747064E+03  0.16532747064E+03  0.00000000000E+00 0. -1.
          5    1    1    2  501    0 -0.53040909251E+00  0.34210074817E+01 -0.52059935283E+02  0.52386176494E+02  0.47000000000E+01 0. -1.
         -5    1    1    2    0  503  0.53040909251E+00 -0.34210074817E+01 -0.11302909801E+03  0.11317973150E+03  0.47000000000E+01 0. -1.
<mgrwt>
<rscale>  2 0.58373475E+01</rscale>
<asrwt>0</asrwt>
<pdfrwt beam="1">  1       21 0.36682628E-04 0.58373475E+01</pdfrwt>
<pdfrwt beam="2">  1       21 0.25435024E-01 0.58373475E+01</pdfrwt>
<totfact> 0.21989953E+09</totfact>
</mgrwt>
</event>
<event>
 4    1  0.4039863E+006  0.6852519E+01  0.7546771E-02  0.2316124E+00
         21   -1    0    0  503  502  0.00000000000E+00  0.00000000000E+00  0.65189568864E+03  0.65189568864E+03  0.00000000000E+00 0. -1.
         21   -1    0    0  501  503 -0.00000000000E+00 -0.00000000000E+00 -0.37986699895E+00  0.37986699895E+00  0.00000000000E+00 0. -1.
          5    1    1    2  501    0  0.34955476817E+01  0.35564260525E+01  0.32165598230E+02  0.32887425095E+02  0.47000000000E+01 0. -1.
         -5    1    1    2    0  502 -0.34955476817E+01 -0.35564260525E+01  0.61935022341E+03  0.61938813054E+03  0.47000000000E+01 0. -1.
<mgrwt>
<rscale>  2 0.68525192E+01</rscale>
<asrwt>0</asrwt>
<pdfrwt beam="1">  1       21 0.10029075E+00 0.68525192E+01</pdfrwt>
<pdfrwt beam="2">  1       21 0.58441598E-04 0.68525192E+01</pdfrwt>
<totfact> 0.10766860E+08</totfact>
</mgrwt>
</event>
<event>
 4    1  0.4039863E+006  0.4734773E+01  0.7546771E-02  0.2616471E+00
         21   -1    0    0  503  502  0.00000000000E+00  0.00000000000E+00  0.21848907066E+00  0.21848907066E+00  0.00000000000E+00 0.  1.
         21   -1    0    0  501  503 -0.00000000000E+00 -0.00000000000E+00 -0.17423604474E+03  0.17423604474E+03  0.00000000000E+00 0.  1.
          5    1    1    2  501    0 -0.54047081849E+00  0.18965689635E+00 -0.14293735923E+03  0.14301575697E+03  0.47000000000E+01 0.  1.
         -5    1    1    2    0  502  0.54047081849E+00 -0.18965689635E+00 -0.31080196440E+02  0.31438776840E+02  0.47000000000E+01 0.  1.
<mgrwt>
<rscale>  2 0.47347733E+01</rscale>
<asrwt>0</asrwt>
<pdfrwt beam="1">  1       21 0.33613625E-04 0.47347733E+01</pdfrwt>
<pdfrwt beam="2">  1       21 0.26805608E-01 0.47347733E+01</pdfrwt>
<totfact> 0.18818319E+09</totfact>
</mgrwt>
</event>
<event>
 4    1  0.4039863E+006  0.5272351E+01  0.7546771E-02  0.2520994E+00
         21   -1    0    0  501  502  0.00000000000E+00  0.00000000000E+00  0.18063984193E+03  0.18063984193E+03  0.00000000000E+00 0.  1.
         21   -1    0    0  502  503 -0.00000000000E+00 -0.00000000000E+00 -0.24761209220E+00  0.24761209220E+00  0.00000000000E+00 0.  1.
          5    1    1    2  501    0  0.42588954072E+00 -0.23508086767E+01  0.14584110987E+03  0.14593638001E+03  0.47000000000E+01 0.  1.
         -5    1    1    2    0  503 -0.42588954072E+00  0.23508086767E+01  0.34551119972E+02  0.34951074013E+02  0.47000000000E+01 0.  1.
<mgrwt>
<rscale>  2 0.52723508E+01</rscale>
<asrwt>0</asrwt>
<pdfrwt beam="1">  1       21 0.27790639E-01 0.52723508E+01</pdfrwt>
<pdfrwt beam="2">  1       21 0.38094313E-04 0.52723508E+01</pdfrwt>
<totfact> 0.16581495E+09</totfact>
</mgrwt>
</event>
<event>
 4    1  0.4039863E+006  0.4987728E+01  0.7546771E-02  0.2569335E+00
         21   -1    0    0  501  502  0.00000000000E+00  0.00000000000E+00  0.29971226137E+01  0.29971226137E+01  0.00000000000E+00 0. -1.
         21   -1    0    0  502  503 -0.00000000000E+00 -0.00000000000E+00 -0.85346537465E+01  0.85346537465E+01  0.00000000000E+00 0.  1.
          5    1    1    2  501    0 -0.13363453608E+01 -0.10008048027E+01 -0.37239378152E+01  0.62245595851E+01  0.47000000000E+01 0.  1.
         -5    1    1    2    0  503  0.13363453608E+01  0.10008048027E+01 -0.18135933176E+01  0.53072167751E+01  0.47000000000E+01 0. -1.
<mgrwt>
<rscale>  2 0.49877279E+01</rscale>
<asrwt>0</asrwt>
<pdfrwt beam="1">  1       21 0.46109579E-03 0.49877279E+01</pdfrwt>
<pdfrwt beam="2">  1       21 0.13130236E-02 0.49877279E+01</pdfrwt>
<totfact> 0.52714156E+09</totfact>
</mgrwt>
</event>
<event>
 4    1  0.4039863E+006  0.6650329E+01  0.7546771E-02  0.2337759E+00
         21   -1    0    0  501  502  0.00000000000E+00  0.00000000000E+00  0.77441377202E+00  0.77441377202E+00  0.00000000000E+00 0.  1.
         21   -1    0    0  502  503 -0.00000000000E+00 -0.00000000000E+00 -0.75063988330E+02  0.75063988330E+02  0.00000000000E+00 0. -1.
          5    1    1    2  501    0  0.22703773672E+01 -0.41209537379E+01 -0.18599984135E+02  0.19753133496E+02  0.47000000000E+01 0. -1.
         -5    1    1    2    0  503 -0.22703773672E+01  0.41209537379E+01 -0.55689590423E+02  0.56085268606E+02  0.47000000000E+01 0. -1.
<mgrwt>
<rscale>  2 0.66503288E+01</rscale>
<asrwt>0</asrwt>
<pdfrwt beam="1">  1       21 0.11914056E-03 0.66503288E+01</pdfrwt>
<pdfrwt beam="2">  1       21 0.11548308E-01 0.66503288E+01</pdfrwt>
<totfact> 0.17758581E+09</totfact>
</mgrwt>
</event>
<event>
 4    1  0.4039863E+006  0.8047607E+01  0.7546771E-02  0.2206770E+00
         21   -1    0    0  503  502  0.00000000000E+00  0.00000000000E+00  0.66263983369E+01  0.66263983369E+01  0.00000000000E+00 0.  1.
         21   -1    0    0  501  503 -0.00000000000E+00 -0.00000000000E+00 -0.11655157565E+02  0.11655157565E+02  0.00000000000E+00 0.  1.
          5    1    1    2  501    0 -0.65098830181E+01 -0.54350587897E+00 -0.61870267473E+01  0.10151023373E+02  0.47000000000E+01 0.  1.
         -5    1    1    2    0  502  0.65098830181E+01  0.54350587897E+00  0.11582675194E+01  0.81305325285E+01  0.47000000000E+01 0.  1.
<mgrwt>
<rscale>  2 0.80476068E+01</rscale>
<asrwt>0</asrwt>
<pdfrwt beam="1">  1       21 0.10194459E-02 0.80476068E+01</pdfrwt>
<pdfrwt beam="2">  1       21 0.17931012E-02 0.80476068E+01</pdfrwt>
<totfact> 0.16779042E+09</totfact>
</mgrwt>
</event>
<event>
 4    1  0.4039863E+006  0.6108251E+01  0.7546771E-02  0.2401544E+00
         21   -1    0    0  501  502  0.00000000000E+00  0.00000000000E+00  0.26608792654E+02  0.26608792654E+02  0.00000000000E+00 0. -1.
         21   -1    0    0  502  503 -0.00000000000E+00 -0.00000000000E+00 -0.48575481152E+01  0.48575481152E+01  0.00000000000E+00 0.  1.
          5    1    1    2  501    0  0.72644556622E+00 -0.38331453125E+01  0.24145101668E+02  0.24905755574E+02  0.47000000000E+01 0. -1.
         -5    1    1    2    0  503 -0.72644556622E+00  0.38331453125E+01 -0.23938571294E+01  0.65605851952E+01  0.47000000000E+01 0.  1.
<mgrwt>
<rscale>  2 0.61082507E+01</rscale>
<asrwt>0</asrwt>
<pdfrwt beam="1">  1       21 0.40936603E-02 0.61082507E+01</pdfrwt>
<pdfrwt beam="2">  1       21 0.74731511E-03 0.61082507E+01</pdfrwt>
<totfact> 0.63516623E+08</totfact>
</mgrwt>
</event>
<event>
 4    1  0.4039863E+006  0.6688186E+01  0.7546771E-02  0.2333626E+00
         21   -1    0    0  503  502  0.00000000000E+00  0.00000000000E+00  0.12650136813E+01  0.12650136813E+01  0.00000000000E+00 0.  1.
         21   -1    0    0  501  503 -0.00000000000E+00 -0.00000000000E+00 -0.58124662189E+02  0.58124662189E+02  0.00000000000E+00 0.  1.
          5    1    1    2  501    0  0.41454530377E+01 -0.23360319350E+01 -0.47013184154E+02  0.47486538202E+02  0.47000000000E+01 0.  1.
         -5    1    1    2    0  502 -0.41454530377E+01  0.23360319350E+01 -0.98464643535E+01  0.11903137668E+02  0.47000000000E+01 0.  1.
<mgrwt>
<rscale>  2 0.66881856E+01</rscale>
<asrwt>0</asrwt>
<pdfrwt beam="1">  1       21 0.19461753E-03 0.66881856E+01</pdfrwt>
<pdfrwt beam="2">  1       21 0.89422536E-02 0.66881856E+01</pdfrwt>
<totfact> 0.13585377E+09</totfact>
</mgrwt>
</event>
<event>
 4    1  0.4039863E+006  0.5120432E+01  0.7546771E-02  0.2546223E+00
         21   -1    0    0  501  502  0.00000000000E+00  0.00000000000E+00  0.17544791971E+02  0.17544791971E+02  0.00000000000E+00 0. -1.
         21   -1    0    0  502  503 -0.00000000000E+00 -0.00000000000E+00 -0.15746103597E+01  0.15746103597E+01  0.00000000000E+00 0. -1.
          5    1    1    2  501    0  0.45578511524E+00  0.19801734312E+01  0.10142785556E+02  0.11361994796E+02  0.47000000000E+01 0. -1.
         -5    1    1    2    0  503 -0.45578511524E+00 -0.19801734312E+01  0.58273960552E+01  0.77574075356E+01  0.47000000000E+01 0. -1.
<mgrwt>
<rscale>  2 0.51204323E+01</rscale>
<asrwt>0</asrwt>
<pdfrwt beam="1">  1       21 0.26991986E-02 0.51204323E+01</pdfrwt>
<pdfrwt beam="2">  1       21 0.24224776E-03 0.51204323E+01</pdfrwt>
<totfact> 0.46899025E+09</totfact>
</mgrwt>
</event>
<event>
 4    1  0.4039863E+006  0.4774005E+01  0.7546771E-02  0.2608877E+00
         21   -1    0    0  501  502  0.00000000000E+00  0.00000000000E+00  0.55596022113E+02  0.55596022113E+02  0.00000000000E+00 0.  1.
         21   -1    0    0  502  503 -0.00000000000E+00 -0.00000000000E+00 -0.44013921267E+00  0.44013921267E+00  0.00000000000E+00 0.  1.
          5    1    1    2  501    0  0.80315789219E+00 -0.23677027103E+00  0.20239064765E+02  0.20794491225E+02  0.47000000000E+01 0.  1.
         -5    1    1    2    0  503 -0.80315789219E+00  0.23677027103E+00  0.34916818135E+02  0.35241670100E+02  0.47000000000E+01 0.  1.
<mgrwt>
<rscale>  2 0.47740049E+01</rscale>
<asrwt>0</asrwt>
<pdfrwt beam="1">  1       21 0.85532286E-02 0.47740049E+01</pdfrwt>
<pdfrwt beam="2">  1       21 0.67713769E-04 0.47740049E+01</pdfrwt>
<totfact> 0.44328934E+09</totfact>
</mgrwt>
</event>
<event>
 4    1  0.4039863E+006  0.5188878E+01  0.7546771E-02  0.2534700E+00
         21   -1    0    0  501  502  0.00000000000E+00  0.00000000000E+00  0.32580179057E+01  0.32580179057E+01  0.00000000000E+00 0.  1.
         21   -1    0    0  502  503 -0.00000000000E+00 -0.00000000000E+00 -0.15207383098E+02  0.15207383098E+02  0.00000000000E+00 0. -1.
          5    1    1    2  501    0 -0.35373154840E+00 -0.21700999655E+01  0.26388879911E+00  0.51955843913E+01  0.47000000000E+01 0.  1.
         -5    1    1    2    0  503  0.35373154840E+00  0.21700999655E+01 -0.12213253991E+02  0.13269816612E+02  0.47000000000E+01 0. -1.
<mgrwt>
<rscale>  2 0.51888785E+01</rscale>
<asrwt>0</asrwt>
<pdfrwt beam="1">  1       21 0.50123352E-03 0.51888785E+01</pdfrwt>
<pdfrwt beam="2">  1       21 0.23395974E-02 0.51888785E+01</pdfrwt>
<totfact> 0.21613415E+09</totfact>
</mgrwt>
</event>
<event>
 4    1  0.4039863E+006  0.8240029E+01  0.7546771E-02  0.2191595E+00
         21   -1    0    0  503  502  0.00000000000E+00  0.00000000000E+00  0.15315439879E+00  0.15315439879E+00  0.00000000000E+00 0.  1.
         21   -1    0    0  501  503 -0.00000000000E+00 -0.00000000000E+00 -0.19196093915E+04  0.19196093915E+04  0.00000000000E+00 0.  1.
          5    1    1    2  501    0  0.67623487637E+01 -0.28057401029E+00 -0.18015015750E+04  0.18015204197E+04  0.47000000000E+01 0.  1.
         -5    1    1    2    0  502 -0.67623487637E+01  0.28057401029E+00 -0.11795466214E+03  0.11824212618E+03  0.47000000000E+01 0.  1.
<mgrwt>
<rscale>  2 0.82400293E+01</rscale>
<asrwt>0</asrwt>
<pdfrwt beam="1">  1       21 0.23564206E-04 0.82400293E+01</pdfrwt>
<pdfrwt beam="2">  1       21 0.29529957E+00 0.82400293E+01</pdfrwt>
<totfact> 0.33706283E+07</totfact>
</mgrwt>
</event>
<event>
 4    1  0.4039863E+006  0.4790118E+01  0.7546771E-02  0.2605790E+00
         21   -1    0    0  501  502  0.00000000000E+00  0.00000000000E+00  0.23488861084E+01  0.23488861084E+01  0.00000000000E+00 0.  1.
         21   -1    0    0  502  503 -0.00000000000E+00 -0.00000000000E+00 -0.99516981193E+01  0.99516981193E+01  0.00000000000E+00 0.  1.
          5    1    1    2  501    0 -0.66230175996E+00  0.64543285475E+00 -0.29670711163E+01  0.56346018671E+01  0.47000000000E+01 0.  1.
         -5    1    1    2    0  503  0.66230175996E+00 -0.64543285475E+00 -0.46357408946E+01  0.66659823607E+01  0.47000000000E+01 0.  1.
<mgrwt>
<rscale>  2 0.47901177E+01</rscale>
<asrwt>0</asrwt>
<pdfrwt beam="1">  1       21 0.36136710E-03 0.47901177E+01</pdfrwt>
<pdfrwt beam="2">  1       21 0.15310305E-02 0.47901177E+01</pdfrwt>
<totfact> 0.56721602E+09</totfact>
</mgrwt>
</event>
<event>
 4    1  0.4039863E+006  0.4790422E+01  0.7546771E-02  0.2605732E+00
         21   -1    0    0  503  502  0.00000000000E+00  0.00000000000E+00  0.52354002097E+00  0.52354002097E+00  0.00000000000E+00 0. -1.
         21   -1    0    0  501  503 -0.00000000000E+00 -0.00000000000E+00 -0.47303072623E+02  0.47303072623E+02  0.00000000000E+00 0. -1.
          5    1    1    2  501    0 -0.21955964480E+00 -0.89996710007E+00 -0.29866947524E+02  0.30248680990E+02  0.47000000000E+01 0. -1.
         -5    1    1    2    0  502  0.21955964480E+00  0.89996710007E+00 -0.16912585078E+02  0.17577931655E+02  0.47000000000E+01 0. -1.
<mgrwt>
<rscale>  2 0.47904224E+01</rscale>
<asrwt>0</asrwt>
<pdfrwt beam="1">  1       21 0.80544627E-04 0.47904224E+01</pdfrwt>
<pdfrwt beam="2">  1       21 0.72773950E-02 0.47904224E+01</pdfrwt>
<totfact> 0.44975952E+09</totfact>
</mgrwt>
</event>
<event>
 4    1  0.4039863E+006  0.8010863E+01  0.7546771E-02  0.2209734E+00
         21   -1    0    0  503  502  0.00000000000E+00  0.00000000000E+00  0.14308522548E+01  0.14308522548E+01  0.00000000000E+00 0. -1.
         21   -1    0    0  501  503 -0.00000000000E+00 -0.00000000000E+00 -0.92718339702E+02  0.92718339702E+02  0.00000000000E+00 0. -1.
          5    1    1    2  501    0  0.59487002605E+01 -0.25878346165E+01 -0.79467927790E+02  0.79870679665E+02  0.47000000000E+01 0. -1.
         -5    1    1    2    0  502 -0.59487002605E+01  0.25878346165E+01 -0.11819559656E+02  0.14278512292E+02  0.47000000000E+01 0. -1.
<mgrwt>
<rscale>  2 0.80108628E+01</rscale>
<asrwt>0</asrwt>
<pdfrwt beam="1">  1       21 0.22013113E-03 0.80108628E+01</pdfrwt>
<pdfrwt beam="2">  1       21 0.14264359E-01 0.80108628E+01</pdfrwt>
<totfact> 0.62343742E+08</totfact>
</mgrwt>
</event>
<event>
 4    1  0.4039863E+006  0.8693269E+01  0.7546771E-02  0.2157998E+00
         21   -1    0    0  503  502  0.00000000000E+00  0.00000000000E+00  0.17095365550E+01  0.17095365550E+01  0.00000000000E+00 0.  1.
         21   -1    0    0  501  503 -0.00000000000E+00 -0.00000000000E+00 -0.85584108798E+02  0.85584108798E+02  0.00000000000E+00 0. -1.
          5    1    1    2  501    0  0.37918610431E+01 -0.62533759541E+01 -0.72285830261E+02  0.72806690472E+02  0.47000000000E+01 0. -1.
         -5    1    1    2    0  502 -0.37918610431E+01  0.62533759541E+01 -0.11588741982E+02  0.14486954881E+02  0.47000000000E+01 0.  1.
<mgrwt>
<rscale>  2 0.86932687E+01</rscale>
<asrwt>0</asrwt>
<pdfrwt beam="1">  1       21 0.26300574E-03 0.86932687E+01</pdfrwt>
<pdfrwt beam="2">  1       21 0.13166780E-01 0.86932687E+01</pdfrwt>
<totfact> 0.58110228E+08</totfact>
</mgrwt>
</event>
<event>
 4    1  0.4039863E+006  0.6968319E+01  0.7546771E-02  0.2304200E+00
         21   -1    0    0  501  502  0.00000000000E+00  0.00000000000E+00  0.75891140770E+02  0.75891140770E+02  0.00000000000E+00 0. -1.
         21   -1    0    0  502  503 -0.00000000000E+00 -0.00000000000E+00 -0.10120945051E+01  0.10120945051E+01  0.00000000000E+00 0.  1.
          5    1    1    2  501    0  0.32262727262E+01 -0.40073217978E+01  0.60759581131E+02  0.61157862641E+02  0.47000000000E+01 0. -1.
         -5    1    1    2    0  503 -0.32262727262E+01  0.40073217978E+01  0.14119465135E+02  0.15745372634E+02  0.47000000000E+01 0.  1.
<mgrwt>
<rscale>  2 0.69683186E+01</rscale>
<asrwt>0</asrwt>
<pdfrwt beam="1">  1       21 0.11675556E-01 0.69683186E+01</pdfrwt>
<pdfrwt beam="2">  1       21 0.15570691E-03 0.69683186E+01</pdfrwt>
<totfact> 0.12554867E+09</totfact>
</mgrwt>
</event>
<event>
 4    1  0.4039863E+006  0.7421339E+01  0.7546771E-02  0.2260502E+00
         21   -1    0    0  501  502  0.00000000000E+00  0.00000000000E+00  0.50350060105E+01  0.50350060105E+01  0.00000000000E+00 0.  1.
         21   -1    0    0  502  503 -0.00000000000E+00 -0.00000000000E+00 -0.11138981586E+02  0.11138981586E+02  0.00000000000E+00 0.  1.
          5    1    1    2  501    0  0.35273164831E+01 -0.45325839865E+01 -0.19675234993E+01  0.76777228321E+01  0.47000000000E+01 0.  1.
         -5    1    1    2    0  503 -0.35273164831E+01  0.45325839865E+01 -0.41364520760E+01  0.84962647642E+01  0.47000000000E+01 0.  1.
<mgrwt>
<rscale>  2 0.74213394E+01</rscale>
<asrwt>0</asrwt>
<pdfrwt beam="1">  1       21 0.77461632E-03 0.74213394E+01</pdfrwt>
<pdfrwt beam="2">  1       21 0.17136894E-02 0.74213394E+01</pdfrwt>
<totfact> 0.24994046E+09</totfact>
</mgrwt>
</event>
<event>
 4    1  0.4039863E+006  0.6523975E+01  0.7546771E-02  0.2351839E+00
         21   -1    0    0  501  502  0.00000000000E+00  0.00000000000E+00  0.18583914953E+00  0.18583914953E+00  0.00000000000E+00 0. -1.
         21   -1    0    0  502  503 -0.00000000000E+00 -0.00000000000E+00 -0.28247808121E+03  0.28247808121E+03  0.00000000000E+00 0.  1.
          5    1    1    2  501    0  0.41876219175E+01  0.17134956926E+01 -0.20262485266E+03  0.20272985266E+03  0.47000000000E+01 0. -1.
         -5    1    1    2    0  503 -0.41876219175E+01 -0.17134956926E+01 -0.79667389406E+02  0.79934067703E+02  0.47000000000E+01 0.  1.
<mgrwt>
<rscale>  2 0.65239746E+01</rscale>
<asrwt>0</asrwt>
<pdfrwt beam="1">  1       21 0.28590523E-04 0.65239746E+01</pdfrwt>
<pdfrwt beam="2">  1       21 0.43458341E-01 0.65239746E+01</pdfrwt>
<totfact> 0.13367559E+09</totfact>
</mgrwt>
</event>
<event>
 4    1  0.4039863E+006  0.8293951E+01  0.7546771E-02  0.2187444E+00
         21   -1    0    0  501  502  0.00000000000E+00  0.00000000000E+00  0.12199337033E+02  0.12199337033E+02  0.00000000000E+00 0.  1.
         21   -1    0    0  502  503 -0.00000000000E+00 -0.00000000000E+00 -0.90075103035E+01  0.90075103035E+01  0.00000000000E+00 0.  1.
          5    1    1    2  501    0  0.23485491796E+01 -0.64174713138E+01  0.80803994820E+01  0.11579398823E+02  0.47000000000E+01 0.  1.
         -5    1    1    2    0  503 -0.23485491796E+01  0.64174713138E+01 -0.48885727530E+01  0.96274485131E+01  0.47000000000E+01 0.  1.
<mgrwt>
<rscale>  2 0.82939509E+01</rscale>
<asrwt>0</asrwt>
<pdfrwt beam="1">  1       21 0.18768211E-02 0.82939509E+01</pdfrwt>
<pdfrwt beam="2">  1       21 0.13857708E-02 0.82939509E+01</pdfrwt>
<totfact> 0.10286690E+09</totfact>
</mgrwt>
</event>
<event>
 4    1  0.4039863E+006  0.6559288E+01  0.7546771E-02  0.2347859E+00
         21   -1    0    0  503  502  0.00000000000E+00  0.00000000000E+00  0.71677693920E+01  0.71677693920E+01  0.00000000000E+00 0. -1.
         21   -1    0    0  501  503 -0.00000000000E+00 -0.00000000000E+00 -0.15828668824E+02  0.15828668824E+02  0.00000000000E+00 0. -1.
          5    1    1    2  501    0 -0.30917330411E+01  0.33727509345E+01 -0.13389889413E+02  0.14910177751E+02  0.47000000000E+01 0. -1.
         -5    1    1    2    0  502  0.30917330411E+01 -0.33727509345E+01  0.47289899815E+01  0.80862604650E+01  0.47000000000E+01 0. -1.
<mgrwt>
<rscale>  2 0.65592882E+01</rscale>
<asrwt>0</asrwt>
<pdfrwt beam="1">  1       21 0.11027338E-02 0.65592882E+01</pdfrwt>
<pdfrwt beam="2">  1       21 0.24351798E-02 0.65592882E+01</pdfrwt>
<totfact> 0.82807625E+08</totfact>
</mgrwt>
</event>
<event>
 4    1  0.4039863E+006  0.5303991E+01  0.7546771E-02  0.2515896E+00
         21   -1    0    0  501  502  0.00000000000E+00  0.00000000000E+00  0.18077100416E+03  0.18077100416E+03  0.00000000000E+00 0. -1.
         21   -1    0    0  502  503 -0.00000000000E+00 -0.00000000000E+00 -0.19669744706E+00  0.19669744706E+00  0.00000000000E+00 0. -1.
          5    1    1    2  501    0 -0.19621865621E+01  0.14805888168E+01  0.13163490710E+03  0.13174172113E+03  0.47000000000E+01 0. -1.
         -5    1    1    2    0  503  0.19621865621E+01 -0.14805888168E+01  0.48939399616E+02  0.49225980479E+02  0.47000000000E+01 0. -1.
<mgrwt>
<rscale>  2 0.53039909E+01</rscale>
<asrwt>0</asrwt>
<pdfrwt beam="1">  1       21 0.27810791E-01 0.53039909E+01</pdfrwt>
<pdfrwt beam="2">  1       21 0.30261290E-04 0.53039909E+01</pdfrwt>
<totfact> 0.22601623E+09</totfact>
</mgrwt>
</event>
<event>
 4    1  0.4039863E+006  0.7551565E+01  0.7546771E-02  0.2248736E+00
         21   -1    0    0  501  502  0.00000000000E+00  0.00000000000E+00  0.12139803312E+02  0.12139803312E+02  0.00000000000E+00 0.  1.
         21   -1    0    0  502  503 -0.00000000000E+00 -0.00000000000E+00 -0.59765674391E+01  0.59765674391E+01  0.00000000000E+00 0.  1.
          5    1    1    2  501    0  0.56500631068E+01 -0.17357762048E+01  0.72721611089E+01  0.10483818929E+02  0.47000000000E+01 0.  1.
         -5    1    1    2    0  503 -0.56500631068E+01  0.17357762048E+01 -0.11089252356E+01  0.76325518224E+01  0.47000000000E+01 0.  1.
<mgrwt>
<rscale>  2 0.75515649E+01</rscale>
<asrwt>0</asrwt>
<pdfrwt beam="1">  1       21 0.18676620E-02 0.75515649E+01</pdfrwt>
<pdfrwt beam="2">  1       21 0.91947192E-03 0.75515649E+01</pdfrwt>
<totfact> 0.17509938E+09</totfact>
</mgrwt>
</event>
<event>
 4    1  0.4039863E+006  0.1395545E+02  0.7546771E-02  0.1901724E+00
         21   -1    0    0  501  502  0.00000000000E+00  0.00000000000E+00  0.59772054659E+01  0.59772054659E+01  0.00000000000E+00 0.  1.
         21   -1    0    0  502  503 -0.00000000000E+00 -0.00000000000E+00 -0.22287825016E+03  0.22287825016E+03  0.00000000000E+00 0. -1.
          5    1    1    2  501    0 -0.50741242531E+01  0.12120966994E+02 -0.27172827687E+01  0.14217531553E+02  0.47000000000E+01 0.  1.
         -5    1    1    2    0  503  0.50741242531E+01 -0.12120966994E+02 -0.21418376192E+03  0.21463792407E+03  0.47000000000E+01 0. -1.
<mgrwt>
<rscale>  2 0.13955450E+02</rscale>
<asrwt>0</asrwt>
<pdfrwt beam="1">  1       21 0.91956995E-03 0.13955450E+02</pdfrwt>
<pdfrwt beam="2">  1       21 0.34288966E-01 0.13955450E+02</pdfrwt>
<totfact> 0.23409638E+07</totfact>
</mgrwt>
</event>
<event>
 4    1  0.4039863E+006  0.5180327E+01  0.7546771E-02  0.2536125E+00
         21   -1    0    0  501  502  0.00000000000E+00  0.00000000000E+00  0.99744182445E-01  0.99744182445E-01  0.00000000000E+00 0.  1.
         21   -1    0    0  502  503 -0.00000000000E+00 -0.00000000000E+00 -0.58815928066E+03  0.58815928066E+03  0.00000000000E+00 0. -1.
          5    1    1    2  501    0  0.18663926797E+01 -0.11235522708E+01 -0.77377399205E+02  0.77550613789E+02  0.47000000000E+01 0.  1.
         -5    1    1    2    0  503 -0.18663926797E+01  0.11235522708E+01 -0.51068213727E+03  0.51070841105E+03  0.47000000000E+01 0. -1.
<mgrwt>
<rscale>  2 0.51803273E+01</rscale>
<asrwt>0</asrwt>
<pdfrwt beam="1">  1       21 0.15345763E-04 0.51803273E+01</pdfrwt>
<pdfrwt beam="2">  1       21 0.90483069E-01 0.51803273E+01</pdfrwt>
<totfact> 0.65869731E+08</totfact>
</mgrwt>
</event>
<event>
 4    1  0.4039863E+006  0.5415417E+01  0.7546771E-02  0.2498346E+00
         21   -1    0    0  503  502  0.00000000000E+00  0.00000000000E+00  0.26262839749E+01  0.26262839749E+01  0.00000000000E+00 0.  1.
         21   -1    0    0  501  503 -0.00000000000E+00 -0.00000000000E+00 -0.11175789989E+02  0.11175789989E+02  0.00000000000E+00 0. -1.
          5    1    1    2  501    0 -0.16711741651E+01 -0.21080591513E+01 -0.44723441000E+01  0.70234320830E+01  0.47000000000E+01 0. -1.
         -5    1    1    2    0  502  0.16711741651E+01  0.21080591513E+01 -0.40771619137E+01  0.67786418806E+01  0.47000000000E+01 0. -1.
<mgrwt>
<rscale>  2 0.54154166E+01</rscale>
<asrwt>0</asrwt>
<pdfrwt beam="1">  1       21 0.40404369E-03 0.54154166E+01</pdfrwt>
<pdfrwt beam="2">  1       21 0.17193523E-02 0.54154166E+01</pdfrwt>
<totfact> 0.47042459E+09</totfact>
</mgrwt>
</event>
<event>
 4    1  0.4039863E+006  0.5926099E+01  0.7546771E-02  0.2425142E+00
         21   -1    0    0  503  502  0.00000000000E+00  0.00000000000E+00  0.81002967101E+02  0.81002967101E+02  0.00000000000E+00 0. -1.
         21   -1    0    0  501  503 -0.00000000000E+00 -0.00000000000E+00 -0.47977249984E+00  0.47977249984E+00  0.00000000000E+00 0. -1.
          5    1    1    2  501    0  0.22799146983E+01  0.27983275254E+01  0.27615526959E+02  0.28244220244E+02  0.47000000000E+01 0. -1.
         -5    1    1    2    0  502 -0.22799146983E+01 -0.27983275254E+01  0.52907667642E+02  0.53238519357E+02  0.47000000000E+01 0. -1.
<mgrwt>
<rscale>  2 0.59260989E+01</rscale>
<asrwt>0</asrwt>
<pdfrwt beam="1">  1       21 0.12461984E-01 0.59260989E+01</pdfrwt>
<pdfrwt beam="2">  1       21 0.73811218E-04 0.59260989E+01</pdfrwt>
<totfact> 0.27370082E+09</totfact>
</mgrwt>
</event>
<event>
 4    1  0.4039863E+006  0.4955472E+01  0.7546771E-02  0.2575114E+00
         21   -1    0    0  503  502  0.00000000000E+00  0.00000000000E+00  0.22640479636E+02  0.22640479636E+02  0.00000000000E+00 0. -1.
         21   -1    0    0  501  503 -0.00000000000E+00 -0.00000000000E+00 -0.13271822001E+01  0.13271822001E+01  0.00000000000E+00 0. -1.
          5    1    1    2  501    0 -0.53079818322E+00 -0.14781586317E+01  0.15779677905E+02  0.16539496197E+02  0.47000000000E+01 0. -1.
         -5    1    1    2    0  502  0.53079818322E+00  0.14781586317E+01  0.55336195301E+01  0.74281656387E+01  0.47000000000E+01 0. -1.
<mgrwt>
<rscale>  2 0.49554717E+01</rscale>
<asrwt>0</asrwt>
<pdfrwt beam="1">  1       21 0.34831504E-02 0.49554717E+01</pdfrwt>
<pdfrwt beam="2">  1       21 0.20418189E-03 0.49554717E+01</pdfrwt>
<totfact> 0.39575272E+09</totfact>
</mgrwt>
</event>
<event>
 4    1  0.4039863E+006  0.5782369E+01  0.7546771E-02  0.2444639E+00
         21   -1    0    0  503  502  0.00000000000E+00  0.00000000000E+00  0.17150659100E+02  0.17150659100E+02  0.00000000000E+00 0. -1.
         21   -1    0    0  501  503 -0.00000000000E+00 -0.00000000000E+00 -0.19692800181E+01  0.19692800181E+01  0.00000000000E+00 0.  1.
          5    1    1    2  501    0  0.19082154737E+00 -0.33629415174E+01  0.66333953139E+01  0.87998705617E+01  0.47000000000E+01 0. -1.
         -5    1    1    2    0  502 -0.19082154737E+00  0.33629415174E+01  0.85479837683E+01  0.10320068557E+02  0.47000000000E+01 0. -1.
<mgrwt>
<rscale>  2 0.57823688E+01</rscale>
<asrwt>0</asrwt>
<pdfrwt beam="1">  1       21 0.26385628E-02 0.57823688E+01</pdfrwt>
<pdfrwt beam="2">  1       21 0.30296617E-03 0.57823688E+01</pdfrwt>
<totfact> 0.40234008E+09</totfact>
</mgrwt>
</event>
<event>
 4    1  0.4039863E+006  0.6189365E+01  0.7546771E-02  0.2391410E+00
         21   -1    0    0  503  502  0.00000000000E+00  0.00000000000E+00  0.46567248345E+03  0.46567248345E+03  0.00000000000E+00 0.  1.
         21   -1    0    0  501  503 -0.00000000000E+00 -0.00000000000E+00 -0.89767904176E-01  0.89767904176E-01  0.00000000000E+00 0. -1.
          5    1    1    2  501    0  0.10975690198E+01 -0.38747364842E+01  0.30012118236E+03  0.30018499687E+03  0.47000000000E+01 0. -1.
         -5    1    1    2    0  502 -0.10975690198E+01  0.38747364842E+01  0.16546153318E+03  0.16557725449E+03  0.47000000000E+01 0. -1.
<mgrwt>
<rscale>  2 0.61893651E+01</rscale>
<asrwt>0</asrwt>
<pdfrwt beam="1">  1       21 0.71639986E-01 0.61893651E+01</pdfrwt>
<pdfrwt beam="2">  1       21 0.13810820E-04 0.61893651E+01</pdfrwt>
<totfact> 0.13566286E+09</totfact>
</mgrwt>
</event>
<event>
 4    1  0.4039863E+006  0.6813854E+01  0.7546771E-02  0.2320179E+00
         21   -1    0    0  503  502  0.00000000000E+00  0.00000000000E+00  0.61839022964E+03  0.61839022964E+03  0.00000000000E+00 0.  1.
         21   -1    0    0  501  503 -0.00000000000E+00 -0.00000000000E+00 -0.97915214731E-01  0.97915214731E-01  0.00000000000E+00 0.  1.
          5    1    1    2  501    0  0.49334166272E+01 -0.32128283089E-02  0.45848776394E+03  0.45853839347E+03  0.47000000000E+01 0.  1.
         -5    1    1    2    0  502 -0.49334166272E+01  0.32128283089E-02  0.15980455049E+03  0.15994975138E+03  0.47000000000E+01 0.  1.
<mgrwt>
<rscale>  2 0.68138543E+01</rscale>
<asrwt>0</asrwt>
<pdfrwt beam="1">  1       21 0.95133831E-01 0.68138543E+01</pdfrwt>
<pdfrwt beam="2">  1       21 0.15064374E-04 0.68138543E+01</pdfrwt>
<totfact> 0.73700334E+08</totfact>
</mgrwt>
</event>
<event>
 4    1  0.4039863E+006  0.5657975E+01  0.7546771E-02  0.2462184E+00
         21   -1    0    0  501  502  0.00000000000E+00  0.00000000000E+00  0.65079099207E-01  0.65079099207E-01  0.00000000000E+00 0. -1.
         21   -1    0    0  502  503 -0.00000000000E+00 -0.00000000000E+00 -0.10538069338E+04  0.10538069338E+04  0.00000000000E+00 0. -1.
          5    1    1    2  501    0  0.77684246069E+00 -0.30527358373E+01 -0.14209496436E+03  0.14220756512E+03  0.47000000000E+01 0. -1.
         -5    1    1    2    0  503 -0.77684246069E+00  0.30527358373E+01 -0.91164689030E+03  0.91166444774E+03  0.47000000000E+01 0. -1.
<mgrwt>
<rscale>  2 0.56579749E+01</rscale>
<asrwt>0</asrwt>
<pdfrwt beam="1">  1       21 0.10010969E-04 0.56579749E+01</pdfrwt>
<pdfrwt beam="2">  1       21 0.16214358E+00 0.56579749E+01</pdfrwt>
<totfact> 0.36958357E+08</totfact>
</mgrwt>
</event>
<event>
 4    1  0.4039863E+006  0.5729462E+01  0.7546771E-02  0.2452023E+00
         21   -1    0    0  503  502  0.00000000000E+00  0.00000000000E+00  0.62829942858E+01  0.62829942858E+01  0.00000000000E+00 0.  1.
         21   -1    0    0  501  503 -0.00000000000E+00 -0.00000000000E+00 -0.63841719612E+01  0.63841719612E+01  0.00000000000E+00 0. -1.
          5    1    1    2  501    0  0.13734182352E+00  0.32738161537E+01 -0.27497453296E+01  0.63551423558E+01  0.47000000000E+01 0.  1.
         -5    1    1    2    0  502 -0.13734182352E+00 -0.32738161537E+01  0.26485676542E+01  0.63120238912E+01  0.47000000000E+01 0.  1.
<mgrwt>
<rscale>  2 0.57294620E+01</rscale>
<asrwt>0</asrwt>
<pdfrwt beam="1">  1       21 0.96661450E-03 0.57294620E+01</pdfrwt>
<pdfrwt beam="2">  1       21 0.98218030E-03 0.57294620E+01</pdfrwt>
<totfact> 0.32569126E+09</totfact>
</mgrwt>
</event>
<event>
 4    1  0.4039863E+006  0.9852136E+01  0.7546771E-02  0.2083502E+00
         21   -1    0    0  503  502  0.00000000000E+00  0.00000000000E+00  0.30418895003E+02  0.30418895003E+02  0.00000000000E+00 0. -1.
         21   -1    0    0  501  503 -0.00000000000E+00 -0.00000000000E+00 -0.10236479576E+02  0.10236479576E+02  0.00000000000E+00 0.  1.
          5    1    1    2  501    0  0.34397490940E+01  0.79462381419E+01 -0.67731609155E+01  0.11955763599E+02  0.47000000000E+01 0.  1.
         -5    1    1    2    0  502 -0.34397490940E+01 -0.79462381419E+01  0.26955576343E+02  0.28699610981E+02  0.47000000000E+01 0. -1.
<mgrwt>
<rscale>  2 0.98521355E+01</rscale>
<asrwt>0</asrwt>
<pdfrwt beam="1">  1       21 0.46798300E-02 0.98521355E+01</pdfrwt>
<pdfrwt beam="2">  1       21 0.15748430E-02 0.98521355E+01</pdfrwt>
<totfact> 0.24169473E+08</totfact>
</mgrwt>
</event>
<event>
 4    1  0.4039863E+006  0.8536025E+01  0.7546771E-02  0.2169330E+00
         21   -1    0    0  501  502  0.00000000000E+00  0.00000000000E+00  0.53765242765E+02  0.53765242765E+02  0.00000000000E+00 0. -1.
         21   -1    0    0  502  503 -0.00000000000E+00 -0.00000000000E+00 -0.37264311093E+01  0.37264311093E+01  0.00000000000E+00 0.  1.
          5    1    1    2  501    0  0.58522988202E+01  0.40650122063E+01  0.47949906163E+02  0.48703770150E+02  0.47000000000E+01 0. -1.
         -5    1    1    2    0  503 -0.58522988202E+01 -0.40650122063E+01  0.20889054925E+01  0.87879037248E+01  0.47000000000E+01 0.  1.
<mgrwt>
<rscale>  2 0.85360252E+01</rscale>
<asrwt>0</asrwt>
<pdfrwt beam="1">  1       21 0.82715753E-02 0.85360252E+01</pdfrwt>
<pdfrwt beam="2">  1       21 0.57329713E-03 0.85360252E+01</pdfrwt>
<totfact> 0.39952447E+08</totfact>
</mgrwt>
</event>
<event>
 4    1  0.4039863E+006  0.6751574E+01  0.7546771E-02  0.2326792E+00
         21   -1    0    0  503  502  0.00000000000E+00  0.00000000000E+00  0.80718457723E+03  0.80718457723E+03  0.00000000000E+00 0.  1.
         21   -1    0    0  501  503 -0.00000000000E+00 -0.00000000000E+00 -0.94432417409E-01  0.94432417409E-01  0.00000000000E+00 0.  1.
          5    1    1    2  501    0  0.48463264751E+01  0.82866603191E-01  0.14763014077E+03  0.14778444509E+03  0.47000000000E+01 0.  1.
         -5    1    1    2    0  502 -0.48463264751E+01 -0.82866603191E-01  0.65946000405E+03  0.65949456456E+03  0.47000000000E+01 0.  1.
<mgrwt>
<rscale>  2 0.67515737E+01</rscale>
<asrwt>0</asrwt>
<pdfrwt beam="1">  1       21 0.12417672E+00 0.67515737E+01</pdfrwt>
<pdfrwt beam="2">  1       21 0.14528711E-04 0.67515737E+01</pdfrwt>
<totfact> 0.44307424E+08</totfact>
</mgrwt>
</event>
<event>
 4    1  0.4039863E+006  0.5229907E+01  0.7546771E-02  0.2527916E+00
         21   -1    0    0  501  502  0.00000000000E+00  0.00000000000E+00  0.40934345526E+00  0.40934345526E+00  0.00000000000E+00 0.  1.
         21   -1    0    0  502  503 -0.00000000000E+00 -0.00000000000E+00 -0.86776907377E+02  0.86776907377E+02  0.00000000000E+00 0. -1.
          5    1    1    2  501    0  0.18124055002E+01 -0.14060998239E+01 -0.22277675561E+02  0.22883329278E+02  0.47000000000E+01 0.  1.
         -5    1    1    2    0  503 -0.18124055002E+01  0.14060998239E+01 -0.64089888360E+02  0.64302921554E+02  0.47000000000E+01 0. -1.
<mgrwt>
<rscale>  2 0.52299073E+01</rscale>
<asrwt>0</asrwt>
<pdfrwt beam="1">  1       21 0.62975874E-04 0.52299073E+01</pdfrwt>
<pdfrwt beam="2">  1       21 0.13350302E-01 0.52299073E+01</pdfrwt>
<totfact> 0.27185145E+09</totfact>
</mgrwt>
</event>
<event>
 4    1  0.4039863E+006  0.5356858E+01  0.7546771E-02  0.2507492E+00
         21   -1    0    0  503  502  0.00000000000E+00  0.00000000000E+00  0.43890735543E+02  0.43890735543E+02  0.00000000000E+00 0.  1.
         21   -1    0    0  501  503 -0.00000000000E+00 -0.00000000000E+00 -0.10954541935E+01  0.10954541935E+01  0.00000000000E+00 0.  1.
          5    1    1    2  501    0 -0.25691204289E+01 -0.74452089917E-01  0.71155597091E+01  0.89065769443E+01  0.47000000000E+01 0.  1.
         -5    1    1    2    0  502  0.25691204289E+01  0.74452089917E-01  0.35679721640E+02  0.36079612792E+02  0.47000000000E+01 0.  1.
<mgrwt>
<rscale>  2 0.53568576E+01</rscale>
<asrwt>0</asrwt>
<pdfrwt beam="1">  1       21 0.67524195E-02 0.53568576E+01</pdfrwt>
<pdfrwt beam="2">  1       21 0.16853145E-03 0.53568576E+01</pdfrwt>
<totfact> 0.20999753E+09</totfact>
</mgrwt>
</event>
<event>
 4    1  0.4039863E+006  0.4954341E+01  0.7546771E-02  0.2575318E+00
         21   -1    0    0  503  502  0.00000000000E+00  0.00000000000E+00  0.52031750464E+03  0.52031750464E+03  0.00000000000E+00 0. -1.
         21   -1    0    0  501  503 -0.00000000000E+00 -0.00000000000E+00 -0.69533311387E-01  0.69533311387E-01  0.00000000000E+00 0.  1.
          5    1    1    2  501    0 -0.46592539273E+00  0.14961299145E+01  0.11257758807E+03  0.11268655123E+03  0.47000000000E+01 0.  1.
         -5    1    1    2    0  502  0.46592539273E+00 -0.14961299145E+01  0.40767038326E+03  0.40770048673E+03  0.47000000000E+01 0. -1.
<mgrwt>
<rscale>  2 0.49543406E+01</rscale>
<asrwt>0</asrwt>
<pdfrwt beam="1">  1       21 0.80045729E-01 0.49543406E+01</pdfrwt>
<pdfrwt beam="2">  1       21 0.10697849E-04 0.49543406E+01</pdfrwt>
<totfact> 0.13004469E+09</totfact>
</mgrwt>
</event>
<event>
 4    1  0.4039863E+006  0.1125835E+02  0.7546771E-02  0.2009734E+00
         21   -1    0    0  503  502  0.00000000000E+00  0.00000000000E+00  0.12882788837E+01  0.12882788837E+01  0.00000000000E+00 0.  1.
         21   -1    0    0  501  503 -0.00000000000E+00 -0.00000000000E+00 -0.11297607191E+03  0.11297607191E+03  0.00000000000E+00 0. -1.
          5    1    1    2  501    0  0.84225804400E+01  0.58069502207E+01 -0.35313658174E+02  0.37064875364E+02  0.47000000000E+01 0.  1.
         -5    1    1    2    0  502 -0.84225804400E+01 -0.58069502207E+01 -0.76374134851E+02  0.77199475428E+02  0.47000000000E+01 0. -1.
<mgrwt>
<rscale>  2 0.11258354E+02</rscale>
<asrwt>0</asrwt>
<pdfrwt beam="1">  1       21 0.19819665E-03 0.11258354E+02</pdfrwt>
<pdfrwt beam="2">  1       21 0.17380943E-01 0.11258354E+02</pdfrwt>
<totfact> 0.63138030E+08</totfact>
</mgrwt>
</event>
<event>
 4    1  0.4039863E+006  0.8872698E+01  0.7546771E-02  0.2145460E+00
         21   -1    0    0  501  502  0.00000000000E+00  0.00000000000E+00  0.94388713897E+02  0.94388713897E+02  0.00000000000E+00 0. -1.
         21   -1    0    0  502  503 -0.00000000000E+00 -0.00000000000E+00 -0.97234136018E+00  0.97234136018E+00  0.00000000000E+00 0. -1.
          5    1    1    2  501    0  0.58972321925E+01  0.46751923141E+01  0.28726456724E+02  0.30065496613E+02  0.47000000000E+01 0. -1.
         -5    1    1    2    0  503 -0.58972321925E+01 -0.46751923141E+01  0.64689915813E+02  0.65295558644E+02  0.47000000000E+01 0. -1.
<mgrwt>
<rscale>  2 0.88726981E+01</rscale>
<asrwt>0</asrwt>
<pdfrwt beam="1">  1       21 0.14521333E-01 0.88726981E+01</pdfrwt>
<pdfrwt beam="2">  1       21 0.14959105E-03 0.88726981E+01</pdfrwt>
<totfact> 0.11002875E+09</totfact>
</mgrwt>
</event>
<event>
 4    1  0.4039863E+006  0.7275223E+01  0.7546771E-02  0.2274110E+00
         21   -1    0    0  501  502  0.00000000000E+00  0.00000000000E+00  0.47810590974E+00  0.47810590974E+00  0.00000000000E+00 0.  1.
         21   -1    0    0  502  503 -0.00000000000E+00 -0.00000000000E+00 -0.27692470375E+03  0.27692470375E+03  0.00000000000E+00 0. -1.
          5    1    1    2  501    0  0.54375545490E+01  0.11277710473E+01 -0.30764781149E+02  0.31613298248E+02  0.47000000000E+01 0.  1.
         -5    1    1    2    0  503 -0.54375545490E+01 -0.11277710473E+01 -0.24568181669E+03  0.24578951141E+03  0.47000000000E+01 0. -1.
<mgrwt>
<rscale>  2 0.72752228E+01</rscale>
<asrwt>0</asrwt>
<pdfrwt beam="1">  1       21 0.73554727E-04 0.72752228E+01</pdfrwt>
<pdfrwt beam="2">  1       21 0.42603817E-01 0.72752228E+01</pdfrwt>
<totfact> 0.41722050E+08</totfact>
</mgrwt>
</event>
<event>
 4    1  0.4039863E+006  0.5486381E+01  0.7546771E-02  0.2487486E+00
         21   -1    0    0  501  502  0.00000000000E+00  0.00000000000E+00  0.30947687507E+01  0.30947687507E+01  0.00000000000E+00 0. -1.
         21   -1    0    0  502  503 -0.00000000000E+00 -0.00000000000E+00 -0.15945195360E+02  0.15945195360E+02  0.00000000000E+00 0. -1.
          5    1    1    2  501    0  0.25888722778E+01 -0.11437316594E+01 -0.47981642989E+00  0.55073229055E+01  0.47000000000E+01 0. -1.
         -5    1    1    2    0  503 -0.25888722778E+01  0.11437316594E+01 -0.12370610180E+02  0.13532641205E+02  0.47000000000E+01 0. -1.
<mgrwt>
<rscale>  2 0.54863815E+01</rscale>
<asrwt>0</asrwt>
<pdfrwt beam="1">  1       21 0.47611827E-03 0.54863815E+01</pdfrwt>
<pdfrwt beam="2">  1       21 0.24531070E-02 0.54863815E+01</pdfrwt>
<totfact> 0.22871179E+09</totfact>
</mgrwt>
</event>
<event>
 4    1  0.4039863E+006  0.6977541E+01  0.7546771E-02  0.2303264E+00
         21   -1    0    0  503  502  0.00000000000E+00  0.00000000000E+00  0.17388755315E+04  0.17388755315E+04  0.00000000000E+00 0.  1.
         21   -1    0    0  501  503 -0.00000000000E+00 -0.00000000000E+00 -0.33515055807E-01  0.33515055807E-01  0.00000000000E+00 0. -1.
          5    1    1    2  501    0  0.51296166207E+01  0.53207968843E+00  0.51667908187E+03  0.51672619414E+03  0.47000000000E+01 0. -1.
         -5    1    1    2    0  502 -0.51296166207E+01 -0.53207968843E+00  0.12221629346E+04  0.12221828524E+04  0.47000000000E+01 0.  1.
<mgrwt>
<rscale>  2 0.69775408E+01</rscale>
<asrwt>0</asrwt>
<pdfrwt beam="1">  1       21 0.26744707E+00 0.69775408E+01</pdfrwt>
<pdfrwt beam="2">  1       21 0.51575551E-05 0.69775408E+01</pdfrwt>
<totfact> 0.32029640E+08</totfact>
</mgrwt>
</event>
<event>
 4    1  0.4039863E+006  0.1466521E+02  0.7546771E-02  0.1878460E+00
         21   -1    0    0  503  502  0.00000000000E+00  0.00000000000E+00  0.11677291846E+02  0.11677291846E+02  0.00000000000E+00 0. -1.
         21   -1    0    0  501  503 -0.00000000000E+00 -0.00000000000E+00 -0.21697632799E+02  0.21697632799E+02  0.00000000000E+00 0.  1.
          5    1    1    2  501    0 -0.18640684115E+01  0.13766027375E+02 -0.11498307002E+02  0.18635431968E+02  0.47000000000E+01 0. -1.
         -5    1    1    2    0  502  0.18640684115E+01 -0.13766027375E+02  0.14779660495E+01  0.14739492677E+02  0.47000000000E+01 0.  1.
<mgrwt>
<rscale>  2 0.14665206E+02</rscale>
<asrwt>0</asrwt>
<pdfrwt beam="1">  1       21 0.17965064E-02 0.14665206E+02</pdfrwt>
<pdfrwt beam="2">  1       21 0.33380974E-02 0.14665206E+02</pdfrwt>
<totfact> 0.40197102E+08</totfact>
</mgrwt>
</event>
<event>
 4    1  0.4039863E+006  0.1870655E+02  0.7546771E-02  0.1772345E+00
         21   -1    0    0  503  502  0.00000000000E+00  0.00000000000E+00  0.31664259338E+03  0.31664259338E+03  0.00000000000E+00 0.  1.
         21   -1    0    0  501  503 -0.00000000000E+00 -0.00000000000E+00 -0.11994605683E+01  0.11994605683E+01  0.00000000000E+00 0. -1.
          5    1    1    2  501    0  0.18104725205E+02  0.25309716508E+00  0.11315735568E+03  0.11469316578E+03  0.47000000000E+01 0. -1.
         -5    1    1    2    0  502 -0.18104725205E+02 -0.25309716508E+00  0.20228577713E+03  0.20314888817E+03  0.47000000000E+01 0.  1.
<mgrwt>
<rscale>  2 0.18706553E+02</rscale>
<asrwt>0</asrwt>
<pdfrwt beam="1">  1       21 0.48714179E-01 0.18706553E+02</pdfrwt>
<pdfrwt beam="2">  1       21 0.18453265E-03 0.18706553E+02</pdfrwt>
<totfact> 0.13639367E+08</totfact>
</mgrwt>
</event>
<event>
 4    1  0.4039863E+006  0.5794043E+01  0.7546771E-02  0.2443025E+00
         21   -1    0    0  503  502  0.00000000000E+00  0.00000000000E+00  0.11649622266E+04  0.11649622266E+04  0.00000000000E+00 0. -1.
         21   -1    0    0  501  503 -0.00000000000E+00 -0.00000000000E+00 -0.39353064922E-01  0.39353064922E-01  0.00000000000E+00 0. -1.
          5    1    1    2  501    0  0.19732851691E+01 -0.27544645884E+01  0.88386104775E+03  0.88388003861E+03  0.47000000000E+01 0. -1.
         -5    1    1    2    0  502 -0.19732851691E+01  0.27544645884E+01  0.28106182575E+03  0.28112154102E+03  0.47000000000E+01 0. -1.
<mgrwt>
<rscale>  2 0.57940426E+01</rscale>
<asrwt>0</asrwt>
<pdfrwt beam="1">  1       21 0.17919734E+00 0.57940426E+01</pdfrwt>
<pdfrwt beam="2">  1       21 0.60552507E-05 0.57940426E+01</pdfrwt>
<totfact> 0.59111676E+08</totfact>
</mgrwt>
</event>
<event>
 4    1  0.4039863E+006  0.5869589E+01  0.7546771E-02  0.2432712E+00
         21   -1    0    0  501  502  0.00000000000E+00  0.00000000000E+00  0.43690694699E+01  0.43690694699E+01  0.00000000000E+00 0.  1.
         21   -1    0    0  502  503 -0.00000000000E+00 -0.00000000000E+00 -0.82346832033E+01  0.82346832033E+01  0.00000000000E+00 0.  1.
          5    1    1    2  501    0  0.25009250503E+01 -0.24713255047E+01 -0.63501628386E+00  0.59038395590E+01  0.47000000000E+01 0.  1.
         -5    1    1    2    0  503 -0.25009250503E+01  0.24713255047E+01 -0.32305974495E+01  0.66999131142E+01  0.47000000000E+01 0.  1.
<mgrwt>
<rscale>  2 0.58695891E+01</rscale>
<asrwt>0</asrwt>
<pdfrwt beam="1">  1       21 0.67216454E-03 0.58695891E+01</pdfrwt>
<pdfrwt beam="2">  1       21 0.12668743E-02 0.58695891E+01</pdfrwt>
<totfact> 0.38675817E+09</totfact>
</mgrwt>
</event>
<event>
 4    1  0.4039863E+006  0.1447731E+02  0.7546771E-02  0.1884450E+00
         21   -1    0    0  503  502  0.00000000000E+00  0.00000000000E+00  0.26687085826E+02  0.26687085826E+02  0.00000000000E+00 0. -1.
         21   -1    0    0  501  503 -0.00000000000E+00 -0.00000000000E+00 -0.78574690836E+01  0.78574690836E+01  0.00000000000E+00 0.  1.
          5    1    1    2  501    0 -0.13946889550E+01  0.13621944712E+02  0.97927814238E+01  0.17478303780E+02  0.47000000000E+01 0. -1.
         -5    1    1    2    0  502  0.13946889550E+01 -0.13621944712E+02  0.90368353186E+01  0.17066251129E+02  0.47000000000E+01 0.  1.
<mgrwt>
<rscale>  2 0.14477311E+02</rscale>
<asrwt>0</asrwt>
<pdfrwt beam="1">  1       21 0.41057055E-02 0.14477311E+02</pdfrwt>
<pdfrwt beam="2">  1       21 0.12088414E-02 0.14477311E+02</pdfrwt>
<totfact> 0.52486133E+08</totfact>
</mgrwt>
</event>
<event>
 4    1  0.4039863E+006  0.9142773E+01  0.7546771E-02  0.2127329E+00
         21   -1    0    0  501  502  0.00000000000E+00  0.00000000000E+00  0.83599240295E+01  0.83599240295E+01  0.00000000000E+00 0. -1.
         21   -1    0    0  502  503 -0.00000000000E+00 -0.00000000000E+00 -0.54138220722E+02  0.54138220722E+02  0.00000000000E+00 0.  1.
          5    1    1    2  501    0  0.78179373210E+01  0.61656308842E+00  0.53270056215E+01  0.10581459393E+02  0.47000000000E+01 0. -1.
         -5    1    1    2    0  503 -0.78179373210E+01 -0.61656308842E+00 -0.51105302314E+02  0.51916685359E+02  0.47000000000E+01 0.  1.
<mgrwt>
<rscale>  2 0.91427728E+01</rscale>
<asrwt>0</asrwt>
<pdfrwt beam="1">  1       21 0.12861421E-02 0.91427728E+01</pdfrwt>
<pdfrwt beam="2">  1       21 0.83289574E-02 0.91427728E+01</pdfrwt>
<totfact> 0.12850073E+08</totfact>
</mgrwt>
</event>
<event>
 4    1  0.4039863E+006  0.8906374E+01  0.7546771E-02  0.2143151E+00
         21   -1    0    0  503  502  0.00000000000E+00  0.00000000000E+00  0.75255747913E+01  0.75255747913E+01  0.00000000000E+00 0. -1.
         21   -1    0    0  501  503 -0.00000000000E+00 -0.00000000000E+00 -0.34877083969E+02  0.34877083969E+02  0.00000000000E+00 0. -1.
          5    1    1    2  501    0  0.58995882356E+01  0.47358580579E+01 -0.31385919900E+02  0.32625135415E+02  0.47000000000E+01 0. -1.
         -5    1    1    2    0  502 -0.58995882356E+01 -0.47358580579E+01  0.40344107221E+01  0.97775233453E+01  0.47000000000E+01 0. -1.
<mgrwt>
<rscale>  2 0.89063737E+01</rscale>
<asrwt>0</asrwt>
<pdfrwt beam="1">  1       21 0.11577807E-02 0.89063737E+01</pdfrwt>
<pdfrwt beam="2">  1       21 0.53657054E-02 0.89063737E+01</pdfrwt>
<totfact> 0.29093285E+08</totfact>
</mgrwt>
</event>
<event>
 4    1  0.4039863E+006  0.4811964E+01  0.7546771E-02  0.2601633E+00
         21   -1    0    0  503  502  0.00000000000E+00  0.00000000000E+00  0.14656832096E+03  0.14656832096E+03  0.00000000000E+00 0. -1.
         21   -1    0    0  501  503 -0.00000000000E+00 -0.00000000000E+00 -0.85496275015E+00  0.85496275015E+00  0.00000000000E+00 0. -1.
          5    1    1    2  501    0  0.87946015332E+00  0.53994772380E+00  0.63028226202E+01  0.79297267725E+01  0.47000000000E+01 0. -1.
         -5    1    1    2    0  502 -0.87946015332E+00 -0.53994772380E+00  0.13941053559E+03  0.13949355694E+03  0.47000000000E+01 0. -1.
<mgrwt>
<rscale>  2 0.48119636E+01</rscale>
<asrwt>0</asrwt>
<pdfrwt beam="1">  1       21 0.22548952E-01 0.48119636E+01</pdfrwt>
<pdfrwt beam="2">  1       21 0.13153285E-03 0.48119636E+01</pdfrwt>
<totfact> 0.41533642E+08</totfact>
</mgrwt>
</event>
<event>
 4    1  0.4039863E+006  0.7166610E+01  0.7546771E-02  0.2284518E+00
         21   -1    0    0  501  502  0.00000000000E+00  0.00000000000E+00  0.57233312460E+01  0.57233312460E+01  0.00000000000E+00 0. -1.
         21   -1    0    0  502  503 -0.00000000000E+00 -0.00000000000E+00 -0.10851361390E+02  0.10851361390E+02  0.00000000000E+00 0.  1.
          5    1    1    2  501    0 -0.54102014431E+01 -0.50031016733E-02  0.88317233916E+00  0.72208239188E+01  0.47000000000E+01 0. -1.
         -5    1    1    2    0  503  0.54102014431E+01  0.50031016733E-02 -0.60112024836E+01  0.93538687175E+01  0.47000000000E+01 0.  1.
<mgrwt>
<rscale>  2 0.71666104E+01</rscale>
<asrwt>0</asrwt>
<pdfrwt beam="1">  1       21 0.88051250E-03 0.71666104E+01</pdfrwt>
<pdfrwt beam="2">  1       21 0.16694402E-02 0.71666104E+01</pdfrwt>
<totfact> 0.21066248E+09</totfact>
</mgrwt>
</event>
<event>
 4    1  0.4039863E+006  0.5599439E+01  0.7546771E-02  0.2470668E+00
         21   -1    0    0  501  502  0.00000000000E+00  0.00000000000E+00  0.23251932522E+03  0.23251932522E+03  0.00000000000E+00 0. -1.
         21   -1    0    0  502  503 -0.00000000000E+00 -0.00000000000E+00 -0.48704480775E+00  0.48704480775E+00  0.00000000000E+00 0. -1.
          5    1    1    2  501    0 -0.27020042741E+01 -0.14010327955E+01  0.21508765895E+03  0.21516053252E+03  0.47000000000E+01 0. -1.
         -5    1    1    2    0  503  0.27020042741E+01  0.14010327955E+01  0.16944621460E+02  0.17845837509E+02  0.47000000000E+01 0. -1.
<mgrwt>
<rscale>  2 0.55994393E+01</rscale>
<asrwt>0</asrwt>
<pdfrwt beam="1">  1       21 0.35772115E-01 0.55994393E+01</pdfrwt>
<pdfrwt beam="2">  1       21 0.74930156E-04 0.55994393E+01</pdfrwt>
<totfact> 0.46303213E+08</totfact>
</mgrwt>
</event>
<event>
 4    1  0.4039863E+006  0.5957300E+01  0.7546771E-02  0.2421014E+00
         21   -1    0    0  503  502  0.00000000000E+00  0.00000000000E+00  0.14388436602E+02  0.14388436602E+02  0.00000000000E+00 0.  1.
         21   -1    0    0  501  503 -0.00000000000E+00 -0.00000000000E+00 -0.63778906609E+01  0.63778906609E+01  0.00000000000E+00 0.  1.
          5    1    1    2  501    0  0.23539710125E+01  0.28032568175E+01 -0.41259414276E+01  0.72465730505E+01  0.47000000000E+01 0.  1.
         -5    1    1    2    0  502 -0.23539710125E+01 -0.28032568175E+01  0.12136487369E+02  0.13519754213E+02  0.47000000000E+01 0.  1.
<mgrwt>
<rscale>  2 0.59573004E+01</rscale>
<asrwt>0</asrwt>
<pdfrwt beam="1">  1       21 0.22136056E-02 0.59573004E+01</pdfrwt>
<pdfrwt beam="2">  1       21 0.98121395E-03 0.59573004E+01</pdfrwt>
<totfact> 0.10384694E+09</totfact>
</mgrwt>
</event>
<event>
 4    1  0.4039863E+006  0.1307536E+02  0.7546771E-02  0.1933194E+00
         21   -1    0    0  501  502  0.00000000000E+00  0.00000000000E+00  0.16913894175E+01  0.16913894175E+01  0.00000000000E+00 0. -1.
         21   -1    0    0  502  503 -0.00000000000E+00 -0.00000000000E+00 -0.12794708777E+03  0.12794708777E+03  0.00000000000E+00 0.  1.
          5    1    1    2  501    0  0.42930165320E+01 -0.11421251248E+02 -0.33424718391E+02  0.35891179564E+02  0.47000000000E+01 0. -1.
         -5    1    1    2    0  503 -0.42930165320E+01  0.11421251248E+02 -0.92830979967E+02  0.93747297628E+02  0.47000000000E+01 0.  1.
<mgrwt>
<rscale>  2 0.13075357E+02</rscale>
<asrwt>0</asrwt>
<pdfrwt beam="1">  1       21 0.26021371E-03 0.13075357E+02</pdfrwt>
<pdfrwt beam="2">  1       21 0.19684171E-01 0.13075357E+02</pdfrwt>
<totfact> 0.37367717E+08</totfact>
</mgrwt>
</event>
<event>
 4    1  0.4039863E+006  0.5829896E+01  0.7546771E-02  0.2438103E+00
         21   -1    0    0  501  502  0.00000000000E+00  0.00000000000E+00  0.25085677938E+02  0.25085677938E+02  0.00000000000E+00 0. -1.
         21   -1    0    0  502  503 -0.00000000000E+00 -0.00000000000E+00 -0.29277635564E+01  0.29277635564E+01  0.00000000000E+00 0.  1.
          5    1    1    2  501    0  0.41645478596E+00  0.34240687954E+01  0.21345375747E+02  0.22127194750E+02  0.47000000000E+01 0. -1.
         -5    1    1    2    0  503 -0.41645478596E+00 -0.34240687954E+01  0.81253863422E+00  0.58862467445E+01  0.47000000000E+01 0.  1.
<mgrwt>
<rscale>  2 0.58298955E+01</rscale>
<asrwt>0</asrwt>
<pdfrwt beam="1">  1       21 0.38593349E-02 0.58298955E+01</pdfrwt>
<pdfrwt beam="2">  1       21 0.45042518E-03 0.58298955E+01</pdfrwt>
<totfact> 0.13502866E+09</totfact>
</mgrwt>
</event>
<event>
 4    1  0.4039863E+006  0.6774676E+01  0.7546771E-02  0.2324327E+00
         21   -1    0    0  503  502  0.00000000000E+00  0.00000000000E+00  0.56781070116E+01  0.56781070116E+01  0.00000000000E+00 0.  1.
         21   -1    0    0  501  503 -0.00000000000E+00 -0.00000000000E+00 -0.86549905814E+01  0.86549905814E+01  0.00000000000E+00 0.  1.
          5    1    1    2  501    0 -0.44541906723E+01 -0.19915862778E+01 -0.33307618641E+01  0.75491857205E+01  0.47000000000E+01 0.  1.
         -5    1    1    2    0  502  0.44541906723E+01  0.19915862778E+01  0.35387829430E+00  0.67839118726E+01  0.47000000000E+01 0.  1.
<mgrwt>
<rscale>  2 0.67746757E+01</rscale>
<asrwt>0</asrwt>
<pdfrwt beam="1">  1       21 0.87355493E-03 0.67746757E+01</pdfrwt>
<pdfrwt beam="2">  1       21 0.13315370E-02 0.67746757E+01</pdfrwt>
<totfact> 0.28219128E+09</totfact>
</mgrwt>
</event>
<event>
 4    1  0.4039863E+006  0.6350436E+01  0.7546771E-02  0.2371929E+00
         21   -1    0    0  501  502  0.00000000000E+00  0.00000000000E+00  0.33223448704E+03  0.33223448704E+03  0.00000000000E+00 0.  1.
         21   -1    0    0  502  503 -0.00000000000E+00 -0.00000000000E+00 -0.13539482415E+00  0.13539482415E+00  0.00000000000E+00 0.  1.
          5    1    1    2  501    0  0.29017378691E+01 -0.31333624459E+01  0.21950822103E+03  0.21960006180E+03  0.47000000000E+01 0.  1.
         -5    1    1    2    0  503 -0.29017378691E+01  0.31333624459E+01  0.11259087119E+03  0.11276982007E+03  0.47000000000E+01 0.  1.
<mgrwt>
<rscale>  2 0.63504364E+01</rscale>
<asrwt>0</asrwt>
<pdfrwt beam="1">  1       21 0.51112345E-01 0.63504364E+01</pdfrwt>
<pdfrwt beam="2">  1       21 0.20830239E-04 0.63504364E+01</pdfrwt>
<totfact> 0.14970506E+09</totfact>
</mgrwt>
</event>
<event>
 4    1  0.4039863E+006  0.8114496E+01  0.7546771E-02  0.2201429E+00
         21   -1    0    0  501  502  0.00000000000E+00  0.00000000000E+00  0.68258874655E+00  0.68258874655E+00  0.00000000000E+00 0. -1.
         21   -1    0    0  502  503 -0.00000000000E+00 -0.00000000000E+00 -0.19350955503E+03  0.19350955503E+03  0.00000000000E+00 0.  1.
          5    1    1    2  501    0 -0.51899445873E+00 -0.65943679462E+01 -0.27652999427E+02  0.28818976754E+02  0.47000000000E+01 0. -1.
         -5    1    1    2    0  503  0.51899445873E+00  0.65943679462E+01 -0.16517396686E+03  0.16537316702E+03  0.47000000000E+01 0.  1.
<mgrwt>
<rscale>  2 0.81144959E+01</rscale>
<asrwt>0</asrwt>
<pdfrwt beam="1">  1       21 0.10501364E-03 0.81144959E+01</pdfrwt>
<pdfrwt beam="2">  1       21 0.29770704E-01 0.81144959E+01</pdfrwt>
<totfact> 0.51390707E+08</totfact>
</mgrwt>
</event>
<event>
 4    1  0.4039863E+006  0.9682902E+01  0.7546771E-02  0.2093496E+00
         21   -1    0    0  501  502  0.00000000000E+00  0.00000000000E+00  0.16139399270E+01  0.16139399270E+01  0.00000000000E+00 0. -1.
         21   -1    0    0  502  503 -0.00000000000E+00 -0.00000000000E+00 -0.76157756507E+02  0.76157756507E+02  0.00000000000E+00 0. -1.
          5    1    1    2  501    0 -0.80763347300E+01 -0.25379928847E+01 -0.56210632632E+02  0.57038529183E+02  0.47000000000E+01 0. -1.
         -5    1    1    2    0  503  0.80763347300E+01  0.25379928847E+01 -0.18333183948E+02  0.20733167250E+02  0.47000000000E+01 0. -1.
<mgrwt>
<rscale>  2 0.96829020E+01</rscale>
<asrwt>0</asrwt>
<pdfrwt beam="1">  1       21 0.24829847E-03 0.96829020E+01</pdfrwt>
<pdfrwt beam="2">  1       21 0.11716577E-01 0.96829020E+01</pdfrwt>
<totfact> 0.80826049E+08</totfact>
</mgrwt>
</event>
<event>
 4    1  0.4039863E+006  0.4836059E+01  0.7546771E-02  0.2597085E+00
         21   -1    0    0  501  502  0.00000000000E+00  0.00000000000E+00  0.16629828593E+00  0.16629828593E+00  0.00000000000E+00 0.  1.
         21   -1    0    0  502  503 -0.00000000000E+00 -0.00000000000E+00 -0.54247860866E+03  0.54247860866E+03  0.00000000000E+00 0.  1.
          5    1    1    2  501    0  0.99820944251E+00 -0.54867838619E+00 -0.37636952046E+02  0.37946378343E+02  0.47000000000E+01 0.  1.
         -5    1    1    2    0  503 -0.99820944251E+00  0.54867838619E+00 -0.50467535833E+03  0.50469852860E+03  0.47000000000E+01 0.  1.
<mgrwt>
<rscale>  2 0.48360594E+01</rscale>
<asrwt>0</asrwt>
<pdfrwt beam="1">  1       21 0.25584645E-04 0.48360594E+01</pdfrwt>
<pdfrwt beam="2">  1       21 0.83457291E-01 0.48360594E+01</pdfrwt>
<totfact> 0.37150588E+08</totfact>
</mgrwt>
</event>
<event>
 4    1  0.4039863E+006  0.7316498E+01  0.7546771E-02  0.2270221E+00
         21   -1    0    0  501  502  0.00000000000E+00  0.00000000000E+00  0.17461704584E+00  0.17461704584E+00  0.00000000000E+00 0.  1.
         21   -1    0    0  502  503 -0.00000000000E+00 -0.00000000000E+00 -0.62693049316E+03  0.62693049316E+03  0.00000000000E+00 0. -1.
          5    1    1    2  501    0  0.46184419351E+01 -0.31798025139E+01 -0.89235148048E+02  0.89534589947E+02  0.47000000000E+01 0.  1.
         -5    1    1    2    0  503 -0.46184419351E+01  0.31798025139E+01 -0.53752072807E+03  0.53757052026E+03  0.47000000000E+01 0. -1.
<mgrwt>
<rscale>  2 0.73164985E+01</rscale>
<asrwt>0</asrwt>
<pdfrwt beam="1">  1       21 0.26864353E-04 0.73164985E+01</pdfrwt>
<pdfrwt beam="2">  1       21 0.96450156E-01 0.73164985E+01</pdfrwt>
<totfact> 0.34407911E+08</totfact>
</mgrwt>
</event>
<event>
 4    1  0.4039863E+006  0.5433276E+01  0.7546771E-02  0.2495590E+00
         21   -1    0    0  503  502  0.00000000000E+00  0.00000000000E+00  0.46847921632E+00  0.46847921632E+00  0.00000000000E+00 0.  1.
         21   -1    0    0  501  503 -0.00000000000E+00 -0.00000000000E+00 -0.21279542001E+03  0.21279542001E+03  0.00000000000E+00 0. -1.
          5    1    1    2  501    0  0.24206671683E+01  0.12533393362E+01 -0.19562493191E+03  0.19570036912E+03  0.47000000000E+01 0. -1.
         -5    1    1    2    0  502 -0.24206671683E+01 -0.12533393362E+01 -0.16702008882E+02  0.17563530104E+02  0.47000000000E+01 0.  1.
<mgrwt>
<rscale>  2 0.54332761E+01</rscale>
<asrwt>0</asrwt>
<pdfrwt beam="1">  1       21 0.72073658E-04 0.54332761E+01</pdfrwt>
<pdfrwt beam="2">  1       21 0.32737788E-01 0.54332761E+01</pdfrwt>
<totfact> 0.55410760E+08</totfact>
</mgrwt>
</event>
<event>
 4    1  0.4039863E+006  0.4991494E+01  0.7546771E-02  0.2568665E+00
         21   -1    0    0  501  502  0.00000000000E+00  0.00000000000E+00  0.11735250186E+03  0.11735250186E+03  0.00000000000E+00 0.  1.
         21   -1    0    0  502  503 -0.00000000000E+00 -0.00000000000E+00 -0.21684772862E+00  0.21684772862E+00  0.00000000000E+00 0. -1.
          5    1    1    2  501    0  0.16579925332E+01  0.27582224580E+00  0.67072226793E+02  0.67257703083E+02  0.47000000000E+01 0.  1.
         -5    1    1    2    0  503 -0.16579925332E+01 -0.27582224580E+00  0.50063427342E+02  0.50311646508E+02  0.47000000000E+01 0. -1.
<mgrwt>
<rscale>  2 0.49914945E+01</rscale>
<asrwt>0</asrwt>
<pdfrwt beam="1">  1       21 0.18054180E-01 0.49914945E+01</pdfrwt>
<pdfrwt beam="2">  1       21 0.33361283E-04 0.49914945E+01</pdfrwt>
<totfact> 0.37677963E+09</totfact>
</mgrwt>
</event>
<event>
 4    1  0.4039863E+006  0.5153236E+01  0.7546771E-02  0.2540667E+00
         21   -1    0    0  503  502  0.00000000000E+00  0.00000000000E+00  0.15812868811E+02  0.15812868811E+02  0.00000000000E+00 0. -1.
         21   -1    0    0  501  503 -0.00000000000E+00 -0.00000000000E+00 -0.26919481669E+01  0.26919481669E+01  0.00000000000E+00 0. -1.
          5    1    1    2  501    0  0.13512049527E+01  0.16248357571E+01  0.88588749764E+00  0.52288280446E+01  0.47000000000E+01 0. -1.
         -5    1    1    2    0  502 -0.13512049527E+01 -0.16248357571E+01  0.12235033146E+02  0.13275988933E+02  0.47000000000E+01 0. -1.
<mgrwt>
<rscale>  2 0.51532365E+01</rscale>
<asrwt>0</asrwt>
<pdfrwt beam="1">  1       21 0.24327490E-02 0.51532365E+01</pdfrwt>
<pdfrwt beam="2">  1       21 0.41414588E-03 0.51532365E+01</pdfrwt>
<totfact> 0.26386615E+09</totfact>
</mgrwt>
</event>
<event>
 4    1  0.4039863E+006  0.5480978E+01  0.7546771E-02  0.2488304E+00
         21   -1    0    0  501  502  0.00000000000E+00  0.00000000000E+00  0.52157465524E-01  0.52157465524E-01  0.00000000000E+00 0. -1.
         21   -1    0    0  502  503 -0.00000000000E+00 -0.00000000000E+00 -0.66787156083E+03  0.66787156083E+03  0.00000000000E+00 0. -1.
          5    1    1    2  501    0 -0.15554752789E+01  0.23519389099E+01 -0.21002646666E+03  0.21009797195E+03  0.47000000000E+01 0. -1.
         -5    1    1    2    0  503  0.15554752789E+01 -0.23519389099E+01 -0.45779293670E+03  0.45782574634E+03  0.47000000000E+01 0. -1.
<mgrwt>
<rscale>  2 0.54809780E+01</rscale>
<asrwt>0</asrwt>
<pdfrwt beam="1">  1       21 0.80242239E-05 0.54809780E+01</pdfrwt>
<pdfrwt beam="2">  1       21 0.10274949E+00 0.54809780E+01</pdfrwt>
<totfact> 0.12610603E+09</totfact>
</mgrwt>
</event>
<event>
 4    1  0.4039863E+006  0.5373992E+01  0.7546771E-02  0.2504798E+00
         21   -1    0    0  501  502  0.00000000000E+00  0.00000000000E+00  0.24532997087E+03  0.24532997087E+03  0.00000000000E+00 0.  1.
         21   -1    0    0  502  503 -0.00000000000E+00 -0.00000000000E+00 -0.29086675451E+00  0.29086675451E+00  0.00000000000E+00 0.  1.
          5    1    1    2  501    0  0.11500465310E+01  0.23382008513E+01  0.21727357725E+03  0.21734002660E+03  0.47000000000E+01 0.  1.
         -5    1    1    2    0  503 -0.11500465310E+01 -0.23382008513E+01  0.27765526864E+02  0.28280811026E+02  0.47000000000E+01 0.  1.
<mgrwt>
<rscale>  2 0.53739920E+01</rscale>
<asrwt>0</asrwt>
<pdfrwt beam="1">  1       21 0.37742907E-01 0.53739920E+01</pdfrwt>
<pdfrwt beam="2">  1       21 0.44748927E-04 0.53739920E+01</pdfrwt>
<totfact> 0.81277979E+08</totfact>
</mgrwt>
</event>
<event>
 4    1  0.4039863E+006  0.4876552E+01  0.7546771E-02  0.2589530E+00
         21   -1    0    0  501  502  0.00000000000E+00  0.00000000000E+00  0.23128556449E+01  0.23128556449E+01  0.00000000000E+00 0.  1.
         21   -1    0    0  502  503 -0.00000000000E+00 -0.00000000000E+00 -0.21080380266E+02  0.21080380266E+02  0.00000000000E+00 0.  1.
          5    1    1    2  501    0  0.10163721500E+01 -0.81101769436E+00 -0.17755209931E+02  0.18412719564E+02  0.47000000000E+01 0.  1.
         -5    1    1    2    0  503 -0.10163721500E+01  0.81101769436E+00 -0.10123146899E+01  0.49805163467E+01  0.47000000000E+01 0.  1.
<mgrwt>
<rscale>  2 0.48765523E+01</rscale>
<asrwt>0</asrwt>
<pdfrwt beam="1">  1       21 0.35582397E-03 0.48765523E+01</pdfrwt>
<pdfrwt beam="2">  1       21 0.32431352E-02 0.48765523E+01</pdfrwt>
<totfact> 0.20345717E+09</totfact>
</mgrwt>
</event>
<event>
 4    1  0.4039863E+006  0.6905975E+01  0.7546771E-02  0.2310579E+00
         21   -1    0    0  503  502  0.00000000000E+00  0.00000000000E+00  0.22164987083E+03  0.22164987083E+03  0.00000000000E+00 0.  1.
         21   -1    0    0  501  503 -0.00000000000E+00 -0.00000000000E+00 -0.21708152785E+00  0.21708152785E+00  0.00000000000E+00 0. -1.
          5    1    1    2  501    0 -0.28383768730E+01  0.41888066858E+01  0.10030762344E+03  0.10054507350E+03  0.47000000000E+01 0.  1.
         -5    1    1    2    0  502  0.28383768730E+01 -0.41888066858E+01  0.12112516586E+03  0.12132187886E+03  0.47000000000E+01 0. -1.
<mgrwt>
<rscale>  2 0.69059746E+01</rscale>
<asrwt>0</asrwt>
<pdfrwt beam="1">  1       21 0.34099799E-01 0.69059746E+01</pdfrwt>
<pdfrwt beam="2">  1       21 0.33397335E-04 0.69059746E+01</pdfrwt>
<totfact> 0.17275485E+09</totfact>
</mgrwt>
</event>
<event>
 4    1  0.4039863E+006  0.1060931E+02  0.7546771E-02  0.2041884E+00
         21   -1    0    0  503  502  0.00000000000E+00  0.00000000000E+00  0.69646782858E+01  0.69646782858E+01  0.00000000000E+00 0. -1.
         21   -1    0    0  501  503 -0.00000000000E+00 -0.00000000000E+00 -0.18627178286E+02  0.18627178286E+02  0.00000000000E+00 0.  1.
          5    1    1    2  501    0  0.46071434598E+01  0.83211555707E+01 -0.10487056060E+02  0.14917632041E+02  0.47000000000E+01 0.  1.
         -5    1    1    2    0  502 -0.46071434598E+01 -0.83211555707E+01 -0.11754439403E+01  0.10674224531E+02  0.47000000000E+01 0. -1.
<mgrwt>
<rscale>  2 0.10609307E+02</rscale>
<asrwt>0</asrwt>
<pdfrwt beam="1">  1       21 0.10714890E-02 0.10609307E+02</pdfrwt>
<pdfrwt beam="2">  1       21 0.28657197E-02 0.10609307E+02</pdfrwt>
<totfact> 0.92772817E+08</totfact>
</mgrwt>
</event>
<event>
 4    1  0.4039863E+006  0.7723196E+01  0.7546771E-02  0.2233723E+00
         21   -1    0    0  501  502  0.00000000000E+00  0.00000000000E+00  0.55448097942E+01  0.55448097942E+01  0.00000000000E+00 0. -1.
         21   -1    0    0  502  503 -0.00000000000E+00 -0.00000000000E+00 -0.15059413638E+02  0.15059413638E+02  0.00000000000E+00 0.  1.
          5    1    1    2  501    0 -0.39915788566E+01 -0.46502754821E+01  0.74897272900E+00  0.77594280702E+01  0.47000000000E+01 0. -1.
         -5    1    1    2    0  503  0.39915788566E+01  0.46502754821E+01 -0.10263576573E+02  0.12844795362E+02  0.47000000000E+01 0.  1.
<mgrwt>
<rscale>  2 0.77231965E+01</rscale>
<asrwt>0</asrwt>
<pdfrwt beam="1">  1       21 0.85304766E-03 0.77231965E+01</pdfrwt>
<pdfrwt beam="2">  1       21 0.23168329E-02 0.77231965E+01</pdfrwt>
<totfact> 0.14463011E+09</totfact>
</mgrwt>
</event>
<event>
 4    1  0.4039863E+006  0.9428824E+01  0.7546771E-02  0.2109030E+00
         21   -1    0    0  501  502  0.00000000000E+00  0.00000000000E+00  0.70710024623E+03  0.70710024623E+03  0.00000000000E+00 0.  1.
         21   -1    0    0  502  503 -0.00000000000E+00 -0.00000000000E+00 -0.15994279260E+00  0.15994279260E+00  0.00000000000E+00 0. -1.
          5    1    1    2  501    0 -0.59696879257E+01 -0.55835073907E+01  0.51702747168E+03  0.51711343940E+03  0.47000000000E+01 0.  1.
         -5    1    1    2    0  503  0.59696879257E+01  0.55835073907E+01  0.18991283176E+03  0.19014674963E+03  0.47000000000E+01 0. -1.
<mgrwt>
<rscale>  2 0.94288244E+01</rscale>
<asrwt>0</asrwt>
<pdfrwt beam="1">  1       21 0.10878215E+00 0.94288244E+01</pdfrwt>
<pdfrwt beam="2">  1       21 0.24607150E-04 0.94288244E+01</pdfrwt>
<totfact> 0.34353154E+08</totfact>
</mgrwt>
</event>
<event>
 4    1  0.4039863E+006  0.4857683E+01  0.7546771E-02  0.2593037E+00
         21   -1    0    0  501  502  0.00000000000E+00  0.00000000000E+00  0.69237025774E+01  0.69237025774E+01  0.00000000000E+00 0. -1.
         21   -1    0    0  502  503 -0.00000000000E+00 -0.00000000000E+00 -0.16172278072E+02  0.16172278072E+02  0.00000000000E+00 0. -1.
          5    1    1    2  501    0 -0.12276040624E+01 -0.83380105999E-02  0.56349768248E+01  0.74397610897E+01  0.47000000000E+01 0. -1.
         -5    1    1    2    0  503  0.12276040624E+01  0.83380105999E-02 -0.14883552319E+02  0.15656219560E+02  0.47000000000E+01 0. -1.
<mgrwt>
<rscale>  2 0.48576827E+01</rscale>
<asrwt>0</asrwt>
<pdfrwt beam="1">  1       21 0.10651850E-02 0.48576827E+01</pdfrwt>
<pdfrwt beam="2">  1       21 0.24880427E-02 0.48576827E+01</pdfrwt>
<totfact> 0.65398606E+08</totfact>
</mgrwt>
</event>
<event>
 4    1  0.4039863E+006  0.1012691E+02  0.7546771E-02  0.2067836E+00
         21   -1    0    0  501  502  0.00000000000E+00  0.00000000000E+00  0.30367543397E+03  0.30367543397E+03  0.00000000000E+00 0. -1.
         21   -1    0    0  502  503 -0.00000000000E+00 -0.00000000000E+00 -0.34069397494E+00  0.34069397494E+00  0.00000000000E+00 0.  1.
          5    1    1    2  501    0  0.10256158028E+01  0.89113596992E+01  0.16589343225E+03  0.16620224151E+03  0.47000000000E+01 0. -1.
         -5    1    1    2    0  503 -0.10256158028E+01 -0.89113596992E+01  0.13744130775E+03  0.13781388644E+03  0.47000000000E+01 0.  1.
<mgrwt>
<rscale>  2 0.10126906E+02</rscale>
<asrwt>0</asrwt>
<pdfrwt beam="1">  1       21 0.46719081E-01 0.10126906E+02</pdfrwt>
<pdfrwt beam="2">  1       21 0.52414700E-04 0.10126906E+02</pdfrwt>
<totfact> 0.67250669E+08</totfact>
</mgrwt>
</event>
<event>
 4    1  0.4039863E+006  0.7476657E+01  0.7546771E-02  0.2255464E+00
         21   -1    0    0  501  502  0.00000000000E+00  0.00000000000E+00  0.29333867122E+01  0.29333867122E+01  0.00000000000E+00 0.  1.
         21   -1    0    0  502  503 -0.00000000000E+00 -0.00000000000E+00 -0.19167846250E+02  0.19167846250E+02  0.00000000000E+00 0.  1.
          5    1    1    2  501    0 -0.50326094150E+01  0.29125995716E+01 -0.72753859783E+01  0.10432240168E+02  0.47000000000E+01 0.  1.
         -5    1    1    2    0  503  0.50326094150E+01 -0.29125995716E+01 -0.89590735596E+01  0.11668992794E+02  0.47000000000E+01 0.  1.
<mgrwt>
<rscale>  2 0.74766566E+01</rscale>
<asrwt>0</asrwt>
<pdfrwt beam="1">  1       21 0.45129026E-03 0.74766566E+01</pdfrwt>
<pdfrwt beam="2">  1       21 0.29488994E-02 0.74766566E+01</pdfrwt>
<totfact> 0.24381450E+09</totfact>
</mgrwt>
</event>
<event>
 4    1  0.4039863E+006  0.9522145E+01  0.7546771E-02  0.2103248E+00
         21   -1    0    0  503  502  0.00000000000E+00  0.00000000000E+00  0.13052999367E+02  0.13052999367E+02  0.00000000000E+00 0. -1.
         21   -1    0    0  501  503 -0.00000000000E+00 -0.00000000000E+00 -0.10008276229E+02  0.10008276229E+02  0.00000000000E+00 0. -1.
          5    1    1    2  501    0  0.34616053965E+01  0.75231998969E+01  0.79001202274E+01  0.12372677488E+02  0.47000000000E+01 0. -1.
         -5    1    1    2    0  502 -0.34616053965E+01 -0.75231998969E+01 -0.48553970901E+01  0.10688598108E+02  0.47000000000E+01 0. -1.
<mgrwt>
<rscale>  2 0.95221452E+01</rscale>
<asrwt>0</asrwt>
<pdfrwt beam="1">  1       21 0.20081537E-02 0.95221452E+01</pdfrwt>
<pdfrwt beam="2">  1       21 0.15397348E-02 0.95221452E+01</pdfrwt>
<totfact> 0.87167810E+08</totfact>
</mgrwt>
</event>
<event>
 4    1  0.4039863E+006  0.1399626E+02  0.7546771E-02  0.1900338E+00
         21   -1    0    0  501  502  0.00000000000E+00  0.00000000000E+00  0.19804164781E+02  0.19804164781E+02  0.00000000000E+00 0.  1.
         21   -1    0    0  502  503 -0.00000000000E+00 -0.00000000000E+00 -0.34979059408E+02  0.34979059408E+02  0.00000000000E+00 0. -1.
          5    1    1    2  501    0  0.98906906709E+01 -0.87166242223E+01  0.15610079511E+02  0.20965921924E+02  0.47000000000E+01 0.  1.
         -5    1    1    2    0  503 -0.98906906709E+01  0.87166242223E+01 -0.30784974138E+02  0.33817302265E+02  0.47000000000E+01 0. -1.
<mgrwt>
<rscale>  2 0.13996260E+02</rscale>
<asrwt>0</asrwt>
<pdfrwt beam="1">  1       21 0.30467946E-02 0.13996260E+02</pdfrwt>
<pdfrwt beam="2">  1       21 0.53813938E-02 0.13996260E+02</pdfrwt>
<totfact> 0.84716591E+07</totfact>
</mgrwt>
</event>
<event>
 4    1  0.4039863E+006  0.7553647E+01  0.7546771E-02  0.2248551E+00
         21   -1    0    0  503  502  0.00000000000E+00  0.00000000000E+00  0.53580627537E+02  0.53580627537E+02  0.00000000000E+00 0.  1.
         21   -1    0    0  501  503 -0.00000000000E+00 -0.00000000000E+00 -0.25264027084E+01  0.25264027084E+01  0.00000000000E+00 0.  1.
          5    1    1    2  501    0  0.43623504887E+01  0.39921768552E+01  0.41899330187E+01  0.86378884301E+01  0.47000000000E+01 0.  1.
         -5    1    1    2    0  502 -0.43623504887E+01 -0.39921768552E+01  0.46864291810E+02  0.47469141815E+02  0.47000000000E+01 0.  1.
<mgrwt>
<rscale>  2 0.75536467E+01</rscale>
<asrwt>0</asrwt>
<pdfrwt beam="1">  1       21 0.82431726E-02 0.75536467E+01</pdfrwt>
<pdfrwt beam="2">  1       21 0.38867738E-03 0.75536467E+01</pdfrwt>
<totfact> 0.64408692E+08</totfact>
</mgrwt>
</event>
<event>
 4    1  0.4039863E+006  0.5490954E+01  0.7546771E-02  0.2486794E+00
         21   -1    0    0  503  502  0.00000000000E+00  0.00000000000E+00  0.44717571847E+01  0.44717571847E+01  0.00000000000E+00 0. -1.
         21   -1    0    0  501  503 -0.00000000000E+00 -0.00000000000E+00 -0.19627542647E+02  0.19627542647E+02  0.00000000000E+00 0. -1.
          5    1    1    2  501    0  0.79797541693E+00 -0.27246678497E+01 -0.17340938181E+02  0.18189522166E+02  0.47000000000E+01 0. -1.
         -5    1    1    2    0  502 -0.79797541693E+00  0.27246678497E+01  0.21851527180E+01  0.59097776657E+01  0.47000000000E+01 0. -1.
<mgrwt>
<rscale>  2 0.54909543E+01</rscale>
<asrwt>0</asrwt>
<pdfrwt beam="1">  1       21 0.68796265E-03 0.54909543E+01</pdfrwt>
<pdfrwt beam="2">  1       21 0.30196219E-02 0.54909543E+01</pdfrwt>
<totfact> 0.10189064E+09</totfact>
</mgrwt>
</event>
<event>
 4    1  0.4039863E+006  0.6261198E+01  0.7546771E-02  0.2382619E+00
         21   -1    0    0  501  502  0.00000000000E+00  0.00000000000E+00  0.73284971613E+01  0.73284971613E+01  0.00000000000E+00 0. -1.
         21   -1    0    0  502  503 -0.00000000000E+00 -0.00000000000E+00 -0.71896592509E+01  0.71896592509E+01  0.00000000000E+00 0. -1.
          5    1    1    2  501    0 -0.26562049025E+01 -0.31713047279E+01  0.37420246728E+01  0.72941995320E+01  0.47000000000E+01 0. -1.
         -5    1    1    2    0  503  0.26562049025E+01  0.31713047279E+01 -0.36031867624E+01  0.72239568801E+01  0.47000000000E+01 0. -1.
<mgrwt>
<rscale>  2 0.62611978E+01</rscale>
<asrwt>0</asrwt>
<pdfrwt beam="1">  1       21 0.11274611E-02 0.62611978E+01</pdfrwt>
<pdfrwt beam="2">  1       21 0.11061014E-02 0.62611978E+01</pdfrwt>
<totfact> 0.23970992E+09</totfact>
</mgrwt>
</event>
<event>
 4    1  0.4039863E+006  0.6038496E+01  0.7546771E-02  0.2410440E+00
         21   -1    0    0  501  502  0.00000000000E+00  0.00000000000E+00  0.72767712924E+01  0.72767712924E+01  0.00000000000E+00 0.  1.
         21   -1    0    0  502  503 -0.00000000000E+00 -0.00000000000E+00 -0.60248780212E+02  0.60248780212E+02  0.00000000000E+00 0.  1.
          5    1    1    2  501    0 -0.13348212369E+01 -0.35484767473E+01  0.58422589066E+01  0.84021083124E+01  0.47000000000E+01 0.  1.
         -5    1    1    2    0  503  0.13348212369E+01  0.35484767473E+01 -0.58814267826E+02  0.59123443192E+02  0.47000000000E+01 0.  1.
<mgrwt>
<rscale>  2 0.60384961E+01</rscale>
<asrwt>0</asrwt>
<pdfrwt beam="1">  1       21 0.11195033E-02 0.60384961E+01</pdfrwt>
<pdfrwt beam="2">  1       21 0.92690432E-02 0.60384961E+01</pdfrwt>
<totfact> 0.10473463E+08</totfact>
</mgrwt>
</event>
<event>
 4    1  0.4039863E+006  0.8734647E+01  0.7546771E-02  0.2155070E+00
         21   -1    0    0  503  502  0.00000000000E+00  0.00000000000E+00  0.14002469091E+01  0.14002469091E+01  0.00000000000E+00 0.  1.
         21   -1    0    0  501  503 -0.00000000000E+00 -0.00000000000E+00 -0.24486945147E+03  0.24486945147E+03  0.00000000000E+00 0. -1.
          5    1    1    2  501    0  0.16732106121E+01  0.71696878319E+01 -0.23030917031E+03  0.23047474479E+03  0.47000000000E+01 0. -1.
         -5    1    1    2    0  502 -0.16732106121E+01 -0.71696878319E+01 -0.13160034247E+02  0.15794953584E+02  0.47000000000E+01 0.  1.
<mgrwt>
<rscale>  2 0.87346470E+01</rscale>
<asrwt>0</asrwt>
<pdfrwt beam="1">  1       21 0.21542255E-03 0.87346470E+01</pdfrwt>
<pdfrwt beam="2">  1       21 0.37672233E-01 0.87346470E+01</pdfrwt>
<totfact> 0.13157093E+08</totfact>
</mgrwt>
</event>
<event>
 4    1  0.4039863E+006  0.8325722E+01  0.7546771E-02  0.2185019E+00
         21   -1    0    0  503  502  0.00000000000E+00  0.00000000000E+00  0.14568576752E+01  0.14568576752E+01  0.00000000000E+00 0.  1.
         21   -1    0    0  501  503 -0.00000000000E+00 -0.00000000000E+00 -0.51542389600E+02  0.51542389600E+02  0.00000000000E+00 0.  1.
          5    1    1    2  501    0 -0.33118715177E+01 -0.60215579208E+01 -0.32389973456E+02  0.33442907069E+02  0.47000000000E+01 0.  1.
         -5    1    1    2    0  502  0.33118715177E+01  0.60215579208E+01 -0.17695558469E+02  0.19556340207E+02  0.47000000000E+01 0.  1.
<mgrwt>
<rscale>  2 0.83257224E+01</rscale>
<asrwt>0</asrwt>
<pdfrwt beam="1">  1       21 0.22413193E-03 0.83257224E+01</pdfrwt>
<pdfrwt beam="2">  1       21 0.79295991E-02 0.83257224E+01</pdfrwt>
<totfact> 0.15711714E+09</totfact>
</mgrwt>
</event>
<event>
 4    1  0.4039863E+006  0.8515017E+01  0.7546771E-02  0.2170869E+00
         21   -1    0    0  503  502  0.00000000000E+00  0.00000000000E+00  0.44628289043E+02  0.44628289043E+02  0.00000000000E+00 0. -1.
         21   -1    0    0  501  503 -0.00000000000E+00 -0.00000000000E+00 -0.34488916319E+01  0.34488916319E+01  0.00000000000E+00 0. -1.
          5    1    1    2  501    0  0.67749888824E+01  0.21248608687E+01  0.31069392861E+01  0.90641370133E+01  0.47000000000E+01 0. -1.
         -5    1    1    2    0  502 -0.67749888824E+01 -0.21248608687E+01  0.38072458125E+02  0.39013043662E+02  0.47000000000E+01 0. -1.
<mgrwt>
<rscale>  2 0.85150166E+01</rscale>
<asrwt>0</asrwt>
<pdfrwt beam="1">  1       21 0.68658902E-02 0.85150166E+01</pdfrwt>
<pdfrwt beam="2">  1       21 0.53059874E-03 0.85150166E+01</pdfrwt>
<totfact> 0.59399617E+08</totfact>
</mgrwt>
</event>
<event>
 4    1  0.4039863E+006  0.2439738E+02  0.7546771E-02  0.1669811E+00
         21   -1    0    0  501  502  0.00000000000E+00  0.00000000000E+00  0.47688282377E+01  0.47688282377E+01  0.00000000000E+00 0. -1.
         21   -1    0    0  502  503 -0.00000000000E+00 -0.00000000000E+00 -0.14639822232E+03  0.14639822232E+03  0.00000000000E+00 0.  1.
          5    1    1    2  501    0  0.22755947135E+02  0.74370118966E+01 -0.41794910107E+02  0.48394697921E+02  0.47000000000E+01 0. -1.
         -5    1    1    2    0  503 -0.22755947135E+02 -0.74370118966E+01 -0.99834483978E+02  0.10277235264E+03  0.47000000000E+01 0.  1.
<mgrwt>
<rscale>  2 0.24397383E+02</rscale>
<asrwt>0</asrwt>
<pdfrwt beam="1">  1       21 0.73366594E-03 0.24397383E+02</pdfrwt>
<pdfrwt beam="2">  1       21 0.22522802E-01 0.24397383E+02</pdfrwt>
<totfact> 0.80716702E+07</totfact>
</mgrwt>
</event>
<event>
 4    1  0.4039863E+006  0.6241922E+01  0.7546771E-02  0.2384962E+00
         21   -1    0    0  503  502  0.00000000000E+00  0.00000000000E+00  0.97943579459E+02  0.97943579459E+02  0.00000000000E+00 0. -1.
         21   -1    0    0  501  503 -0.00000000000E+00 -0.00000000000E+00 -0.42403038203E+00  0.42403038203E+00  0.00000000000E+00 0. -1.
          5    1    1    2  501    0 -0.66314115635E+00 -0.40536201619E+01  0.36526107719E+02  0.37055608722E+02  0.47000000000E+01 0. -1.
         -5    1    1    2    0  502  0.66314115635E+00  0.40536201619E+01  0.60993441358E+02  0.61312001120E+02  0.47000000000E+01 0. -1.
<mgrwt>
<rscale>  2 0.62419222E+01</rscale>
<asrwt>0</asrwt>
<pdfrwt beam="1">  1       21 0.15068225E-01 0.62419222E+01</pdfrwt>
<pdfrwt beam="2">  1       21 0.65235521E-04 0.62419222E+01</pdfrwt>
<totfact> 0.25035420E+09</totfact>
</mgrwt>
</event>
<event>
 4    1  0.4039863E+006  0.5601987E+01  0.7546771E-02  0.2470296E+00
         21   -1    0    0  503  502  0.00000000000E+00  0.00000000000E+00  0.26310674351E+01  0.26310674351E+01  0.00000000000E+00 0.  1.
         21   -1    0    0  501  503 -0.00000000000E+00 -0.00000000000E+00 -0.22866344371E+02  0.22866344371E+02  0.00000000000E+00 0.  1.
          5    1    1    2  501    0 -0.19705510650E+01  0.23257661302E+01 -0.18935269553E+02  0.19746561540E+02  0.47000000000E+01 0.  1.
         -5    1    1    2    0  502  0.19705510650E+01 -0.23257661302E+01 -0.13000073830E+01  0.57508502665E+01  0.47000000000E+01 0.  1.
<mgrwt>
<rscale>  2 0.56019871E+01</rscale>
<asrwt>0</asrwt>
<pdfrwt beam="1">  1       21 0.40477962E-03 0.56019871E+01</pdfrwt>
<pdfrwt beam="2">  1       21 0.35178990E-02 0.56019871E+01</pdfrwt>
<totfact> 0.17309830E+09</totfact>
</mgrwt>
</event>
<event>
 4    1  0.4039863E+006  0.7455104E+01  0.7546771E-02  0.2257420E+00
         21   -1    0    0  501  502  0.00000000000E+00  0.00000000000E+00  0.64074698543E+02  0.64074698543E+02  0.00000000000E+00 0. -1.
         21   -1    0    0  502  503 -0.00000000000E+00 -0.00000000000E+00 -0.40531244806E+01  0.40531244806E+01  0.00000000000E+00 0.  1.
          5    1    1    2  501    0 -0.57506426494E+01  0.64705343159E+00  0.60210545153E+02  0.60670324844E+02  0.47000000000E+01 0. -1.
         -5    1    1    2    0  503  0.57506426494E+01 -0.64705343159E+00 -0.18897109092E+00  0.74574981795E+01  0.47000000000E+01 0.  1.
<mgrwt>
<rscale>  2 0.74551036E+01</rscale>
<asrwt>0</asrwt>
<pdfrwt beam="1">  1       21 0.98576452E-02 0.74551036E+01</pdfrwt>
<pdfrwt beam="2">  1       21 0.62355766E-03 0.74551036E+01</pdfrwt>
<totfact> 0.24900035E+08</totfact>
</mgrwt>
</event>
<event>
 4    1  0.4039863E+006  0.6286241E+01  0.7546771E-02  0.2379594E+00
         21   -1    0    0  501  502  0.00000000000E+00  0.00000000000E+00  0.11239632444E+03  0.11239632444E+03  0.00000000000E+00 0.  1.
         21   -1    0    0  502  503 -0.00000000000E+00 -0.00000000000E+00 -0.21654387828E+01  0.21654387828E+01  0.00000000000E+00 0.  1.
          5    1    1    2  501    0  0.22569970928E+01 -0.35118072860E+01  0.10754037938E+03  0.10772395288E+03  0.47000000000E+01 0.  1.
         -5    1    1    2    0  503 -0.22569970928E+01  0.35118072860E+01  0.26905062765E+01  0.68378103450E+01  0.47000000000E+01 0.  1.
<mgrwt>
<rscale>  2 0.62862410E+01</rscale>
<asrwt>0</asrwt>
<pdfrwt beam="1">  1       21 0.17291738E-01 0.62862410E+01</pdfrwt>
<pdfrwt beam="2">  1       21 0.33314452E-03 0.62862410E+01</pdfrwt>
<totfact> 0.22095296E+08</totfact>
</mgrwt>
</event>
<event>
 4    1  0.4039863E+006  0.2538706E+02  0.7546771E-02  0.1655504E+00
         21   -1    0    0  503  502  0.00000000000E+00  0.00000000000E+00  0.40242813680E+02  0.40242813680E+02  0.00000000000E+00 0.  1.
         21   -1    0    0  501  503 -0.00000000000E+00 -0.00000000000E+00 -0.45488834610E+02  0.45488834610E+02  0.00000000000E+00 0. -1.
          5    1    1    2  501    0 -0.22176003228E+02 -0.11429679435E+02 -0.37127414066E+02  0.44977189400E+02  0.47000000000E+01 0. -1.
         -5    1    1    2    0  502  0.22176003228E+02  0.11429679435E+02  0.31881393135E+02  0.40754458890E+02  0.47000000000E+01 0.  1.
<mgrwt>
<rscale>  2 0.25387058E+02</rscale>
<asrwt>0</asrwt>
<pdfrwt beam="1">  1       21 0.61912021E-02 0.25387058E+02</pdfrwt>
<pdfrwt beam="2">  1       21 0.69982822E-02 0.25387058E+02</pdfrwt>
<totfact> 0.21703282E+07</totfact>
</mgrwt>
</event>
<event>
 4    1  0.4039863E+006  0.5142138E+01  0.7546771E-02  0.2542540E+00
         21   -1    0    0  501  502  0.00000000000E+00  0.00000000000E+00  0.42620680197E+02  0.42620680197E+02  0.00000000000E+00 0. -1.
         21   -1    0    0  502  503 -0.00000000000E+00 -0.00000000000E+00 -0.46604829682E+01  0.46604829682E+01  0.00000000000E+00 0. -1.
          5    1    1    2  501    0 -0.16594978969E+01  0.12639816636E+01  0.40991018743E+02  0.41312288734E+02  0.47000000000E+01 0. -1.
         -5    1    1    2    0  503  0.16594978969E+01 -0.12639816636E+01 -0.30308215141E+01  0.59688744304E+01  0.47000000000E+01 0. -1.
<mgrwt>
<rscale>  2 0.51421380E+01</rscale>
<asrwt>0</asrwt>
<pdfrwt beam="1">  1       21 0.65570275E-02 0.51421380E+01</pdfrwt>
<pdfrwt beam="2">  1       21 0.71699741E-03 0.51421380E+01</pdfrwt>
<totfact> 0.29239853E+08</totfact>
</mgrwt>
</event>
<event>
 4    1  0.4039863E+006  0.4926202E+01  0.7546771E-02  0.2580414E+00
         21   -1    0    0  501  502  0.00000000000E+00  0.00000000000E+00  0.18503783784E-01  0.18503783784E-01  0.00000000000E+00 0. -1.
         21   -1    0    0  502  503 -0.00000000000E+00 -0.00000000000E+00 -0.20474965474E+04  0.20474965474E+04  0.00000000000E+00 0.  1.
          5    1    1    2  501    0 -0.29522480037E+00  0.14457885080E+01 -0.40993829507E+03  0.40996789292E+03  0.47000000000E+01 0. -1.
         -5    1    1    2    0  503  0.29522480037E+00 -0.14457885080E+01 -0.16375397486E+04  0.16375471583E+04  0.47000000000E+01 0.  1.
<mgrwt>
<rscale>  2 0.49262016E+01</rscale>
<asrwt>0</asrwt>
<pdfrwt beam="1">  1       21 0.28441468E-05 0.49262016E+01</pdfrwt>
<pdfrwt beam="2">  1       21 0.31528623E+00 0.49262016E+01</pdfrwt>
<totfact> 0.40801244E+08</totfact>
</mgrwt>
</event>
<event>
 4    1  0.4039863E+006  0.5052523E+01  0.7546771E-02  0.2557920E+00
         21   -1    0    0  501  502  0.00000000000E+00  0.00000000000E+00  0.21922201584E+02  0.21922201584E+02  0.00000000000E+00 0.  1.
         21   -1    0    0  502  503 -0.00000000000E+00 -0.00000000000E+00 -0.12312642373E+01  0.12312642373E+01  0.00000000000E+00 0.  1.
          5    1    1    2  501    0  0.91315276704E-01 -0.18519313219E+01  0.13041618264E+02  0.13986128665E+02  0.47000000000E+01 0.  1.
         -5    1    1    2    0  503 -0.91315276704E-01  0.18519313219E+01  0.76493190824E+01  0.91673371557E+01  0.47000000000E+01 0.  1.
<mgrwt>
<rscale>  2 0.50525229E+01</rscale>
<asrwt>0</asrwt>
<pdfrwt beam="1">  1       21 0.33726461E-02 0.50525229E+01</pdfrwt>
<pdfrwt beam="2">  1       21 0.18942528E-03 0.50525229E+01</pdfrwt>
<totfact> 0.46795353E+09</totfact>
</mgrwt>
</event>
<event>
 4    1  0.4039863E+006  0.4871113E+01  0.7546771E-02  0.2590539E+00
         21   -1    0    0  503  502  0.00000000000E+00  0.00000000000E+00  0.54341952373E+01  0.54341952373E+01  0.00000000000E+00 0. -1.
         21   -1    0    0  501  503 -0.00000000000E+00 -0.00000000000E+00 -0.43787777763E+01  0.43787777763E+01  0.00000000000E+00 0.  1.
          5    1    1    2  501    0 -0.32836954805E+00 -0.12368981459E+01  0.26659874992E+00  0.48784032713E+01  0.47000000000E+01 0.  1.
         -5    1    1    2    0  502  0.32836954805E+00  0.12368981459E+01  0.78881871105E+00  0.49345697424E+01  0.47000000000E+01 0.  1.
<mgrwt>
<rscale>  2 0.48711132E+01</rscale>
<asrwt>0</asrwt>
<pdfrwt beam="1">  1       21 0.83603004E-03 0.48711132E+01</pdfrwt>
<pdfrwt beam="2">  1       21 0.67365812E-03 0.48711132E+01</pdfrwt>
<totfact> 0.57252696E+09</totfact>
</mgrwt>
</event>
<event>
 4    1  0.4039863E+006  0.7176973E+01  0.7546771E-02  0.2283514E+00
         21   -1    0    0  503  502  0.00000000000E+00  0.00000000000E+00  0.25552867314E+03  0.25552867314E+03  0.00000000000E+00 0. -1.
         21   -1    0    0  501  503 -0.00000000000E+00 -0.00000000000E+00 -0.20557584719E+00  0.20557584719E+00  0.00000000000E+00 0.  1.
          5    1    1    2  501    0 -0.28830641685E+01  0.45942221454E+01  0.14549316803E+03  0.14567007544E+03  0.47000000000E+01 0.  1.
         -5    1    1    2    0  502  0.28830641685E+01 -0.45942221454E+01  0.10982992926E+03  0.11006417354E+03  0.47000000000E+01 0. -1.
<mgrwt>
<rscale>  2 0.71769726E+01</rscale>
<asrwt>0</asrwt>
<pdfrwt beam="1">  1       21 0.39311849E-01 0.71769726E+01</pdfrwt>
<pdfrwt beam="2">  1       21 0.31627258E-04 0.71769726E+01</pdfrwt>
<totfact> 0.14892625E+09</totfact>
</mgrwt>
</event>
<event>
 4    1  0.4039863E+006  0.4909832E+01  0.7546771E-02  0.2583402E+00
         21   -1    0    0  503  502  0.00000000000E+00  0.00000000000E+00  0.40123998508E+01  0.40123998508E+01  0.00000000000E+00 0.  1.
         21   -1    0    0  501  503 -0.00000000000E+00 -0.00000000000E+00 -0.60308669775E+01  0.60308669775E+01  0.00000000000E+00 0.  1.
          5    1    1    2  501    0 -0.13149478554E+01  0.53605970148E+00 -0.13185328014E+01  0.50837954930E+01  0.47000000000E+01 0.  1.
         -5    1    1    2    0  502  0.13149478554E+01 -0.53605970148E+00 -0.69993432529E+00  0.49594713353E+01  0.47000000000E+01 0.  1.
<mgrwt>
<rscale>  2 0.49098318E+01</rscale>
<asrwt>0</asrwt>
<pdfrwt beam="1">  1       21 0.61729228E-03 0.49098318E+01</pdfrwt>
<pdfrwt beam="2">  1       21 0.92782569E-03 0.49098318E+01</pdfrwt>
<totfact> 0.56370356E+09</totfact>
</mgrwt>
</event>
<event>
 4    1  0.4039863E+006  0.7208741E+01  0.7546771E-02  0.2280450E+00
         21   -1    0    0  501  502  0.00000000000E+00  0.00000000000E+00  0.31118481669E+02  0.31118481669E+02  0.00000000000E+00 0. -1.
         21   -1    0    0  502  503 -0.00000000000E+00 -0.00000000000E+00 -0.54991165702E+01  0.54991165702E+01  0.00000000000E+00 0. -1.
          5    1    1    2  501    0 -0.26498967841E-01  0.54658249654E+01  0.28087671405E+02  0.28997986649E+02  0.47000000000E+01 0. -1.
         -5    1    1    2    0  503  0.26498967841E-01 -0.54658249654E+01 -0.24683063070E+01  0.76196115894E+01  0.47000000000E+01 0. -1.
<mgrwt>
<rscale>  2 0.72087409E+01</rscale>
<asrwt>0</asrwt>
<pdfrwt beam="1">  1       21 0.47874586E-02 0.72087409E+01</pdfrwt>
<pdfrwt beam="2">  1       21 0.84601795E-03 0.72087409E+01</pdfrwt>
<totfact> 0.47612221E+08</totfact>
</mgrwt>
</event>
<event>
 4    1  0.4039863E+006  0.5882811E+01  0.7546771E-02  0.2430930E+00
         21   -1    0    0  501  502  0.00000000000E+00  0.00000000000E+00  0.98306361118E+00  0.98306361118E+00  0.00000000000E+00 0.  1.
         21   -1    0    0  502  503 -0.00000000000E+00 -0.00000000000E+00 -0.14651793161E+03  0.14651793161E+03  0.00000000000E+00 0.  1.
          5    1    1    2  501    0 -0.88519842852E+00 -0.34254764712E+01 -0.84846120091E+01  0.10324539034E+02  0.47000000000E+01 0.  1.
         -5    1    1    2    0  503  0.88519842852E+00  0.34254764712E+01 -0.13705025599E+03  0.13717645619E+03  0.47000000000E+01 0.  1.
<mgrwt>
<rscale>  2 0.58828110E+01</rscale>
<asrwt>0</asrwt>
<pdfrwt beam="1">  1       21 0.15124061E-03 0.58828110E+01</pdfrwt>
<pdfrwt beam="2">  1       21 0.22541212E-01 0.58828110E+01</pdfrwt>
<totfact> 0.40420218E+08</totfact>
</mgrwt>
</event>
<event>
 4    1  0.4039863E+006  0.1301995E+02  0.7546771E-02  0.1935283E+00
         21   -1    0    0  501  502  0.00000000000E+00  0.00000000000E+00  0.29574697387E+03  0.29574697387E+03  0.00000000000E+00 0. -1.
         21   -1    0    0  502  503 -0.00000000000E+00 -0.00000000000E+00 -0.59030311743E+00  0.59030311743E+00  0.00000000000E+00 0.  1.
          5    1    1    2  501    0 -0.65924925733E+01  0.10196478123E+02  0.17280657223E+03  0.17329636618E+03  0.47000000000E+01 0. -1.
         -5    1    1    2    0  503  0.65924925733E+01 -0.10196478123E+02  0.12235009852E+03  0.12304091081E+03  0.47000000000E+01 0.  1.
<mgrwt>
<rscale>  2 0.13019951E+02</rscale>
<asrwt>0</asrwt>
<pdfrwt beam="1">  1       21 0.45499416E-01 0.13019951E+02</pdfrwt>
<pdfrwt beam="2">  1       21 0.90816101E-04 0.13019951E+02</pdfrwt>
<totfact> 0.37121021E+08</totfact>
</mgrwt>
</event>
<event>
 4    1  0.4039863E+006  0.6453227E+01  0.7546771E-02  0.2359921E+00
         21   -1    0    0  501  502  0.00000000000E+00  0.00000000000E+00  0.30681940745E+02  0.30681940745E+02  0.00000000000E+00 0. -1.
         21   -1    0    0  502  503 -0.00000000000E+00 -0.00000000000E+00 -0.14062033850E+01  0.14062033850E+01  0.00000000000E+00 0. -1.
          5    1    1    2  501    0 -0.12557319222E+01 -0.42399617969E+01  0.11645421587E+02  0.13313901856E+02  0.47000000000E+01 0. -1.
         -5    1    1    2    0  503  0.12557319222E+01  0.42399617969E+01  0.17630315773E+02  0.18774242274E+02  0.47000000000E+01 0. -1.
<mgrwt>
<rscale>  2 0.64532270E+01</rscale>
<asrwt>0</asrwt>
<pdfrwt beam="1">  1       21 0.47202981E-02 0.64532270E+01</pdfrwt>
<pdfrwt beam="2">  1       21 0.21633901E-03 0.64532270E+01</pdfrwt>
<totfact> 0.29990063E+09</totfact>
</mgrwt>
</event>
<event>
 4    1  0.4039863E+006  0.6581635E+01  0.7546771E-02  0.2345358E+00
         21   -1    0    0  501  502  0.00000000000E+00  0.00000000000E+00  0.18428723023E+02  0.18428723023E+02  0.00000000000E+00 0. -1.
         21   -1    0    0  502  503 -0.00000000000E+00 -0.00000000000E+00 -0.36733151349E+01  0.36733151349E+01  0.00000000000E+00 0. -1.
          5    1    1    2  501    0 -0.12771729919E+01  0.44268219042E+01  0.14009207971E+02  0.15478237335E+02  0.47000000000E+01 0. -1.
         -5    1    1    2    0  503  0.12771729919E+01 -0.44268219042E+01  0.74619991687E+00  0.66238008227E+01  0.47000000000E+01 0. -1.
<mgrwt>
<rscale>  2 0.65816353E+01</rscale>
<asrwt>0</asrwt>
<pdfrwt beam="1">  1       21 0.28351881E-02 0.65816353E+01</pdfrwt>
<pdfrwt beam="2">  1       21 0.56512542E-03 0.65816353E+01</pdfrwt>
<totfact> 0.17085814E+09</totfact>
</mgrwt>
</event>
<event>
 4    1  0.4039863E+006  0.5060300E+01  0.7546771E-02  0.2556567E+00
         21   -1    0    0  501  502  0.00000000000E+00  0.00000000000E+00  0.23032728938E+02  0.23032728938E+02  0.00000000000E+00 0.  1.
         21   -1    0    0  502  503 -0.00000000000E+00 -0.00000000000E+00 -0.13376445777E+01  0.13376445777E+01  0.00000000000E+00 0. -1.
          5    1    1    2  501    0 -0.15223582462E+01  0.10950159859E+01  0.15854971175E+02  0.16642918782E+02  0.47000000000E+01 0.  1.
         -5    1    1    2    0  503  0.15223582462E+01 -0.10950159859E+01  0.58401131856E+01  0.77274547336E+01  0.47000000000E+01 0. -1.
<mgrwt>
<rscale>  2 0.50602999E+01</rscale>
<asrwt>0</asrwt>
<pdfrwt beam="1">  1       21 0.35434965E-02 0.50602999E+01</pdfrwt>
<pdfrwt beam="2">  1       21 0.20579149E-03 0.50602999E+01</pdfrwt>
<totfact> 0.39038334E+09</totfact>
</mgrwt>
</event>
<event>
 4    1  0.4039863E+006  0.4774931E+01  0.7546771E-02  0.2608699E+00
         21   -1    0    0  503  502  0.00000000000E+00  0.00000000000E+00  0.49083394436E+00  0.49083394436E+00  0.00000000000E+00 0.  1.
         21   -1    0    0  501  503 -0.00000000000E+00 -0.00000000000E+00 -0.71896469896E+02  0.71896469896E+02  0.00000000000E+00 0.  1.
          5    1    1    2  501    0  0.45113579826E+00  0.71165046931E+00 -0.57234583701E+02  0.57433418333E+02  0.47000000000E+01 0.  1.
         -5    1    1    2    0  502 -0.45113579826E+00 -0.71165046931E+00 -0.14171052250E+02  0.14953885508E+02  0.47000000000E+01 0.  1.
<mgrwt>
<rscale>  2 0.47749314E+01</rscale>
<asrwt>0</asrwt>
<pdfrwt beam="1">  1       21 0.75512906E-04 0.47749314E+01</pdfrwt>
<pdfrwt beam="2">  1       21 0.11060997E-01 0.47749314E+01</pdfrwt>
<totfact> 0.26073164E+09</totfact>
</mgrwt>
</event>
<event>
 4    1  0.4039863E+006  0.5182031E+01  0.7546771E-02  0.2535841E+00
         21   -1    0    0  503  502  0.00000000000E+00  0.00000000000E+00  0.16302576827E+03  0.16302576827E+03  0.00000000000E+00 0.  1.
         21   -1    0    0  501  503 -0.00000000000E+00 -0.00000000000E+00 -0.12171067000E+01  0.12171067000E+01  0.00000000000E+00 0.  1.
          5    1    1    2  501    0 -0.18648231213E+01 -0.11339677867E+01  0.45418393301E+01  0.68907004517E+01  0.47000000000E+01 0.  1.
         -5    1    1    2    0  502  0.18648231213E+01  0.11339677867E+01  0.15726682224E+03  0.15735217451E+03  0.47000000000E+01 0.  1.
<mgrwt>
<rscale>  2 0.51820313E+01</rscale>
<asrwt>0</asrwt>
<pdfrwt beam="1">  1       21 0.25080870E-01 0.51820313E+01</pdfrwt>
<pdfrwt beam="2">  1       21 0.18724731E-03 0.51820313E+01</pdfrwt>
<totfact> 0.23158958E+08</totfact>
</mgrwt>
</event>
<event>
 4    1  0.4039863E+006  0.7680120E+01  0.7546771E-02  0.2237440E+00
         21   -1    0    0  501  502  0.00000000000E+00  0.00000000000E+00  0.81575889223E+01  0.81575889223E+01  0.00000000000E+00 0. -1.
         21   -1    0    0  502  503 -0.00000000000E+00 -0.00000000000E+00 -0.81448634488E+01  0.81448634488E+01  0.00000000000E+00 0.  1.
          5    1    1    2  501    0  0.56897414009E+01 -0.21262832141E+01 -0.27246105097E+01  0.81490944249E+01  0.47000000000E+01 0. -1.
         -5    1    1    2    0  503 -0.56897414009E+01  0.21262832141E+01  0.27373359832E+01  0.81533579463E+01  0.47000000000E+01 0.  1.
<mgrwt>
<rscale>  2 0.76801196E+01</rscale>
<asrwt>0</asrwt>
<pdfrwt beam="1">  1       21 0.12550137E-02 0.76801196E+01</pdfrwt>
<pdfrwt beam="2">  1       21 0.12530559E-02 0.76801196E+01</pdfrwt>
<totfact> 0.20220789E+09</totfact>
</mgrwt>
</event>
<event>
 4    1  0.4039863E+006  0.4706322E+01  0.7546771E-02  0.2622047E+00
         21   -1    0    0  503  502  0.00000000000E+00  0.00000000000E+00  0.12895981760E+01  0.12895981760E+01  0.00000000000E+00 0. -1.
         21   -1    0    0  501  503 -0.00000000000E+00 -0.00000000000E+00 -0.59327749209E+02  0.59327749209E+02  0.00000000000E+00 0. -1.
          5    1    1    2  501    0  0.15038560353E+00 -0.19196287909E+00 -0.54566579994E+02  0.54769162106E+02  0.47000000000E+01 0. -1.
         -5    1    1    2    0  502 -0.15038560353E+00  0.19196287909E+00 -0.34715710393E+01  0.58481852790E+01  0.47000000000E+01 0. -1.
<mgrwt>
<rscale>  2 0.47063219E+01</rscale>
<asrwt>0</asrwt>
<pdfrwt beam="1">  1       21 0.19839976E-03 0.47063219E+01</pdfrwt>
<pdfrwt beam="2">  1       21 0.91273440E-02 0.47063219E+01</pdfrwt>
<totfact> 0.95104404E+08</totfact>
</mgrwt>
</event>
<event>
 4    1  0.4039863E+006  0.5366334E+01  0.7546771E-02  0.2506000E+00
         21   -1    0    0  503  502  0.00000000000E+00  0.00000000000E+00  0.15676246813E+02  0.15676246813E+02  0.00000000000E+00 0.  1.
         21   -1    0    0  501  503 -0.00000000000E+00 -0.00000000000E+00 -0.19967269205E+01  0.19967269205E+01  0.00000000000E+00 0.  1.
          5    1    1    2  501    0 -0.25818240050E+01  0.20426159449E+00  0.43406479604E+01  0.69020839395E+01  0.47000000000E+01 0.  1.
         -5    1    1    2    0  502  0.25818240050E+01 -0.20426159449E+00  0.93388719326E+01  0.10770889794E+02  0.47000000000E+01 0.  1.
<mgrwt>
<rscale>  2 0.53663338E+01</rscale>
<asrwt>0</asrwt>
<pdfrwt beam="1">  1       21 0.24117302E-02 0.53663338E+01</pdfrwt>
<pdfrwt beam="2">  1       21 0.30718877E-03 0.53663338E+01</pdfrwt>
<totfact> 0.41863883E+09</totfact>
</mgrwt>
</event>
<event>
 4    1  0.4039863E+006  0.1232992E+02  0.7546771E-02  0.1962492E+00
         21   -1    0    0  503  502  0.00000000000E+00  0.00000000000E+00  0.19282976791E+01  0.19282976791E+01  0.00000000000E+00 0. -1.
         21   -1    0    0  501  503 -0.00000000000E+00 -0.00000000000E+00 -0.83979643615E+02  0.83979643615E+02  0.00000000000E+00 0.  1.
          5    1    1    2  501    0  0.73872824563E+01 -0.86813057626E+01 -0.51651978664E+02  0.53103238242E+02  0.47000000000E+01 0.  1.
         -5    1    1    2    0  502 -0.73872824563E+01  0.86813057626E+01 -0.30399367271E+02  0.32804703052E+02  0.47000000000E+01 0. -1.
<mgrwt>
<rscale>  2 0.12329923E+02</rscale>
<asrwt>0</asrwt>
<pdfrwt beam="1">  1       21 0.29666118E-03 0.12329923E+02</pdfrwt>
<pdfrwt beam="2">  1       21 0.12919945E-01 0.12329923E+02</pdfrwt>
<totfact> 0.60827901E+08</totfact>
</mgrwt>
</event>
<event>
 4    1  0.4039863E+006  0.9742526E+01  0.7546771E-02  0.2089944E+00
         21   -1    0    0  501  502  0.00000000000E+00  0.00000000000E+00  0.51515852185E+00  0.51515852185E+00  0.00000000000E+00 0.  1.
         21   -1    0    0  502  503 -0.00000000000E+00 -0.00000000000E+00 -0.23765668381E+03  0.23765668381E+03  0.00000000000E+00 0. -1.
          5    1    1    2  501    0 -0.73994098341E+01 -0.42515355796E+01 -0.62117092223E+02  0.62876465923E+02  0.47000000000E+01 0.  1.
         -5    1    1    2    0  503  0.73994098341E+01  0.42515355796E+01 -0.17502443307E+03  0.17529537641E+03  0.47000000000E+01 0. -1.
<mgrwt>
<rscale>  2 0.97425264E+01</rscale>
<asrwt>0</asrwt>
<pdfrwt beam="1">  1       21 0.79255146E-04 0.97425264E+01</pdfrwt>
<pdfrwt beam="2">  1       21 0.36562572E-01 0.97425264E+01</pdfrwt>
<totfact> 0.58343702E+08</totfact>
</mgrwt>
</event>
<event>
 4    1  0.4039863E+006  0.1109732E+02  0.7546771E-02  0.2017437E+00
         21   -1    0    0  503  502  0.00000000000E+00  0.00000000000E+00  0.11786998053E+02  0.11786998053E+02  0.00000000000E+00 0.  1.
         21   -1    0    0  501  503 -0.00000000000E+00 -0.00000000000E+00 -0.13561567542E+02  0.13561567542E+02  0.00000000000E+00 0. -1.
          5    1    1    2  501    0 -0.54419068442E+01 -0.84525877130E+01 -0.69602024356E+01  0.13099427739E+02  0.47000000000E+01 0. -1.
         -5    1    1    2    0  502  0.54419068442E+01  0.84525877130E+01  0.51856329472E+01  0.12249137856E+02  0.47000000000E+01 0.  1.
<mgrwt>
<rscale>  2 0.11097324E+02</rscale>
<asrwt>0</asrwt>
<pdfrwt beam="1">  1       21 0.18133843E-02 0.11097324E+02</pdfrwt>
<pdfrwt beam="2">  1       21 0.20863950E-02 0.11097324E+02</pdfrwt>
<totfact> 0.70543660E+08</totfact>
</mgrwt>
</event>
<event>
 4    1  0.4039863E+006  0.8576087E+01  0.7546771E-02  0.2166411E+00
         21   -1    0    0  503  502  0.00000000000E+00  0.00000000000E+00  0.10553313182E+02  0.10553313182E+02  0.00000000000E+00 0.  1.
         21   -1    0    0  501  503 -0.00000000000E+00 -0.00000000000E+00 -0.72971618126E+01  0.72971618126E+01  0.00000000000E+00 0. -1.
          5    1    1    2  501    0  0.66829493291E+01  0.26071944190E+01  0.35199134298E+01  0.92703325198E+01  0.47000000000E+01 0.  1.
         -5    1    1    2    0  502 -0.66829493291E+01 -0.26071944190E+01 -0.26376206002E+00  0.85801424754E+01  0.47000000000E+01 0. -1.
<mgrwt>
<rscale>  2 0.85760874E+01</rscale>
<asrwt>0</asrwt>
<pdfrwt beam="1">  1       21 0.16235867E-02 0.85760874E+01</pdfrwt>
<pdfrwt beam="2">  1       21 0.11226403E-02 0.85760874E+01</pdfrwt>
<totfact> 0.17625825E+09</totfact>
</mgrwt>
</event>
<event>
 4    1  0.4039863E+006  0.4884822E+01  0.7546771E-02  0.2588001E+00
         21   -1    0    0  503  502  0.00000000000E+00  0.00000000000E+00  0.13910732151E+00  0.13910732151E+00  0.00000000000E+00 0. -1.
         21   -1    0    0  501  503 -0.00000000000E+00 -0.00000000000E+00 -0.22828677203E+03  0.22828677203E+03  0.00000000000E+00 0. -1.
          5    1    1    2  501    0  0.96355209470E+00  0.91818035472E+00 -0.17102105292E+03  0.17109080054E+03  0.47000000000E+01 0. -1.
         -5    1    1    2    0  502 -0.96355209470E+00 -0.91818035472E+00 -0.57126611783E+02  0.57335078806E+02  0.47000000000E+01 0. -1.
<mgrwt>
<rscale>  2 0.48848222E+01</rscale>
<asrwt>0</asrwt>
<pdfrwt beam="1">  1       21 0.21401171E-04 0.48848222E+01</pdfrwt>
<pdfrwt beam="2">  1       21 0.35120969E-01 0.48848222E+01</pdfrwt>
<totfact> 0.22492185E+09</totfact>
</mgrwt>
</event>
<event>
 4    1  0.4039863E+006  0.1027284E+02  0.7546771E-02  0.2059785E+00
         21   -1    0    0  501  502  0.00000000000E+00  0.00000000000E+00  0.69623582607E+02  0.69623582607E+02  0.00000000000E+00 0. -1.
         21   -1    0    0  502  503 -0.00000000000E+00 -0.00000000000E+00 -0.17114128418E+01  0.17114128418E+01  0.00000000000E+00 0. -1.
          5    1    1    2  501    0 -0.73677726432E+01  0.53997323755E+01  0.21895688782E+02  0.24185788610E+02  0.47000000000E+01 0. -1.
         -5    1    1    2    0  503  0.73677726432E+01 -0.53997323755E+01  0.46016480984E+02  0.47149206839E+02  0.47000000000E+01 0. -1.
<mgrwt>
<rscale>  2 0.10272837E+02</rscale>
<asrwt>0</asrwt>
<pdfrwt beam="1">  1       21 0.10711318E-01 0.10272837E+02</pdfrwt>
<pdfrwt beam="2">  1       21 0.26329434E-03 0.10272837E+02</pdfrwt>
<totfact> 0.88770198E+08</totfact>
</mgrwt>
</event>
<event>
 4    1  0.4039863E+006  0.6127012E+01  0.7546771E-02  0.2399180E+00
         21   -1    0    0  503  502  0.00000000000E+00  0.00000000000E+00  0.17031900732E+01  0.17031900732E+01  0.00000000000E+00 0. -1.
         21   -1    0    0  501  503 -0.00000000000E+00 -0.00000000000E+00 -0.23709716869E+02  0.23709716869E+02  0.00000000000E+00 0.  1.
          5    1    1    2  501    0  0.38548524274E+01  0.76837102405E+00 -0.14374055377E+02  0.15625419970E+02  0.47000000000E+01 0.  1.
         -5    1    1    2    0  502 -0.38548524274E+01 -0.76837102405E+00 -0.76324714189E+01  0.97874869721E+01  0.47000000000E+01 0. -1.
<mgrwt>
<rscale>  2 0.61270124E+01</rscale>
<asrwt>0</asrwt>
<pdfrwt beam="1">  1       21 0.26202925E-03 0.61270124E+01</pdfrwt>
<pdfrwt beam="2">  1       21 0.36476486E-02 0.61270124E+01</pdfrwt>
<totfact> 0.32277623E+09</totfact>
</mgrwt>
</event>
<event>
 4    1  0.4039863E+006  0.9266887E+01  0.7546771E-02  0.2119279E+00
         21   -1    0    0  501  502  0.00000000000E+00  0.00000000000E+00  0.35264905374E+02  0.35264905374E+02  0.00000000000E+00 0.  1.
         21   -1    0    0  502  503 -0.00000000000E+00 -0.00000000000E+00 -0.60814230371E+01  0.60814230371E+01  0.00000000000E+00 0. -1.
          5    1    1    2  501    0  0.48834216639E+01  0.63196030922E+01  0.30599450244E+02  0.31971886801E+02  0.47000000000E+01 0.  1.
         -5    1    1    2    0  503 -0.48834216639E+01 -0.63196030922E+01 -0.14159679068E+01  0.93744416102E+01  0.47000000000E+01 0. -1.
<mgrwt>
<rscale>  2 0.92668868E+01</rscale>
<asrwt>0</asrwt>
<pdfrwt beam="1">  1       21 0.54253700E-02 0.92668868E+01</pdfrwt>
<pdfrwt beam="2">  1       21 0.93560356E-03 0.92668868E+01</pdfrwt>
<totfact> 0.39810865E+08</totfact>
</mgrwt>
</event>
<event>
 4    1  0.4039863E+006  0.9979006E+01  0.7546771E-02  0.2076184E+00
         21   -1    0    0  501  502  0.00000000000E+00  0.00000000000E+00  0.10416084874E+02  0.10416084874E+02  0.00000000000E+00 0. -1.
         21   -1    0    0  502  503 -0.00000000000E+00 -0.00000000000E+00 -0.13729011605E+02  0.13729011605E+02  0.00000000000E+00 0.  1.
          5    1    1    2  501    0  0.80695201306E+00  0.87658082292E+01  0.49959908327E+01  0.11159771049E+02  0.47000000000E+01 0. -1.
         -5    1    1    2    0  503 -0.80695201306E+00 -0.87658082292E+01 -0.83089175631E+01  0.12985325430E+02  0.47000000000E+01 0.  1.
<mgrwt>
<rscale>  2 0.99790062E+01</rscale>
<asrwt>0</asrwt>
<pdfrwt beam="1">  1       21 0.16024746E-02 0.99790062E+01</pdfrwt>
<pdfrwt beam="2">  1       21 0.21121556E-02 0.99790062E+01</pdfrwt>
<totfact> 0.78379497E+08</totfact>
</mgrwt>
</event>
<event>
 4    1  0.4039863E+006  0.5814442E+01  0.7546771E-02  0.2440218E+00
         21   -1    0    0  503  502  0.00000000000E+00  0.00000000000E+00  0.11424391292E-01  0.11424391292E-01  0.00000000000E+00 0. -1.
         21   -1    0    0  501  503 -0.00000000000E+00 -0.00000000000E+00 -0.31345954024E+04  0.31345954024E+04  0.00000000000E+00 0. -1.
          5    1    1    2  501    0  0.32684288055E+01 -0.10174020154E+01 -0.11966127403E+04  0.11966268667E+04  0.47000000000E+01 0. -1.
         -5    1    1    2    0  502 -0.32684288055E+01  0.10174020154E+01 -0.19379712377E+04  0.19379799602E+04  0.47000000000E+01 0. -1.
<mgrwt>
<rscale>  2 0.58144418E+01</rscale>
<asrwt>0</asrwt>
<pdfrwt beam="1">  1       21 0.17588890E-05 0.58144418E+01</pdfrwt>
<pdfrwt beam="2">  1       21 0.48189167E+00 0.58144418E+01</pdfrwt>
<totfact> 0.14855557E+08</totfact>
</mgrwt>
</event>
<event>
 4    1  0.4039863E+006  0.4926744E+01  0.7546771E-02  0.2580316E+00
         21   -1    0    0  503  502  0.00000000000E+00  0.00000000000E+00  0.14971043469E+01  0.14971043469E+01  0.00000000000E+00 0.  1.
         21   -1    0    0  501  503 -0.00000000000E+00 -0.00000000000E+00 -0.18002548123E+02  0.18002548123E+02  0.00000000000E+00 0.  1.
          5    1    1    2  501    0  0.14751035541E+01  0.82931822317E-01 -0.11326559173E+02  0.12351669963E+02  0.47000000000E+01 0.  1.
         -5    1    1    2    0  502 -0.14751035541E+01 -0.82931822317E-01 -0.51788846033E+01  0.71479825067E+01  0.47000000000E+01 0.  1.
<mgrwt>
<rscale>  2 0.49267442E+01</rscale>
<asrwt>0</asrwt>
<pdfrwt beam="1">  1       21 0.23032377E-03 0.49267442E+01</pdfrwt>
<pdfrwt beam="2">  1       21 0.27696225E-02 0.49267442E+01</pdfrwt>
<totfact> 0.46472399E+09</totfact>
</mgrwt>
</event>
<event>
 4    1  0.4039863E+006  0.4871540E+01  0.7546771E-02  0.2590460E+00
         21   -1    0    0  503  502  0.00000000000E+00  0.00000000000E+00  0.12253412479E+01  0.12253412479E+01  0.00000000000E+00 0. -1.
         21   -1    0    0  501  503 -0.00000000000E+00 -0.00000000000E+00 -0.27955814567E+02  0.27955814567E+02  0.00000000000E+00 0. -1.
          5    1    1    2  501    0  0.94561435609E+00  0.86470364497E+00 -0.21452252230E+02  0.21998432322E+02  0.47000000000E+01 0. -1.
         -5    1    1    2    0  502 -0.94561435609E+00 -0.86470364497E+00 -0.52782210893E+01  0.71827234926E+01  0.47000000000E+01 0. -1.
<mgrwt>
<rscale>  2 0.48715397E+01</rscale>
<asrwt>0</asrwt>
<pdfrwt beam="1">  1       21 0.18851405E-03 0.48715397E+01</pdfrwt>
<pdfrwt beam="2">  1       21 0.43008943E-02 0.48715397E+01</pdfrwt>
<totfact> 0.31907017E+09</totfact>
</mgrwt>
</event>
<event>
 4    1  0.4039863E+006  0.6640481E+01  0.7546771E-02  0.2338840E+00
         21   -1    0    0  501  502  0.00000000000E+00  0.00000000000E+00  0.75017206789E+02  0.75017206789E+02  0.00000000000E+00 0.  1.
         21   -1    0    0  502  503 -0.00000000000E+00 -0.00000000000E+00 -0.59472014075E+00  0.59472014075E+00  0.00000000000E+00 0.  1.
          5    1    1    2  501    0 -0.98464532708E+00 -0.45865526614E+01  0.41285928452E+02  0.41816550311E+02  0.47000000000E+01 0.  1.
         -5    1    1    2    0  503  0.98464532708E+00  0.45865526614E+01  0.33136558197E+02  0.33795376620E+02  0.47000000000E+01 0.  1.
<mgrwt>
<rscale>  2 0.66404813E+01</rscale>
<asrwt>0</asrwt>
<pdfrwt beam="1">  1       21 0.11541101E-01 0.66404813E+01</pdfrwt>
<pdfrwt beam="2">  1       21 0.91495466E-04 0.66404813E+01</pdfrwt>
<totfact> 0.25375776E+09</totfact>
</mgrwt>
</event>
<event>
 4    1  0.4039863E+006  0.4727663E+01  0.7546771E-02  0.2617859E+00
         21   -1    0    0  503  502  0.00000000000E+00  0.00000000000E+00  0.13172110832E+02  0.13172110832E+02  0.00000000000E+00 0. -1.
         21   -1    0    0  501  503 -0.00000000000E+00 -0.00000000000E+00 -0.26912914759E+01  0.26912914759E+01  0.00000000000E+00 0. -1.
          5    1    1    2  501    0 -0.46340850490E+00 -0.21460293238E+00  0.41892856367E+00  0.47461882603E+01  0.47000000000E+01 0. -1.
         -5    1    1    2    0  502  0.46340850490E+00  0.21460293238E+00  0.10061890793E+02  0.11117214048E+02  0.47000000000E+01 0. -1.
<mgrwt>
<rscale>  2 0.47276635E+01</rscale>
<asrwt>0</asrwt>
<pdfrwt beam="1">  1       21 0.20264786E-02 0.47276635E+01</pdfrwt>
<pdfrwt beam="2">  1       21 0.41404485E-03 0.47276635E+01</pdfrwt>
<totfact> 0.31308491E+09</totfact>
</mgrwt>
</event>
<event>
 4    1  0.4039863E+006  0.8665882E+01  0.7546771E-02  0.2159948E+00
         21   -1    0    0  503  502  0.00000000000E+00  0.00000000000E+00  0.44120471273E+02  0.44120471273E+02  0.00000000000E+00 0.  1.
         21   -1    0    0  501  503 -0.00000000000E+00 -0.00000000000E+00 -0.27332474397E+01  0.27332474397E+01  0.00000000000E+00 0. -1.
          5    1    1    2  501    0 -0.72727919585E+01  0.33764662637E+00  0.63044757763E+01  0.10716525693E+02  0.47000000000E+01 0. -1.
         -5    1    1    2    0  502  0.72727919585E+01 -0.33764662637E+00  0.35082748057E+02  0.36137193020E+02  0.47000000000E+01 0.  1.
<mgrwt>
<rscale>  2 0.86658818E+01</rscale>
<asrwt>0</asrwt>
<pdfrwt beam="1">  1       21 0.67877643E-02 0.86658818E+01</pdfrwt>
<pdfrwt beam="2">  1       21 0.42049964E-03 0.86658818E+01</pdfrwt>
<totfact> 0.84916629E+08</totfact>
</mgrwt>
</event>
<event>
 4    1  0.4039863E+006  0.6003000E+01  0.7546771E-02  0.2415033E+00
         21   -1    0    0  503  502  0.00000000000E+00  0.00000000000E+00  0.25995685966E+00  0.25995685966E+00  0.00000000000E+00 0. -1.
         21   -1    0    0  501  503 -0.00000000000E+00 -0.00000000000E+00 -0.22459744685E+03  0.22459744685E+03  0.00000000000E+00 0. -1.
          5    1    1    2  501    0 -0.21431122830E+01 -0.30582810398E+01 -0.18172870977E+03  0.18182783057E+03  0.47000000000E+01 0. -1.
         -5    1    1    2    0  502  0.21431122830E+01  0.30582810398E+01 -0.42608780219E+02  0.43029573144E+02  0.47000000000E+01 0. -1.
<mgrwt>
<rscale>  2 0.60030003E+01</rscale>
<asrwt>0</asrwt>
<pdfrwt beam="1">  1       21 0.39993096E-04 0.60030003E+01</pdfrwt>
<pdfrwt beam="2">  1       21 0.34553684E-01 0.60030003E+01</pdfrwt>
<totfact> 0.11971899E+09</totfact>
</mgrwt>
</event>
<event>
 4    1  0.4039863E+006  0.8119027E+01  0.7546771E-02  0.2201070E+00
         21   -1    0    0  501  502  0.00000000000E+00  0.00000000000E+00  0.26378349685E+00  0.26378349685E+00  0.00000000000E+00 0. -1.
         21   -1    0    0  502  503 -0.00000000000E+00 -0.00000000000E+00 -0.34075160700E+03  0.34075160700E+03  0.00000000000E+00 0.  1.
          5    1    1    2  501    0  0.20607927394E+01  0.62914016413E+01 -0.82199977715E+02  0.82599969356E+02  0.47000000000E+01 0. -1.
         -5    1    1    2    0  503 -0.20607927394E+01 -0.62914016413E+01 -0.25828784579E+03  0.25841542114E+03  0.47000000000E+01 0.  1.
<mgrwt>
<rscale>  2 0.81190271E+01</rscale>
<asrwt>0</asrwt>
<pdfrwt beam="1">  1       21 0.40581821E-04 0.81190271E+01</pdfrwt>
<pdfrwt beam="2">  1       21 0.52423654E-01 0.81190271E+01</pdfrwt>
<totfact> 0.68306010E+08</totfact>
</mgrwt>
</event>
<event>
 4    1  0.4039863E+006  0.7103827E+01  0.7546771E-02  0.2290652E+00
         21   -1    0    0  503  502  0.00000000000E+00  0.00000000000E+00  0.43005379263E+03  0.43005379263E+03  0.00000000000E+00 0. -1.
         21   -1    0    0  501  503 -0.00000000000E+00 -0.00000000000E+00 -0.12061431123E+00  0.12061431123E+00  0.00000000000E+00 0.  1.
          5    1    1    2  501    0  0.14808416348E+01 -0.51167832132E+01  0.17955139733E+03  0.17969187140E+03  0.47000000000E+01 0.  1.
         -5    1    1    2    0  502 -0.14808416348E+01  0.51167832132E+01  0.25038178099E+03  0.25048253554E+03  0.47000000000E+01 0. -1.
<mgrwt>
<rscale>  2 0.71038273E+01</rscale>
<asrwt>0</asrwt>
<pdfrwt beam="1">  1       21 0.66160894E-01 0.71038273E+01</pdfrwt>
<pdfrwt beam="2">  1       21 0.18556392E-04 0.71038273E+01</pdfrwt>
<totfact> 0.11671978E+09</totfact>
</mgrwt>
</event>
<event>
 4    1  0.4039863E+006  0.6446070E+01  0.7546771E-02  0.2360747E+00
         21   -1    0    0  503  502  0.00000000000E+00  0.00000000000E+00  0.98060936396E+01  0.98060936396E+01  0.00000000000E+00 0.  1.
         21   -1    0    0  501  503 -0.00000000000E+00 -0.00000000000E+00 -0.42453665065E+01  0.42453665065E+01  0.00000000000E+00 0. -1.
          5    1    1    2  501    0  0.11053036760E+01  0.42708462211E+01  0.30857161693E+01  0.71465703619E+01  0.47000000000E+01 0. -1.
         -5    1    1    2    0  502 -0.11053036760E+01 -0.42708462211E+01  0.24750109638E+01  0.69048897842E+01  0.47000000000E+01 0.  1.
<mgrwt>
<rscale>  2 0.64460704E+01</rscale>
<asrwt>0</asrwt>
<pdfrwt beam="1">  1       21 0.15086298E-02 0.64460704E+01</pdfrwt>
<pdfrwt beam="2">  1       21 0.65313331E-03 0.64460704E+01</pdfrwt>
<totfact> 0.34124218E+09</totfact>
</mgrwt>
</event>
<event>
 4    1  0.4039863E+006  0.6681530E+01  0.7546771E-02  0.2334350E+00
         21   -1    0    0  501  502  0.00000000000E+00  0.00000000000E+00  0.12307281691E+02  0.12307281691E+02  0.00000000000E+00 0. -1.
         21   -1    0    0  502  503 -0.00000000000E+00 -0.00000000000E+00 -0.36938698436E+01  0.36938698436E+01  0.00000000000E+00 0.  1.
          5    1    1    2  501    0  0.35444467369E+01 -0.31606543311E+01  0.53803261671E+01  0.85785050059E+01  0.47000000000E+01 0. -1.
         -5    1    1    2    0  503 -0.35444467369E+01  0.31606543311E+01  0.32330856799E+01  0.74226465284E+01  0.47000000000E+01 0.  1.
<mgrwt>
<rscale>  2 0.66815297E+01</rscale>
<asrwt>0</asrwt>
<pdfrwt beam="1">  1       21 0.18934279E-02 0.66815297E+01</pdfrwt>
<pdfrwt beam="2">  1       21 0.56828767E-03 0.66815297E+01</pdfrwt>
<totfact> 0.30833097E+09</totfact>
</mgrwt>
</event>
<event>
 4    1  0.4039863E+006  0.5748156E+01  0.7546771E-02  0.2449401E+00
         21   -1    0    0  503  502  0.00000000000E+00  0.00000000000E+00  0.17372763797E+03  0.17372763797E+03  0.00000000000E+00 0.  1.
         21   -1    0    0  501  503 -0.00000000000E+00 -0.00000000000E+00 -0.36917541441E+00  0.36917541441E+00  0.00000000000E+00 0.  1.
          5    1    1    2  501    0 -0.24092556329E+01  0.22686526519E+01  0.26068015483E+02  0.26694245237E+02  0.47000000000E+01 0.  1.
         -5    1    1    2    0  502  0.24092556329E+01 -0.22686526519E+01  0.14729044707E+03  0.14740256814E+03  0.47000000000E+01 0.  1.
<mgrwt>
<rscale>  2 0.57481560E+01</rscale>
<asrwt>0</asrwt>
<pdfrwt beam="1">  1       21 0.26727264E-01 0.57481560E+01</pdfrwt>
<pdfrwt beam="2">  1       21 0.56796356E-04 0.57481560E+01</pdfrwt>
<totfact> 0.11166494E+09</totfact>
</mgrwt>
</event>
<event>
 4    1  0.4039863E+006  0.4881562E+01  0.7546771E-02  0.2588603E+00
         21   -1    0    0  503  502  0.00000000000E+00  0.00000000000E+00  0.12565412161E+00  0.12565412161E+00  0.00000000000E+00 0.  1.
         21   -1    0    0  501  503 -0.00000000000E+00 -0.00000000000E+00 -0.20572726744E+03  0.20572726744E+03  0.00000000000E+00 0. -1.
          5    1    1    2  501    0 -0.11630512557E+00  0.13138186222E+01 -0.13157862955E+03  0.13166915129E+03  0.47000000000E+01 0. -1.
         -5    1    1    2    0  502  0.11630512557E+00 -0.13138186222E+01 -0.74022983768E+02  0.74183770274E+02  0.47000000000E+01 0.  1.
<mgrwt>
<rscale>  2 0.48815619E+01</rscale>
<asrwt>0</asrwt>
<pdfrwt beam="1">  1       21 0.19331354E-04 0.48815619E+01</pdfrwt>
<pdfrwt beam="2">  1       21 0.31650429E-01 0.48815619E+01</pdfrwt>
<totfact> 0.30613877E+09</totfact>
</mgrwt>
</event>
<event>
 4    1  0.4039863E+006  0.5551489E+01  0.7546771E-02  0.2477730E+00
         21   -1    0    0  503  502  0.00000000000E+00  0.00000000000E+00  0.46775848246E+01  0.46775848246E+01  0.00000000000E+00 0. -1.
         21   -1    0    0  501  503 -0.00000000000E+00 -0.00000000000E+00 -0.39599771831E+02  0.39599771831E+02  0.00000000000E+00 0.  1.
          5    1    1    2  501    0 -0.67189687363E+00  0.28770801251E+01 -0.37674308571E+02  0.38081131309E+02  0.47000000000E+01 0.  1.
         -5    1    1    2    0  502  0.67189687363E+00 -0.28770801251E+01  0.27521215639E+01  0.61962253475E+01  0.47000000000E+01 0. -1.
<mgrwt>
<rscale>  2 0.55514895E+01</rscale>
<asrwt>0</asrwt>
<pdfrwt beam="1">  1       21 0.71962843E-03 0.55514895E+01</pdfrwt>
<pdfrwt beam="2">  1       21 0.60922726E-02 0.55514895E+01</pdfrwt>
<totfact> 0.34538004E+08</totfact>
</mgrwt>
</event>
<event>
 4    1  0.4039863E+006  0.1079729E+02  0.7546771E-02  0.2032264E+00
         21   -1    0    0  503  502  0.00000000000E+00  0.00000000000E+00  0.46127744780E+01  0.46127744780E+01  0.00000000000E+00 0. -1.
         21   -1    0    0  501  503 -0.00000000000E+00 -0.00000000000E+00 -0.29078653391E+02  0.29078653391E+02  0.00000000000E+00 0.  1.
          5    1    1    2  501    0  0.35024662468E+01 -0.90677522730E+01 -0.18326664451E+02  0.21270825818E+02  0.47000000000E+01 0. -1.
         -5    1    1    2    0  502 -0.35024662468E+01  0.90677522730E+01 -0.61392144624E+01  0.12420602051E+02  0.47000000000E+01 0.  1.
<mgrwt>
<rscale>  2 0.10797287E+02</rscale>
<asrwt>0</asrwt>
<pdfrwt beam="1">  1       21 0.70965761E-03 0.10797287E+02</pdfrwt>
<pdfrwt beam="2">  1       21 0.44736390E-02 0.10797287E+02</pdfrwt>
<totfact> 0.86726750E+08</totfact>
</mgrwt>
</event>
<event>
 4    1  0.4039863E+006  0.6421761E+01  0.7546771E-02  0.2363563E+00
         21   -1    0    0  503  502  0.00000000000E+00  0.00000000000E+00  0.12974437965E+03  0.12974437965E+03  0.00000000000E+00 0.  1.
         21   -1    0    0  501  503 -0.00000000000E+00 -0.00000000000E+00 -0.40213329740E+00  0.40213329740E+00  0.00000000000E+00 0. -1.
          5    1    1    2  501    0 -0.10685115996E+01 -0.42435007028E+01  0.34879582392E+02  0.35465818517E+02  0.47000000000E+01 0. -1.
         -5    1    1    2    0  502  0.10685115996E+01  0.42435007028E+01  0.94462663957E+02  0.94680694427E+02  0.47000000000E+01 0.  1.
<mgrwt>
<rscale>  2 0.64217611E+01</rscale>
<asrwt>0</asrwt>
<pdfrwt beam="1">  1       21 0.19960640E-01 0.64217611E+01</pdfrwt>
<pdfrwt beam="2">  1       21 0.61866765E-04 0.64217611E+01</pdfrwt>
<totfact> 0.17520593E+09</totfact>
</mgrwt>
</event>
<event>
 4    1  0.4039863E+006  0.7207797E+01  0.7546771E-02  0.2280541E+00
         21   -1    0    0  503  502  0.00000000000E+00  0.00000000000E+00  0.97168009412E-01  0.97168009412E-01  0.00000000000E+00 0. -1.
         21   -1    0    0  501  503 -0.00000000000E+00 -0.00000000000E+00 -0.57472350357E+03  0.57472350357E+03  0.00000000000E+00 0.  1.
          5    1    1    2  501    0  0.53059513447E+01 -0.13073692603E+01 -0.21143440396E+03  0.21155722514E+03  0.47000000000E+01 0. -1.
         -5    1    1    2    0  502 -0.53059513447E+01  0.13073692603E+01 -0.36319193160E+03  0.36326344643E+03  0.47000000000E+01 0.  1.
<mgrwt>
<rscale>  2 0.72077968E+01</rscale>
<asrwt>0</asrwt>
<pdfrwt beam="1">  1       21 0.14948970E-04 0.72077968E+01</pdfrwt>
<pdfrwt beam="2">  1       21 0.88418734E-01 0.72077968E+01</pdfrwt>
<totfact> 0.89321023E+08</totfact>
</mgrwt>
</event>
<event>
 4    1  0.4039863E+006  0.5806874E+01  0.7546771E-02  0.2441258E+00
         21   -1    0    0  503  502  0.00000000000E+00  0.00000000000E+00  0.84188929696E-01  0.84188929696E-01  0.00000000000E+00 0.  1.
         21   -1    0    0  501  503 -0.00000000000E+00 -0.00000000000E+00 -0.59125834851E+03  0.59125834851E+03  0.00000000000E+00 0.  1.
          5    1    1    2  501    0 -0.30935244306E+01  0.14352343835E+01 -0.46351910563E+03  0.46355547788E+03  0.47000000000E+01 0.  1.
         -5    1    1    2    0  502  0.30935244306E+01 -0.14352343835E+01 -0.12765505396E+03  0.12778705956E+03  0.47000000000E+01 0.  1.
<mgrwt>
<rscale>  2 0.58068745E+01</rscale>
<asrwt>0</asrwt>
<pdfrwt beam="1">  1       21 0.12952629E-04 0.58068745E+01</pdfrwt>
<pdfrwt beam="2">  1       21 0.90959409E-01 0.58068745E+01</pdfrwt>
<totfact> 0.88758300E+08</totfact>
</mgrwt>
</event>
<event>
 4    1  0.4039863E+006  0.6443187E+01  0.7546771E-02  0.2361080E+00
         21   -1    0    0  501  502  0.00000000000E+00  0.00000000000E+00  0.54369768638E+02  0.54369768638E+02  0.00000000000E+00 0. -1.
         21   -1    0    0  502  503 -0.00000000000E+00 -0.00000000000E+00 -0.57334856918E+01  0.57334856918E+01  0.00000000000E+00 0.  1.
          5    1    1    2  501    0 -0.45269802979E+00  0.43840301048E+01  0.52297226823E+02  0.52692642645E+02  0.47000000000E+01 0. -1.
         -5    1    1    2    0  503  0.45269802979E+00 -0.43840301048E+01 -0.36609438776E+01  0.74106116847E+01  0.47000000000E+01 0.  1.
<mgrwt>
<rscale>  2 0.64431867E+01</rscale>
<asrwt>0</asrwt>
<pdfrwt beam="1">  1       21 0.83645794E-02 0.64431867E+01</pdfrwt>
<pdfrwt beam="2">  1       21 0.88207476E-03 0.64431867E+01</pdfrwt>
<totfact> 0.17922467E+08</totfact>
</mgrwt>
</event>
<event>
 4    1  0.4039863E+006  0.5501621E+01  0.7546771E-02  0.2485185E+00
         21   -1    0    0  501  502  0.00000000000E+00  0.00000000000E+00  0.64806640067E+02  0.64806640067E+02  0.00000000000E+00 0.  1.
         21   -1    0    0  502  503 -0.00000000000E+00 -0.00000000000E+00 -0.51401287096E+00  0.51401287096E+00  0.00000000000E+00 0. -1.
          5    1    1    2  501    0  0.28112085745E+01  0.52435187248E+00  0.42018609677E+02  0.42377250946E+02  0.47000000000E+01 0.  1.
         -5    1    1    2    0  503 -0.28112085745E+01 -0.52435187248E+00  0.22274017519E+02  0.22943401992E+02  0.47000000000E+01 0. -1.
<mgrwt>
<rscale>  2 0.55016214E+01</rscale>
<asrwt>0</asrwt>
<pdfrwt beam="1">  1       21 0.99702459E-02 0.55016214E+01</pdfrwt>
<pdfrwt beam="2">  1       21 0.79078954E-04 0.55016214E+01</pdfrwt>
<totfact> 0.32959306E+09</totfact>
</mgrwt>
</event>
<event>
 4    1  0.4039863E+006  0.7466194E+01  0.7546771E-02  0.2256412E+00
         21   -1    0    0  501  502  0.00000000000E+00  0.00000000000E+00  0.96845012294E+01  0.96845012294E+01  0.00000000000E+00 0.  1.
         21   -1    0    0  502  503 -0.00000000000E+00 -0.00000000000E+00 -0.58075251173E+01  0.58075251173E+01  0.00000000000E+00 0.  1.
          5    1    1    2  501    0  0.21719815380E+01 -0.53792700688E+01  0.12089204462E+01  0.75634343336E+01  0.47000000000E+01 0.  1.
         -5    1    1    2    0  503 -0.21719815380E+01  0.53792700688E+01  0.26680556659E+01  0.79285920131E+01  0.47000000000E+01 0.  1.
<mgrwt>
<rscale>  2 0.74661938E+01</rscale>
<asrwt>0</asrwt>
<pdfrwt beam="1">  1       21 0.14899233E-02 0.74661938E+01</pdfrwt>
<pdfrwt beam="2">  1       21 0.89346540E-03 0.74661938E+01</pdfrwt>
<totfact> 0.25092057E+09</totfact>
</mgrwt>
</event>
<event>
 4    1  0.4039863E+006  0.5291485E+01  0.7546771E-02  0.2517905E+00
         21   -1    0    0  503  502  0.00000000000E+00  0.00000000000E+00  0.23772906078E+02  0.23772906078E+02  0.00000000000E+00 0. -1.
         21   -1    0    0  501  503 -0.00000000000E+00 -0.00000000000E+00 -0.31530847139E+01  0.31530847139E+01  0.00000000000E+00 0. -1.
          5    1    1    2  501    0  0.19583062616E+01  0.14404327050E+01 -0.34594560253E+00  0.53027811714E+01  0.47000000000E+01 0. -1.
         -5    1    1    2    0  502 -0.19583062616E+01 -0.14404327050E+01  0.20965766967E+02  0.21623209621E+02  0.47000000000E+01 0. -1.
<mgrwt>
<rscale>  2 0.52914846E+01</rscale>
<asrwt>0</asrwt>
<pdfrwt beam="1">  1       21 0.36573701E-02 0.52914846E+01</pdfrwt>
<pdfrwt beam="2">  1       21 0.48508997E-03 0.52914846E+01</pdfrwt>
<totfact> 0.12111840E+09</totfact>
</mgrwt>
</event>
<event>
 4    1  0.4039863E+006  0.9188099E+01  0.7546771E-02  0.2124369E+00
         21   -1    0    0  503  502  0.00000000000E+00  0.00000000000E+00  0.52623523704E+01  0.52623523704E+01  0.00000000000E+00 0.  1.
         21   -1    0    0  501  503 -0.00000000000E+00 -0.00000000000E+00 -0.35933523874E+02  0.35933523874E+02  0.00000000000E+00 0. -1.
          5    1    1    2  501    0 -0.40233404989E+01 -0.67929291534E+01 -0.30660663595E+02  0.32007771670E+02  0.47000000000E+01 0. -1.
         -5    1    1    2    0  502  0.40233404989E+01  0.67929291534E+01 -0.10507909520E-01  0.91881045744E+01  0.47000000000E+01 0.  1.
<mgrwt>
<rscale>  2 0.91880986E+01</rscale>
<asrwt>0</asrwt>
<pdfrwt beam="1">  1       21 0.80959270E-03 0.91880986E+01</pdfrwt>
<pdfrwt beam="2">  1       21 0.55282342E-02 0.91880986E+01</pdfrwt>
<totfact> 0.47410384E+08</totfact>
</mgrwt>
</event>
<event>
 4    1  0.4039863E+006  0.5858792E+01  0.7546771E-02  0.2434172E+00
         21   -1    0    0  501  502  0.00000000000E+00  0.00000000000E+00  0.22020231627E+01  0.22020231627E+01  0.00000000000E+00 0.  1.
         21   -1    0    0  502  503 -0.00000000000E+00 -0.00000000000E+00 -0.18206749674E+02  0.18206749674E+02  0.00000000000E+00 0. -1.
          5    1    1    2  501    0 -0.29591714360E+01 -0.18651396557E+01 -0.41324055974E+01  0.71695339838E+01  0.47000000000E+01 0.  1.
         -5    1    1    2    0  503  0.29591714360E+01  0.18651396557E+01 -0.11872320914E+02  0.13239238853E+02  0.47000000000E+01 0. -1.
<mgrwt>
<rscale>  2 0.58587918E+01</rscale>
<asrwt>0</asrwt>
<pdfrwt beam="1">  1       21 0.33877281E-03 0.58587918E+01</pdfrwt>
<pdfrwt beam="2">  1       21 0.28010383E-02 0.58587918E+01</pdfrwt>
<totfact> 0.32035154E+09</totfact>
</mgrwt>
</event>
<event>
 4    1  0.4039863E+006  0.7926473E+01  0.7546771E-02  0.2216626E+00
         21   -1    0    0  501  502  0.00000000000E+00  0.00000000000E+00  0.16201504770E+02  0.16201504770E+02  0.00000000000E+00 0. -1.
         21   -1    0    0  502  503 -0.00000000000E+00 -0.00000000000E+00 -0.39559709675E+01  0.39559709675E+01  0.00000000000E+00 0. -1.
          5    1    1    2  501    0 -0.55463543412E+01 -0.31586267617E+01  0.75379940548E+01  0.10938479047E+02  0.47000000000E+01 0. -1.
         -5    1    1    2    0  503  0.55463543412E+01  0.31586267617E+01  0.47075397475E+01  0.92189966901E+01  0.47000000000E+01 0. -1.
<mgrwt>
<rscale>  2 0.79264727E+01</rscale>
<asrwt>0</asrwt>
<pdfrwt beam="1">  1       21 0.24925392E-02 0.79264727E+01</pdfrwt>
<pdfrwt beam="2">  1       21 0.60861093E-03 0.79264727E+01</pdfrwt>
<totfact> 0.21393278E+09</totfact>
</mgrwt>
</event>
<event>
 4    1  0.4039863E+006  0.4834856E+01  0.7546771E-02  0.2597311E+00
         21   -1    0    0  503  502  0.00000000000E+00  0.00000000000E+00  0.63202929615E+00  0.63202929615E+00  0.00000000000E+00 0.  1.
         21   -1    0    0  501  503 -0.00000000000E+00 -0.00000000000E+00 -0.37587096532E+02  0.37587096532E+02  0.00000000000E+00 0.  1.
          5    1    1    2  501    0 -0.25389132711E+00  0.11051548140E+01 -0.16059644883E+02  0.16771643382E+02  0.47000000000E+01 0.  1.
         -5    1    1    2    0  502  0.25389132711E+00 -0.11051548140E+01 -0.20895422353E+02  0.21447482446E+02  0.47000000000E+01 0.  1.
<mgrwt>
<rscale>  2 0.48348555E+01</rscale>
<asrwt>0</asrwt>
<pdfrwt beam="1">  1       21 0.97235267E-04 0.48348555E+01</pdfrwt>
<pdfrwt beam="2">  1       21 0.57826308E-02 0.48348555E+01</pdfrwt>
<totfact> 0.49674768E+09</totfact>
</mgrwt>
</event>
<event>
 4    1  0.4039863E+006  0.5239529E+01  0.7546771E-02  0.2526339E+00
         21   -1    0    0  503  502  0.00000000000E+00  0.00000000000E+00  0.54941561125E+03  0.54941561125E+03  0.00000000000E+00 0.  1.
         21   -1    0    0  501  503 -0.00000000000E+00 -0.00000000000E+00 -0.20191073209E+00  0.20191073209E+00  0.00000000000E+00 0.  1.
          5    1    1    2  501    0  0.34186901522E+00  0.22903690304E+01  0.36214547696E+02  0.36591612831E+02  0.47000000000E+01 0.  1.
         -5    1    1    2    0  502 -0.34186901522E+00 -0.22903690304E+01  0.51299915282E+03  0.51302590915E+03  0.47000000000E+01 0.  1.
<mgrwt>
<rscale>  2 0.52395291E+01</rscale>
<asrwt>0</asrwt>
<pdfrwt beam="1">  1       21 0.84524282E-01 0.52395291E+01</pdfrwt>
<pdfrwt beam="2">  1       21 0.31063629E-04 0.52395291E+01</pdfrwt>
<totfact> 0.29788303E+08</totfact>
</mgrwt>
</event>
<event>
 4    1  0.4039863E+006  0.7273189E+01  0.7546771E-02  0.2274303E+00
         21   -1    0    0  501  502  0.00000000000E+00  0.00000000000E+00  0.29617664938E+03  0.29617664938E+03  0.00000000000E+00 0.  1.
         21   -1    0    0  502  503 -0.00000000000E+00 -0.00000000000E+00 -0.70222266363E+00  0.70222266363E+00  0.00000000000E+00 0. -1.
          5    1    1    2  501    0 -0.51222604218E+01  0.21381609518E+01  0.27591657482E+03  0.27601241919E+03  0.47000000000E+01 0.  1.
         -5    1    1    2    0  503  0.51222604218E+01 -0.21381609518E+01  0.19557851894E+02  0.20866452856E+02  0.47000000000E+01 0. -1.
<mgrwt>
<rscale>  2 0.72731894E+01</rscale>
<asrwt>0</asrwt>
<pdfrwt beam="1">  1       21 0.45565539E-01 0.72731894E+01</pdfrwt>
<pdfrwt beam="2">  1       21 0.10803449E-03 0.72731894E+01</pdfrwt>
<totfact> 0.21953672E+08</totfact>
</mgrwt>
</event>
<event>
 4    1  0.4039863E+006  0.6407931E+01  0.7546771E-02  0.2365173E+00
         21   -1    0    0  503  502  0.00000000000E+00  0.00000000000E+00  0.17717581671E+00  0.17717581671E+00  0.00000000000E+00 0. -1.
         21   -1    0    0  501  503 -0.00000000000E+00 -0.00000000000E+00 -0.23396412127E+03  0.23396412127E+03  0.00000000000E+00 0. -1.
          5    1    1    2  501    0 -0.28680351565E+01 -0.32781023374E+01 -0.12826640970E+03  0.12842637361E+03  0.47000000000E+01 0. -1.
         -5    1    1    2    0  502  0.28680351565E+01  0.32781023374E+01 -0.10552053575E+03  0.10571492348E+03  0.47000000000E+01 0. -1.
<mgrwt>
<rscale>  2 0.64079311E+01</rscale>
<asrwt>0</asrwt>
<pdfrwt beam="1">  1       21 0.27257844E-04 0.64079311E+01</pdfrwt>
<pdfrwt beam="2">  1       21 0.35994446E-01 0.64079311E+01</pdfrwt>
<totfact> 0.19568961E+09</totfact>
</mgrwt>
</event>
<event>
 4    1  0.4039863E+006  0.5910846E+01  0.7546771E-02  0.2427173E+00
         21   -1    0    0  503  502  0.00000000000E+00  0.00000000000E+00  0.50668383135E+03  0.50668383135E+03  0.00000000000E+00 0. -1.
         21   -1    0    0  501  503 -0.00000000000E+00 -0.00000000000E+00 -0.10107038296E+00  0.10107038296E+00  0.00000000000E+00 0. -1.
          5    1    1    2  501    0  0.12298970217E+01 -0.33668171059E+01  0.11045396001E+03  0.11061200381E+03  0.47000000000E+01 0. -1.
         -5    1    1    2    0  502 -0.12298970217E+01  0.33668171059E+01  0.39612880095E+03  0.39617289792E+03  0.47000000000E+01 0. -1.
<mgrwt>
<rscale>  2 0.59108463E+01</rscale>
<asrwt>0</asrwt>
<pdfrwt beam="1">  1       21 0.77949325E-01 0.59108463E+01</pdfrwt>
<pdfrwt beam="2">  1       21 0.15549695E-04 0.59108463E+01</pdfrwt>
<totfact> 0.95351857E+08</totfact>
</mgrwt>
</event>
<event>
 4    1  0.4039863E+006  0.5577780E+01  0.7546771E-02  0.2473845E+00
         21   -1    0    0  501  502  0.00000000000E+00  0.00000000000E+00  0.10103389072E+01  0.10103389072E+01  0.00000000000E+00 0.  1.
         21   -1    0    0  502  503 -0.00000000000E+00 -0.00000000000E+00 -0.49395381467E+02  0.49395381467E+02  0.00000000000E+00 0.  1.
          5    1    1    2  501    0 -0.27381590952E+01 -0.12345504078E+01 -0.87261695887E+01  0.10356527682E+02  0.47000000000E+01 0.  1.
         -5    1    1    2    0  503  0.27381590952E+01  0.12345504078E+01 -0.39658872971E+02  0.40049192692E+02  0.47000000000E+01 0.  1.
<mgrwt>
<rscale>  2 0.55777800E+01</rscale>
<asrwt>0</asrwt>
<pdfrwt beam="1">  1       21 0.15543681E-03 0.55777800E+01</pdfrwt>
<pdfrwt beam="2">  1       21 0.75992869E-02 0.55777800E+01</pdfrwt>
<totfact> 0.20351179E+09</totfact>
</mgrwt>
</event>
<event>
 4    1  0.4039863E+006  0.9590950E+01  0.7546771E-02  0.2099043E+00
         21   -1    0    0  503  502  0.00000000000E+00  0.00000000000E+00  0.48261319402E+00  0.48261319402E+00  0.00000000000E+00 0.  1.
         21   -1    0    0  501  503 -0.00000000000E+00 -0.00000000000E+00 -0.79042409240E+03  0.79042409240E+03  0.00000000000E+00 0.  1.
          5    1    1    2  501    0 -0.78406363778E+01 -0.29018527588E+01 -0.73946099382E+03  0.73952318944E+03  0.47000000000E+01 0.  1.
         -5    1    1    2    0  502  0.78406363778E+01  0.29018527588E+01 -0.50480485386E+02  0.51383516161E+02  0.47000000000E+01 0.  1.
<mgrwt>
<rscale>  2 0.95909503E+01</rscale>
<asrwt>0</asrwt>
<pdfrwt beam="1">  1       21 0.74248555E-04 0.95909503E+01</pdfrwt>
<pdfrwt beam="2">  1       21 0.12160310E+00 0.95909503E+01</pdfrwt>
<totfact> 0.60504485E+07</totfact>
</mgrwt>
</event>
<event>
 4    1  0.4039863E+006  0.6406831E+01  0.7546771E-02  0.2365302E+00
         21   -1    0    0  501  502  0.00000000000E+00  0.00000000000E+00  0.24499953419E+00  0.24499953419E+00  0.00000000000E+00 0. -1.
         21   -1    0    0  502  503 -0.00000000000E+00 -0.00000000000E+00 -0.18635488230E+03  0.18635488230E+03  0.00000000000E+00 0. -1.
          5    1    1    2  501    0 -0.36331370642E+01 -0.23995411814E+01 -0.63410078514E+02  0.63732923516E+02  0.47000000000E+01 0. -1.
         -5    1    1    2    0  503  0.36331370642E+01  0.23995411814E+01 -0.12269980425E+03  0.12286695832E+03  0.47000000000E+01 0. -1.
<mgrwt>
<rscale>  2 0.64068309E+01</rscale>
<asrwt>0</asrwt>
<pdfrwt beam="1">  1       21 0.37692431E-04 0.64068309E+01</pdfrwt>
<pdfrwt beam="2">  1       21 0.28669834E-01 0.64068309E+01</pdfrwt>
<totfact> 0.18689540E+09</totfact>
</mgrwt>
</event>
<event>
 4    1  0.4039863E+006  0.6026156E+01  0.7546771E-02  0.2412032E+00
         21   -1    0    0  501  502  0.00000000000E+00  0.00000000000E+00  0.11507946660E+01  0.11507946660E+01  0.00000000000E+00 0. -1.
         21   -1    0    0  502  503 -0.00000000000E+00 -0.00000000000E+00 -0.13952713800E+03  0.13952713800E+03  0.00000000000E+00 0. -1.
          5    1    1    2  501    0 -0.21010379764E+01  0.31321229905E+01 -0.73124409124E+01  0.94755657933E+01  0.47000000000E+01 0. -1.
         -5    1    1    2    0  503  0.21010379764E+01 -0.31321229905E+01 -0.13106390242E+03  0.13120236687E+03  0.47000000000E+01 0. -1.
<mgrwt>
<rscale>  2 0.60261559E+01</rscale>
<asrwt>0</asrwt>
<pdfrwt beam="1">  1       21 0.17704540E-03 0.60261559E+01</pdfrwt>
<pdfrwt beam="2">  1       21 0.21465706E-01 0.60261559E+01</pdfrwt>
<totfact> 0.35974021E+08</totfact>
</mgrwt>
</event>
<event>
 4    1  0.4039863E+006  0.6996036E+01  0.7546771E-02  0.2301394E+00
         21   -1    0    0  501  502  0.00000000000E+00  0.00000000000E+00  0.16413720950E+02  0.16413720950E+02  0.00000000000E+00 0. -1.
         21   -1    0    0  502  503 -0.00000000000E+00 -0.00000000000E+00 -0.33003846319E+01  0.33003846319E+01  0.00000000000E+00 0.  1.
          5    1    1    2  501    0  0.49456066640E+01  0.15477404513E+01  0.96185631917E+01  0.11893749773E+02  0.47000000000E+01 0. -1.
         -5    1    1    2    0  503 -0.49456066640E+01 -0.15477404513E+01  0.34947731263E+01  0.78203558093E+01  0.47000000000E+01 0. -1.
<mgrwt>
<rscale>  2 0.69960364E+01</rscale>
<asrwt>0</asrwt>
<pdfrwt beam="1">  1       21 0.25251878E-02 0.69960364E+01</pdfrwt>
<pdfrwt beam="2">  1       21 0.50775149E-03 0.69960364E+01</pdfrwt>
<totfact> 0.24656697E+09</totfact>
</mgrwt>
</event>
<event>
 4    1  0.4039863E+006  0.5513803E+01  0.7546771E-02  0.2483353E+00
         21   -1    0    0  501  502  0.00000000000E+00  0.00000000000E+00  0.30204050436E+03  0.30204050436E+03  0.00000000000E+00 0.  1.
         21   -1    0    0  502  503 -0.00000000000E+00 -0.00000000000E+00 -0.21040421404E+00  0.21040421404E+00  0.00000000000E+00 0. -1.
          5    1    1    2  501    0 -0.13066542946E+01 -0.25699570480E+01  0.26006164960E+03  0.26012009461E+03  0.47000000000E+01 0.  1.
         -5    1    1    2    0  503  0.13066542946E+01  0.25699570480E+01  0.41768450540E+02  0.42130813963E+02  0.47000000000E+01 0. -1.
<mgrwt>
<rscale>  2 0.55138031E+01</rscale>
<asrwt>0</asrwt>
<pdfrwt beam="1">  1       21 0.46467423E-01 0.55138031E+01</pdfrwt>
<pdfrwt beam="2">  1       21 0.32370121E-04 0.55138031E+01</pdfrwt>
<totfact> 0.88797780E+08</totfact>
</mgrwt>
</event>
<event>
 4    1  0.4039863E+006  0.5569768E+01  0.7546771E-02  0.2475026E+00
         21   -1    0    0  501  502  0.00000000000E+00  0.00000000000E+00  0.11361083353E+03  0.11361083353E+03  0.00000000000E+00 0. -1.
         21   -1    0    0  502  503 -0.00000000000E+00 -0.00000000000E+00 -0.34095112326E+00  0.34095112326E+00  0.00000000000E+00 0. -1.
          5    1    1    2  501    0  0.12393935368E+01 -0.27195999231E+01  0.82059810213E+02  0.82248615626E+02  0.47000000000E+01 0. -1.
         -5    1    1    2    0  503 -0.12393935368E+01  0.27195999231E+01  0.31210072196E+02  0.31703169030E+02  0.47000000000E+01 0. -1.
<mgrwt>
<rscale>  2 0.55697684E+01</rscale>
<asrwt>0</asrwt>
<pdfrwt beam="1">  1       21 0.17478560E-01 0.55697684E+01</pdfrwt>
<pdfrwt beam="2">  1       21 0.52454110E-04 0.55697684E+01</pdfrwt>
<totfact> 0.24069006E+09</totfact>
</mgrwt>
</event>
<event>
 4    1  0.4039863E+006  0.5428041E+01  0.7546771E-02  0.2496396E+00
         21   -1    0    0  501  502  0.00000000000E+00  0.00000000000E+00  0.34742698090E+00  0.34742698090E+00  0.00000000000E+00 0. -1.
         21   -1    0    0  502  503 -0.00000000000E+00 -0.00000000000E+00 -0.90904322395E+02  0.90904322395E+02  0.00000000000E+00 0. -1.
          5    1    1    2  501    0  0.26269322208E+01  0.68764606423E+00 -0.33460255949E+02  0.33897674820E+02  0.47000000000E+01 0. -1.
         -5    1    1    2    0  503 -0.26269322208E+01 -0.68764606423E+00 -0.57096639465E+02  0.57354074556E+02  0.47000000000E+01 0. -1.
<mgrwt>
<rscale>  2 0.54280411E+01</rscale>
<asrwt>0</asrwt>
<pdfrwt beam="1">  1       21 0.53450286E-04 0.54280411E+01</pdfrwt>
<pdfrwt beam="2">  1       21 0.13985285E-01 0.54280411E+01</pdfrwt>
<totfact> 0.32572144E+09</totfact>
</mgrwt>
</event>
<event>
 4    1  0.4039863E+006  0.7893533E+01  0.7546771E-02  0.2219348E+00
         21   -1    0    0  501  502  0.00000000000E+00  0.00000000000E+00  0.12285269152E+04  0.12285269152E+04  0.00000000000E+00 0. -1.
         21   -1    0    0  502  503 -0.00000000000E+00 -0.00000000000E+00 -0.54998958225E-01  0.54998958225E-01  0.00000000000E+00 0.  1.
          5    1    1    2  501    0  0.39846936934E+01  0.49335671560E+01  0.78562793176E+03  0.78566758558E+03  0.47000000000E+01 0. -1.
         -5    1    1    2    0  503 -0.39846936934E+01 -0.49335671560E+01  0.44284398448E+03  0.44291432858E+03  0.47000000000E+01 0.  1.
<mgrwt>
<rscale>  2 0.78935333E+01</rscale>
<asrwt>0</asrwt>
<pdfrwt beam="1">  1       21 0.18898216E+00 0.78935333E+01</pdfrwt>
<pdfrwt beam="2">  1       21 0.84623621E-05 0.78935333E+01</pdfrwt>
<totfact> 0.39537541E+08</totfact>
</mgrwt>
</event>
<event>
 4    1  0.4039863E+006  0.9136362E+01  0.7546771E-02  0.2127750E+00
         21   -1    0    0  501  502  0.00000000000E+00  0.00000000000E+00  0.41912389757E+03  0.41912389757E+03  0.00000000000E+00 0. -1.
         21   -1    0    0  502  503 -0.00000000000E+00 -0.00000000000E+00 -0.22799884164E+00  0.22799884164E+00  0.00000000000E+00 0.  1.
          5    1    1    2  501    0 -0.33399397835E+01 -0.70871647987E+01  0.28401796691E+03  0.28416487930E+03  0.47000000000E+01 0. -1.
         -5    1    1    2    0  503  0.33399397835E+01  0.70871647987E+01  0.13487793182E+03  0.13518701711E+03  0.47000000000E+01 0.  1.
<mgrwt>
<rscale>  2 0.91363616E+01</rscale>
<asrwt>0</asrwt>
<pdfrwt beam="1">  1       21 0.64479983E-01 0.91363616E+01</pdfrwt>
<pdfrwt beam="2">  1       21 0.35077080E-04 0.91363616E+01</pdfrwt>
<totfact> 0.60073603E+08</totfact>
</mgrwt>
</event>
<event>
 4    1  0.4039863E+006  0.6482649E+01  0.7546771E-02  0.2356542E+00
         21   -1    0    0  503  502  0.00000000000E+00  0.00000000000E+00  0.13998603316E+02  0.13998603316E+02  0.00000000000E+00 0. -1.
         21   -1    0    0  501  503 -0.00000000000E+00 -0.00000000000E+00 -0.32424227122E+01  0.32424227122E+01  0.00000000000E+00 0. -1.
          5    1    1    2  501    0  0.38230554858E+01 -0.23062922357E+01  0.30310203601E+01  0.71562435360E+01  0.47000000000E+01 0. -1.
         -5    1    1    2    0  502 -0.38230554858E+01  0.23062922357E+01  0.77251602437E+01  0.10084782492E+02  0.47000000000E+01 0. -1.
<mgrwt>
<rscale>  2 0.64826489E+01</rscale>
<asrwt>0</asrwt>
<pdfrwt beam="1">  1       21 0.21536312E-02 0.64826489E+01</pdfrwt>
<pdfrwt beam="2">  1       21 0.49883427E-03 0.64826489E+01</pdfrwt>
<totfact> 0.29957129E+09</totfact>
</mgrwt>
</event>
<event>
 4    1  0.4039863E+006  0.6203985E+01  0.7546771E-02  0.2389607E+00
         21   -1    0    0  503  502  0.00000000000E+00  0.00000000000E+00  0.19234853156E+03  0.19234853156E+03  0.00000000000E+00 0.  1.
         21   -1    0    0  501  503 -0.00000000000E+00 -0.00000000000E+00 -0.49238251730E+00  0.49238251730E+00  0.00000000000E+00 0.  1.
          5    1    1    2  501    0 -0.29821721152E+01  0.27397230860E+01  0.21640292332E+02  0.22512034234E+02  0.47000000000E+01 0.  1.
         -5    1    1    2    0  502  0.29821721152E+01 -0.27397230860E+01  0.17021585671E+03  0.17032887984E+03  0.47000000000E+01 0.  1.
<mgrwt>
<rscale>  2 0.62039853E+01</rscale>
<asrwt>0</asrwt>
<pdfrwt beam="1">  1       21 0.29592022E-01 0.62039853E+01</pdfrwt>
<pdfrwt beam="2">  1       21 0.75751310E-04 0.62039853E+01</pdfrwt>
<totfact> 0.67870170E+08</totfact>
</mgrwt>
</event>
<event>
 4    1  0.4039863E+006  0.5411238E+01  0.7546771E-02  0.2498993E+00
         21   -1    0    0  501  502  0.00000000000E+00  0.00000000000E+00  0.10493350852E+03  0.10493350852E+03  0.00000000000E+00 0. -1.
         21   -1    0    0  502  503 -0.00000000000E+00 -0.00000000000E+00 -0.76074093768E+00  0.76074093768E+00  0.00000000000E+00 0. -1.
          5    1    1    2  501    0 -0.15857035610E+01 -0.21626460283E+01  0.94138521227E+02  0.94293916412E+02  0.47000000000E+01 0. -1.
         -5    1    1    2    0  503  0.15857035610E+01  0.21626460283E+01  0.10034246359E+02  0.11400333048E+02  0.47000000000E+01 0. -1.
<mgrwt>
<rscale>  2 0.54112377E+01</rscale>
<asrwt>0</asrwt>
<pdfrwt beam="1">  1       21 0.16143605E-01 0.54112377E+01</pdfrwt>
<pdfrwt beam="2">  1       21 0.11703715E-03 0.54112377E+01</pdfrwt>
<totfact> 0.91274583E+08</totfact>
</mgrwt>
</event>
<event>
 4    1  0.4039863E+006  0.5079940E+01  0.7546771E-02  0.2553165E+00
         21   -1    0    0  501  502  0.00000000000E+00  0.00000000000E+00  0.41007344431E+01  0.41007344431E+01  0.00000000000E+00 0. -1.
         21   -1    0    0  502  503 -0.00000000000E+00 -0.00000000000E+00 -0.46179096440E+02  0.46179096440E+02  0.00000000000E+00 0. -1.
          5    1    1    2  501    0 -0.18310623174E+01 -0.60249297086E+00  0.23250797079E+01  0.55867506333E+01  0.47000000000E+01 0. -1.
         -5    1    1    2    0  503  0.18310623174E+01  0.60249297086E+00 -0.44403441704E+02  0.44693080249E+02  0.47000000000E+01 0. -1.
<mgrwt>
<rscale>  2 0.50799397E+01</rscale>
<asrwt>0</asrwt>
<pdfrwt beam="1">  1       21 0.63088223E-03 0.50799397E+01</pdfrwt>
<pdfrwt beam="2">  1       21 0.71044762E-02 0.50799397E+01</pdfrwt>
<totfact> 0.30670870E+08</totfact>
</mgrwt>
</event>
<event>
 4    1  0.4039863E+006  0.5014605E+01  0.7546771E-02  0.2564569E+00
         21   -1    0    0  501  502  0.00000000000E+00  0.00000000000E+00  0.61839236634E+01  0.61839236634E+01  0.00000000000E+00 0.  1.
         21   -1    0    0  502  503 -0.00000000000E+00 -0.00000000000E+00 -0.96569243273E+01  0.96569243273E+01  0.00000000000E+00 0.  1.
          5    1    1    2  501    0  0.14193583170E+01  0.10206294117E+01  0.42898665624E+01  0.65991830973E+01  0.47000000000E+01 0.  1.
         -5    1    1    2    0  503 -0.14193583170E+01 -0.10206294117E+01 -0.77628672264E+01  0.92416648934E+01  0.47000000000E+01 0.  1.
<mgrwt>
<rscale>  2 0.50146049E+01</rscale>
<asrwt>0</asrwt>
<pdfrwt beam="1">  1       21 0.95137287E-03 0.50146049E+01</pdfrwt>
<pdfrwt beam="2">  1       21 0.14856807E-02 0.50146049E+01</pdfrwt>
<totfact> 0.16376485E+09</totfact>
</mgrwt>
</event>
<event>
 4    1  0.4039863E+006  0.4750897E+01  0.7546771E-02  0.2613337E+00
         21   -1    0    0  503  502  0.00000000000E+00  0.00000000000E+00  0.11097608324E+03  0.11097608324E+03  0.00000000000E+00 0. -1.
         21   -1    0    0  501  503 -0.00000000000E+00 -0.00000000000E+00 -0.38405482700E+00  0.38405482700E+00  0.00000000000E+00 0. -1.
          5    1    1    2  501    0 -0.65519166780E+00  0.22747676199E+00  0.93485545557E+02  0.93606187028E+02  0.47000000000E+01 0. -1.
         -5    1    1    2    0  502  0.65519166780E+00 -0.22747676199E+00  0.17106482856E+02  0.17753951039E+02  0.47000000000E+01 0. -1.
<mgrwt>
<rscale>  2 0.47508969E+01</rscale>
<asrwt>0</asrwt>
<pdfrwt beam="1">  1       21 0.17073218E-01 0.47508969E+01</pdfrwt>
<pdfrwt beam="2">  1       21 0.59085446E-04 0.47508969E+01</pdfrwt>
<totfact> 0.18398820E+09</totfact>
</mgrwt>
</event>
<event>
 4    1  0.4039863E+006  0.4960680E+01  0.7546771E-02  0.2574177E+00
         21   -1    0    0  501  502  0.00000000000E+00  0.00000000000E+00  0.38883847572E+00  0.38883847572E+00  0.00000000000E+00 0. -1.
         21   -1    0    0  502  503 -0.00000000000E+00 -0.00000000000E+00 -0.13784346977E+03  0.13784346977E+03  0.00000000000E+00 0. -1.
          5    1    1    2  501    0  0.52940047762E+00  0.14960229546E+01 -0.17896197106E+02  0.18571004830E+02  0.47000000000E+01 0. -1.
         -5    1    1    2    0  503 -0.52940047762E+00 -0.14960229546E+01 -0.11955843419E+03  0.11966130342E+03  0.47000000000E+01 0. -1.
<mgrwt>
<rscale>  2 0.49606804E+01</rscale>
<asrwt>0</asrwt>
<pdfrwt beam="1">  1       21 0.59821446E-04 0.49606804E+01</pdfrwt>
<pdfrwt beam="2">  1       21 0.21206637E-01 0.49606804E+01</pdfrwt>
<totfact> 0.13386959E+09</totfact>
</mgrwt>
</event>
<event>
 4    1  0.4039863E+006  0.6584759E+01  0.7546771E-02  0.2345010E+00
         21   -1    0    0  501  502  0.00000000000E+00  0.00000000000E+00  0.12444023209E+00  0.12444023209E+00  0.00000000000E+00 0.  1.
         21   -1    0    0  502  503 -0.00000000000E+00 -0.00000000000E+00 -0.51878558827E+03  0.51878558827E+03  0.00000000000E+00 0. -1.
          5    1    1    2  501    0 -0.31688064621E+01  0.33507787491E+01 -0.11065391263E+03  0.11084966140E+03  0.47000000000E+01 0.  1.
         -5    1    1    2    0  503  0.31688064621E+01 -0.33507787491E+01 -0.40800723541E+03  0.40806036710E+03  0.47000000000E+01 0. -1.
<mgrwt>
<rscale>  2 0.65847591E+01</rscale>
<asrwt>0</asrwt>
<pdfrwt beam="1">  1       21 0.19144890E-04 0.65847591E+01</pdfrwt>
<pdfrwt beam="2">  1       21 0.79812173E-01 0.65847591E+01</pdfrwt>
<totfact> 0.74194399E+08</totfact>
</mgrwt>
</event>
<event>
 4    1  0.4039863E+006  0.6858997E+01  0.7546771E-02  0.2315448E+00
         21   -1    0    0  503  502  0.00000000000E+00  0.00000000000E+00  0.19922354172E+03  0.19922354172E+03  0.00000000000E+00 0. -1.
         21   -1    0    0  501  503 -0.00000000000E+00 -0.00000000000E+00 -0.85800149992E+01  0.85800149992E+01  0.00000000000E+00 0. -1.
          5    1    1    2  501    0 -0.33332524163E+01  0.37209235247E+01 -0.71402052384E+01  0.99009279562E+01  0.47000000000E+01 0. -1.
         -5    1    1    2    0  502  0.33332524163E+01 -0.37209235247E+01  0.19778373196E+03  0.19790262876E+03  0.47000000000E+01 0. -1.
<mgrwt>
<rscale>  2 0.68589973E+01</rscale>
<asrwt>0</asrwt>
<pdfrwt beam="1">  1       21 0.30649772E-01 0.68589973E+01</pdfrwt>
<pdfrwt beam="2">  1       21 0.13200025E-02 0.68589973E+01</pdfrwt>
<totfact> 0.13025672E+07</totfact>
</mgrwt>
</event>
<event>
 4    1  0.4039863E+006  0.4979793E+01  0.7546771E-02  0.2570751E+00
         21   -1    0    0  501  502  0.00000000000E+00  0.00000000000E+00  0.25067732916E+02  0.25067732916E+02  0.00000000000E+00 0. -1.
         21   -1    0    0  502  503 -0.00000000000E+00 -0.00000000000E+00 -0.16135162686E+01  0.16135162686E+01  0.00000000000E+00 0. -1.
          5    1    1    2  501    0  0.12454863783E+01 -0.10756887084E+01  0.20025104036E+02  0.20634997799E+02  0.47000000000E+01 0. -1.
         -5    1    1    2    0  503 -0.12454863783E+01  0.10756887084E+01  0.34291126115E+01  0.60462513857E+01  0.47000000000E+01 0. -1.
<mgrwt>
<rscale>  2 0.49797934E+01</rscale>
<asrwt>0</asrwt>
<pdfrwt beam="1">  1       21 0.38565740E-02 0.49797934E+01</pdfrwt>
<pdfrwt beam="2">  1       21 0.24823329E-03 0.49797934E+01</pdfrwt>
<totfact> 0.26383729E+09</totfact>
</mgrwt>
</event>
<event>
 4    1  0.4039863E+006  0.5722090E+01  0.7546771E-02  0.2453061E+00
         21   -1    0    0  503  502  0.00000000000E+00  0.00000000000E+00  0.21744068248E+00  0.21744068248E+00  0.00000000000E+00 0.  1.
         21   -1    0    0  501  503 -0.00000000000E+00 -0.00000000000E+00 -0.15197928233E+03  0.15197928233E+03  0.00000000000E+00 0. -1.
          5    1    1    2  501    0  0.22252277977E+01 -0.23876079103E+01 -0.83181711393E+02  0.83378291063E+02  0.47000000000E+01 0.  1.
         -5    1    1    2    0  502 -0.22252277977E+01  0.23876079103E+01 -0.68580130251E+02  0.68818431946E+02  0.47000000000E+01 0. -1.
<mgrwt>
<rscale>  2 0.57220897E+01</rscale>
<asrwt>0</asrwt>
<pdfrwt beam="1">  1       21 0.33452322E-04 0.57220897E+01</pdfrwt>
<pdfrwt beam="2">  1       21 0.23381492E-01 0.57220897E+01</pdfrwt>
<totfact> 0.28080722E+09</totfact>
</mgrwt>
</event>
<event>
 4    1  0.4039863E+006  0.5601685E+01  0.7546771E-02  0.2470340E+00
         21   -1    0    0  501  502  0.00000000000E+00  0.00000000000E+00  0.19797680341E+02  0.19797680341E+02  0.00000000000E+00 0. -1.
         21   -1    0    0  502  503 -0.00000000000E+00 -0.00000000000E+00 -0.22983345685E+01  0.22983345685E+01  0.00000000000E+00 0.  1.
          5    1    1    2  501    0 -0.24681568980E+01  0.17880355122E+01  0.14904713856E+02  0.15922605459E+02  0.47000000000E+01 0. -1.
         -5    1    1    2    0  503  0.24681568980E+01 -0.17880355122E+01  0.25946319167E+01  0.61734094509E+01  0.47000000000E+01 0.  1.
<mgrwt>
<rscale>  2 0.56016845E+01</rscale>
<asrwt>0</asrwt>
<pdfrwt beam="1">  1       21 0.30457969E-02 0.56016845E+01</pdfrwt>
<pdfrwt beam="2">  1       21 0.35358995E-03 0.56016845E+01</pdfrwt>
<totfact> 0.25693811E+09</totfact>
</mgrwt>
</event>
<event>
 4    1  0.4039863E+006  0.4833258E+01  0.7546771E-02  0.2597612E+00
         21   -1    0    0  501  502  0.00000000000E+00  0.00000000000E+00  0.48767950818E+03  0.48767950818E+03  0.00000000000E+00 0. -1.
         21   -1    0    0  502  503 -0.00000000000E+00 -0.00000000000E+00 -0.16189410785E+00  0.16189410785E+00  0.00000000000E+00 0. -1.
          5    1    1    2  501    0 -0.55150266845E+00  0.98296877633E+00  0.44843731999E+03  0.44846336566E+03  0.47000000000E+01 0. -1.
         -5    1    1    2    0  503  0.55150266845E+00 -0.98296877633E+00  0.39080294083E+02  0.39378036625E+02  0.47000000000E+01 0. -1.
<mgrwt>
<rscale>  2 0.48332580E+01</rscale>
<asrwt>0</asrwt>
<pdfrwt beam="1">  1       21 0.75026441E-01 0.48332580E+01</pdfrwt>
<pdfrwt beam="2">  1       21 0.24907176E-04 0.48332580E+01</pdfrwt>
<totfact> 0.47148188E+08</totfact>
</mgrwt>
</event>
<event>
 4    1  0.4039863E+006  0.7178363E+01  0.7546771E-02  0.2283379E+00
         21   -1    0    0  501  502  0.00000000000E+00  0.00000000000E+00  0.15335913590E+02  0.15335913590E+02  0.00000000000E+00 0.  1.
         21   -1    0    0  502  503 -0.00000000000E+00 -0.00000000000E+00 -0.34763176094E+01  0.34763176094E+01  0.00000000000E+00 0.  1.
          5    1    1    2  501    0  0.37515484526E+01  0.39197929165E+01  0.42093315009E+01  0.83215001043E+01  0.47000000000E+01 0.  1.
         -5    1    1    2    0  503 -0.37515484526E+01 -0.39197929165E+01  0.76502644797E+01  0.10490731095E+02  0.47000000000E+01 0.  1.
<mgrwt>
<rscale>  2 0.71783628E+01</rscale>
<asrwt>0</asrwt>
<pdfrwt beam="1">  1       21 0.23593713E-02 0.71783628E+01</pdfrwt>
<pdfrwt beam="2">  1       21 0.53481810E-03 0.71783628E+01</pdfrwt>
<totfact> 0.25825096E+09</totfact>
</mgrwt>
</event>
<event>
 4    1  0.4039863E+006  0.5111860E+01  0.7546771E-02  0.2547685E+00
         21   -1    0    0  501  502  0.00000000000E+00  0.00000000000E+00  0.10875877707E+03  0.10875877707E+03  0.00000000000E+00 0. -1.
         21   -1    0    0  502  503 -0.00000000000E+00 -0.00000000000E+00 -0.29968471531E+00  0.29968471531E+00  0.00000000000E+00 0. -1.
          5    1    1    2  501    0  0.17448268703E+01 -0.99834232663E+00  0.78509971448E+02  0.78676214480E+02  0.47000000000E+01 0.  1.
         -5    1    1    2    0  503 -0.17448268703E+01  0.99834232663E+00  0.29949120905E+02  0.30382247303E+02  0.47000000000E+01 0.  1.
<mgrwt>
<rscale>  2 0.51118596E+01</rscale>
<asrwt>0</asrwt>
<pdfrwt beam="1">  1       21 0.16732088E-01 0.51118596E+01</pdfrwt>
<pdfrwt beam="2">  1       21 0.46105428E-04 0.51118596E+01</pdfrwt>
<totfact> 0.28301598E+09</totfact>
</mgrwt>
</event>
<event>
 4    1  0.4039863E+006  0.6378506E+01  0.7546771E-02  0.2368618E+00
         21   -1    0    0  503  502  0.00000000000E+00  0.00000000000E+00  0.71307358923E+00  0.71307358923E+00  0.00000000000E+00 0. -1.
         21   -1    0    0  501  503 -0.00000000000E+00 -0.00000000000E+00 -0.73965036346E+02  0.73965036346E+02  0.00000000000E+00 0. -1.
          5    1    1    2  501    0 -0.25559330949E+01 -0.34731168381E+01 -0.54478757959E+02  0.54850892457E+02  0.47000000000E+01 0. -1.
         -5    1    1    2    0  502  0.25559330949E+01  0.34731168381E+01 -0.18773204798E+02  0.19827217478E+02  0.47000000000E+01 0. -1.
<mgrwt>
<rscale>  2 0.63785057E+01</rscale>
<asrwt>0</asrwt>
<pdfrwt beam="1">  1       21 0.10970369E-03 0.63785057E+01</pdfrwt>
<pdfrwt beam="2">  1       21 0.11379230E-01 0.63785057E+01</pdfrwt>
<totfact> 0.19665032E+09</totfact>
</mgrwt>
</event>
<event>
 4    1  0.4039863E+006  0.9017706E+01  0.7546771E-02  0.2135618E+00
         21   -1    0    0  501  502  0.00000000000E+00  0.00000000000E+00  0.34458339980E+01  0.34458339980E+01  0.00000000000E+00 0. -1.
         21   -1    0    0  502  503 -0.00000000000E+00 -0.00000000000E+00 -0.23974859735E+02  0.23974859735E+02  0.00000000000E+00 0.  1.
          5    1    1    2  501    0 -0.56568216914E+01 -0.52181786788E+01 -0.11980649431E+02  0.14995165260E+02  0.47000000000E+01 0.  1.
         -5    1    1    2    0  503  0.56568216914E+01  0.52181786788E+01 -0.85483763051E+01  0.12425528473E+02  0.47000000000E+01 0.  1.
<mgrwt>
<rscale>  2 0.90177059E+01</rscale>
<asrwt>0</asrwt>
<pdfrwt beam="1">  1       21 0.53012832E-03 0.90177059E+01</pdfrwt>
<pdfrwt beam="2">  1       21 0.36884399E-02 0.90177059E+01</pdfrwt>
<totfact> 0.15857101E+09</totfact>
</mgrwt>
</event>
<event>
 4    1  0.4039863E+006  0.5297821E+01  0.7546771E-02  0.2516886E+00
         21   -1    0    0  501  502  0.00000000000E+00  0.00000000000E+00  0.40130949864E+02  0.40130949864E+02  0.00000000000E+00 0.  1.
         21   -1    0    0  502  503 -0.00000000000E+00 -0.00000000000E+00 -0.22316779114E+01  0.22316779114E+01  0.00000000000E+00 0.  1.
          5    1    1    2  501    0  0.22012267551E+01 -0.10637254813E+01  0.36500895724E+02  0.36883360744E+02  0.47000000000E+01 0.  1.
         -5    1    1    2    0  503 -0.22012267551E+01  0.10637254813E+01  0.13983762289E+01  0.54792670317E+01  0.47000000000E+01 0.  1.
<mgrwt>
<rscale>  2 0.52978214E+01</rscale>
<asrwt>0</asrwt>
<pdfrwt beam="1">  1       21 0.61739917E-02 0.52978214E+01</pdfrwt>
<pdfrwt beam="2">  1       21 0.34333509E-03 0.52978214E+01</pdfrwt>
<totfact> 0.90438465E+08</totfact>
</mgrwt>
</event>
<event>
 4    1  0.4039863E+006  0.7260240E+01  0.7546771E-02  0.2275531E+00
         21   -1    0    0  503  502  0.00000000000E+00  0.00000000000E+00  0.52453588121E+01  0.52453588121E+01  0.00000000000E+00 0. -1.
         21   -1    0    0  501  503 -0.00000000000E+00 -0.00000000000E+00 -0.10691434897E+02  0.10691434897E+02  0.00000000000E+00 0.  1.
          5    1    1    2  501    0 -0.48584431828E+01  0.26488885772E+01 -0.46761953427E+01  0.86358487561E+01  0.47000000000E+01 0. -1.
         -5    1    1    2    0  502  0.48584431828E+01 -0.26488885772E+01 -0.76988074268E+00  0.73009449534E+01  0.47000000000E+01 0. -1.
<mgrwt>
<rscale>  2 0.72602397E+01</rscale>
<asrwt>0</asrwt>
<pdfrwt beam="1">  1       21 0.80697829E-03 0.72602397E+01</pdfrwt>
<pdfrwt beam="2">  1       21 0.16448361E-02 0.72602397E+01</pdfrwt>
<totfact> 0.24606603E+09</totfact>
</mgrwt>
</event>
<event>
 4    1  0.4039863E+006  0.5334945E+01  0.7546771E-02  0.2510958E+00
         21   -1    0    0  501  502  0.00000000000E+00  0.00000000000E+00  0.13713920397E+02  0.13713920397E+02  0.00000000000E+00 0. -1.
         21   -1    0    0  502  503 -0.00000000000E+00 -0.00000000000E+00 -0.23565800949E+01  0.23565800949E+01  0.00000000000E+00 0.  1.
          5    1    1    2  501    0  0.22902598318E+01  0.10612948200E+01  0.84543140343E+01  0.99968526338E+01  0.47000000000E+01 0. -1.
         -5    1    1    2    0  503 -0.22902598318E+01 -0.10612948200E+01  0.29030262678E+01  0.60736478581E+01  0.47000000000E+01 0.  1.
<mgrwt>
<rscale>  2 0.53349449E+01</rscale>
<asrwt>0</asrwt>
<pdfrwt beam="1">  1       21 0.21098339E-02 0.53349449E+01</pdfrwt>
<pdfrwt beam="2">  1       21 0.36255079E-03 0.53349449E+01</pdfrwt>
<totfact> 0.40174352E+09</totfact>
</mgrwt>
</event>
<event>
 4    1  0.4039863E+006  0.6450015E+01  0.7546771E-02  0.2360291E+00
         21   -1    0    0  501  502  0.00000000000E+00  0.00000000000E+00  0.55581558028E+01  0.55581558028E+01  0.00000000000E+00 0. -1.
         21   -1    0    0  502  503 -0.00000000000E+00 -0.00000000000E+00 -0.88500584372E+01  0.88500584372E+01  0.00000000000E+00 0. -1.
          5    1    1    2  501    0  0.41487430087E+01  0.15167828635E+01  0.11833910406E+01  0.65576758964E+01  0.47000000000E+01 0. -1.
         -5    1    1    2    0  503 -0.41487430087E+01 -0.15167828635E+01 -0.44752936750E+01  0.78505383436E+01  0.47000000000E+01 0. -1.
<mgrwt>
<rscale>  2 0.64500154E+01</rscale>
<asrwt>0</asrwt>
<pdfrwt beam="1">  1       21 0.85510089E-03 0.64500154E+01</pdfrwt>
<pdfrwt beam="2">  1       21 0.13615475E-02 0.64500154E+01</pdfrwt>
<totfact> 0.27056802E+09</totfact>
</mgrwt>
</event>
<event>
 4    1  0.4039863E+006  0.2001537E+02  0.7546771E-02  0.1745023E+00
         21   -1    0    0  503  502  0.00000000000E+00  0.00000000000E+00  0.24332613524E+02  0.24332613524E+02  0.00000000000E+00 0.  1.
         21   -1    0    0  501  503 -0.00000000000E+00 -0.00000000000E+00 -0.26616658550E+02  0.26616658550E+02  0.00000000000E+00 0. -1.
          5    1    1    2  501    0 -0.19447368457E+02  0.57006808035E+00 -0.16875274632E+02  0.26179954382E+02  0.47000000000E+01 0. -1.
         -5    1    1    2    0  502  0.19447368457E+02 -0.57006808035E+00  0.14591229606E+02  0.24769317692E+02  0.47000000000E+01 0.  1.
<mgrwt>
<rscale>  2 0.20015372E+02</rscale>
<asrwt>0</asrwt>
<pdfrwt beam="1">  1       21 0.37434790E-02 0.20015372E+02</pdfrwt>
<pdfrwt beam="2">  1       21 0.40948706E-02 0.20015372E+02</pdfrwt>
<totfact> 0.10673594E+08</totfact>
</mgrwt>
</event>
<event>
 4    1  0.4039863E+006  0.7452294E+01  0.7546771E-02  0.2257675E+00
         21   -1    0    0  501  502  0.00000000000E+00  0.00000000000E+00  0.46066939750E+01  0.46066939750E+01  0.00000000000E+00 0.  1.
         21   -1    0    0  502  503 -0.00000000000E+00 -0.00000000000E+00 -0.15282472086E+02  0.15282472086E+02  0.00000000000E+00 0. -1.
          5    1    1    2  501    0 -0.27456749565E+01  0.50899864775E+01 -0.76829902911E+00  0.74917939578E+01  0.47000000000E+01 0.  1.
         -5    1    1    2    0  503  0.27456749565E+01 -0.50899864775E+01 -0.99074790818E+01  0.12397372103E+02  0.47000000000E+01 0. -1.
<mgrwt>
<rscale>  2 0.74522945E+01</rscale>
<asrwt>0</asrwt>
<pdfrwt beam="1">  1       21 0.70872217E-03 0.74522945E+01</pdfrwt>
<pdfrwt beam="2">  1       21 0.23511495E-02 0.74522945E+01</pdfrwt>
<totfact> 0.17948248E+09</totfact>
</mgrwt>
</event>
<event>
 4    1  0.4039863E+006  0.5517340E+01  0.7546771E-02  0.2482822E+00
         21   -1    0    0  503  502  0.00000000000E+00  0.00000000000E+00  0.53632006917E-01  0.53632006917E-01  0.00000000000E+00 0.  1.
         21   -1    0    0  501  503 -0.00000000000E+00 -0.00000000000E+00 -0.66924221566E+03  0.66924221566E+03  0.00000000000E+00 0.  1.
          5    1    1    2  501    0  0.18703386331E+01  0.22029249014E+01 -0.46501686003E+03  0.46504958999E+03  0.47000000000E+01 0.  1.
         -5    1    1    2    0  502 -0.18703386331E+01 -0.22029249014E+01 -0.20417172362E+03  0.20424625767E+03  0.47000000000E+01 0.  1.
<mgrwt>
<rscale>  2 0.55173404E+01</rscale>
<asrwt>0</asrwt>
<pdfrwt beam="1">  1       21 0.82510493E-05 0.55173404E+01</pdfrwt>
<pdfrwt beam="2">  1       21 0.10296070E+00 0.55173404E+01</pdfrwt>
<totfact> 0.12159759E+09</totfact>
</mgrwt>
</event>
<event>
 4    1  0.4039863E+006  0.5733893E+01  0.7546771E-02  0.2451400E+00
         21   -1    0    0  503  502  0.00000000000E+00  0.00000000000E+00  0.85820014686E+02  0.85820014686E+02  0.00000000000E+00 0. -1.
         21   -1    0    0  501  503 -0.00000000000E+00 -0.00000000000E+00 -0.53114183229E+00  0.53114183229E+00  0.00000000000E+00 0.  1.
          5    1    1    2  501    0 -0.23747957991E+01  0.22688923780E+01  0.19850087893E+02  0.20661643620E+02  0.47000000000E+01 0.  1.
         -5    1    1    2    0  502  0.23747957991E+01 -0.22688923780E+01  0.65438784961E+02  0.65689512899E+02  0.47000000000E+01 0. -1.
<mgrwt>
<rscale>  2 0.57338929E+01</rscale>
<asrwt>0</asrwt>
<pdfrwt beam="1">  1       21 0.13203068E-01 0.57338929E+01</pdfrwt>
<pdfrwt beam="2">  1       21 0.81714196E-04 0.57338929E+01</pdfrwt>
<totfact> 0.21228180E+09</totfact>
</mgrwt>
</event>
<event>
 4    1  0.4039863E+006  0.6055149E+01  0.7546771E-02  0.2408301E+00
         21   -1    0    0  503  502  0.00000000000E+00  0.00000000000E+00  0.10956124173E+01  0.10956124173E+01  0.00000000000E+00 0.  1.
         21   -1    0    0  501  503 -0.00000000000E+00 -0.00000000000E+00 -0.33476965397E+02  0.33476965397E+02  0.00000000000E+00 0.  1.
          5    1    1    2  501    0  0.37158066791E+01  0.87613547711E+00 -0.16515444780E+02  0.17590473244E+02  0.47000000000E+01 0.  1.
         -5    1    1    2    0  502 -0.37158066791E+01 -0.87613547711E+00 -0.15865908199E+02  0.16982104570E+02  0.47000000000E+01 0.  1.
<mgrwt>
<rscale>  2 0.60551493E+01</rscale>
<asrwt>0</asrwt>
<pdfrwt beam="1">  1       21 0.16855575E-03 0.60551493E+01</pdfrwt>
<pdfrwt beam="2">  1       21 0.51503027E-02 0.60551493E+01</pdfrwt>
<totfact> 0.35048886E+09</totfact>
</mgrwt>
</event>
<event>
 4    1  0.4039863E+006  0.7293974E+01  0.7546771E-02  0.2272339E+00
         21   -1    0    0  503  502  0.00000000000E+00  0.00000000000E+00  0.24023406705E+02  0.24023406705E+02  0.00000000000E+00 0.  1.
         21   -1    0    0  501  503 -0.00000000000E+00 -0.00000000000E+00 -0.23288833507E+01  0.23288833507E+01  0.00000000000E+00 0. -1.
          5    1    1    2  501    0 -0.33223944226E+01 -0.44803746083E+01  0.13766165828E+02  0.15579132933E+02  0.47000000000E+01 0. -1.
         -5    1    1    2    0  502  0.33223944226E+01  0.44803746083E+01  0.79283575260E+01  0.10773157123E+02  0.47000000000E+01 0.  1.
<mgrwt>
<rscale>  2 0.72939743E+01</rscale>
<asrwt>0</asrwt>
<pdfrwt beam="1">  1       21 0.36959086E-02 0.72939743E+01</pdfrwt>
<pdfrwt beam="2">  1       21 0.35828976E-03 0.72939743E+01</pdfrwt>
<totfact> 0.23662576E+09</totfact>
</mgrwt>
</event>
<event>
 4    1  0.4039863E+006  0.5220116E+01  0.7546771E-02  0.2529527E+00
         21   -1    0    0  503  502  0.00000000000E+00  0.00000000000E+00  0.60283407103E+01  0.60283407103E+01  0.00000000000E+00 0. -1.
         21   -1    0    0  501  503 -0.00000000000E+00 -0.00000000000E+00 -0.62427880853E+01  0.62427880853E+01  0.00000000000E+00 0. -1.
          5    1    1    2  501    0  0.21978822924E+01 -0.57351884568E+00 -0.33301440097E+01  0.61918873991E+01  0.47000000000E+01 0. -1.
         -5    1    1    2    0  502 -0.21978822924E+01  0.57351884568E+00  0.31156966347E+01  0.60792413965E+01  0.47000000000E+01 0. -1.
<mgrwt>
<rscale>  2 0.52201159E+01</rscale>
<asrwt>0</asrwt>
<pdfrwt beam="1">  1       21 0.92743703E-03 0.52201159E+01</pdfrwt>
<pdfrwt beam="2">  1       21 0.96042894E-03 0.52201159E+01</pdfrwt>
<totfact> 0.32569388E+09</totfact>
</mgrwt>
</event>
<event>
 4    1  0.4039863E+006  0.5862631E+01  0.7546771E-02  0.2433653E+00
         21   -1    0    0  503  502  0.00000000000E+00  0.00000000000E+00  0.91878968145E+01  0.91878968145E+01  0.00000000000E+00 0. -1.
         21   -1    0    0  501  503 -0.00000000000E+00 -0.00000000000E+00 -0.38674036034E+01  0.38674036034E+01  0.00000000000E+00 0.  1.
          5    1    1    2  501    0  0.22149507294E+01  0.27155913345E+01  0.38411196282E+01  0.70088974189E+01  0.47000000000E+01 0. -1.
         -5    1    1    2    0  502 -0.22149507294E+01 -0.27155913345E+01  0.14793735828E+01  0.60464029991E+01  0.47000000000E+01 0. -1.
<mgrwt>
<rscale>  2 0.58626311E+01</rscale>
<asrwt>0</asrwt>
<pdfrwt beam="1">  1       21 0.14135226E-02 0.58626311E+01</pdfrwt>
<pdfrwt beam="2">  1       21 0.59498517E-03 0.58626311E+01</pdfrwt>
<totfact> 0.39204284E+09</totfact>
</mgrwt>
</event>
<event>
 4    1  0.4039863E+006  0.4962655E+01  0.7546771E-02  0.2573822E+00
         21   -1    0    0  503  502  0.00000000000E+00  0.00000000000E+00  0.24222183442E+00  0.24222183442E+00  0.00000000000E+00 0. -1.
         21   -1    0    0  501  503 -0.00000000000E+00 -0.00000000000E+00 -0.13698821052E+03  0.13698821052E+03  0.00000000000E+00 0. -1.
          5    1    1    2  501    0  0.11138693209E+00  0.15891938408E+01 -0.10321045160E+03  0.10332969207E+03  0.47000000000E+01 0. -1.
         -5    1    1    2    0  502 -0.11138693209E+00 -0.15891938408E+01 -0.33535537086E+02  0.33900740283E+02  0.47000000000E+01 0. -1.
<mgrwt>
<rscale>  2 0.49626549E+01</rscale>
<asrwt>0</asrwt>
<pdfrwt beam="1">  1       21 0.37264939E-04 0.49626549E+01</pdfrwt>
<pdfrwt beam="2">  1       21 0.21075086E-01 0.49626549E+01</pdfrwt>
<totfact> 0.25313935E+09</totfact>
</mgrwt>
</event>
<event>
 4    1  0.4039863E+006  0.4919941E+01  0.7546771E-02  0.2581555E+00
         21   -1    0    0  503  502  0.00000000000E+00  0.00000000000E+00  0.12674146788E+03  0.12674146788E+03  0.00000000000E+00 0.  1.
         21   -1    0    0  501  503 -0.00000000000E+00 -0.00000000000E+00 -0.19679582555E+00  0.19679582555E+00  0.00000000000E+00 0.  1.
          5    1    1    2  501    0 -0.12927515934E+01 -0.66679499154E+00  0.52366896737E+02  0.52597506558E+02  0.47000000000E+01 0.  1.
         -5    1    1    2    0  502  0.12927515934E+01  0.66679499154E+00  0.74177775322E+02  0.74340757152E+02  0.47000000000E+01 0.  1.
<mgrwt>
<rscale>  2 0.49199413E+01</rscale>
<asrwt>0</asrwt>
<pdfrwt beam="1">  1       21 0.19498622E-01 0.49199413E+01</pdfrwt>
<pdfrwt beam="2">  1       21 0.30276382E-04 0.49199413E+01</pdfrwt>
<totfact> 0.37400937E+09</totfact>
</mgrwt>
</event>
<event>
 4    1  0.4039863E+006  0.6927875E+01  0.7546771E-02  0.2308327E+00
         21   -1    0    0  501  502  0.00000000000E+00  0.00000000000E+00  0.27883067477E+02  0.27883067477E+02  0.00000000000E+00 0. -1.
         21   -1    0    0  502  503 -0.00000000000E+00 -0.00000000000E+00 -0.48044682725E+01  0.48044682725E+01  0.00000000000E+00 0. -1.
          5    1    1    2  501    0 -0.19761248825E+01  0.46904572265E+01  0.24631941511E+02  0.25587653295E+02  0.47000000000E+01 0. -1.
         -5    1    1    2    0  503  0.19761248825E+01 -0.46904572265E+01 -0.15533423065E+01  0.70998824544E+01  0.47000000000E+01 0. -1.
<mgrwt>
<rscale>  2 0.69278755E+01</rscale>
<asrwt>0</asrwt>
<pdfrwt beam="1">  1       21 0.42897026E-02 0.69278755E+01</pdfrwt>
<pdfrwt beam="2">  1       21 0.73914898E-03 0.69278755E+01</pdfrwt>
<totfact> 0.66089206E+08</totfact>
</mgrwt>
</event>
<event>
 4    1  0.4039863E+006  0.5565169E+01  0.7546771E-02  0.2475705E+00
         21   -1    0    0  503  502  0.00000000000E+00  0.00000000000E+00  0.32110813651E+02  0.32110813651E+02  0.00000000000E+00 0. -1.
         21   -1    0    0  501  503 -0.00000000000E+00 -0.00000000000E+00 -0.25924890472E+01  0.25924890472E+01  0.00000000000E+00 0.  1.
          5    1    1    2  501    0  0.24561105256E+01 -0.16877881626E+01  0.28509302925E+02  0.29047400246E+02  0.47000000000E+01 0. -1.
         -5    1    1    2    0  502 -0.24561105256E+01  0.16877881626E+01  0.10090216785E+01  0.56559024517E+01  0.47000000000E+01 0.  1.
<mgrwt>
<rscale>  2 0.55651692E+01</rscale>
<asrwt>0</asrwt>
<pdfrwt beam="1">  1       21 0.49401249E-02 0.55651692E+01</pdfrwt>
<pdfrwt beam="2">  1       21 0.39884449E-03 0.55651692E+01</pdfrwt>
<totfact> 0.10685630E+09</totfact>
</mgrwt>
</event>
<event>
 4    1  0.4039863E+006  0.7285748E+01  0.7546771E-02  0.2273115E+00
         21   -1    0    0  503  502  0.00000000000E+00  0.00000000000E+00  0.42051509649E-01  0.42051509649E-01  0.00000000000E+00 0. -1.
         21   -1    0    0  501  503 -0.00000000000E+00 -0.00000000000E+00 -0.14643938959E+04  0.14643938959E+04  0.00000000000E+00 0.  1.
          5    1    1    2  501    0 -0.27395717280E+01  0.48463249073E+01 -0.10041799344E+04  0.10042063646E+04  0.47000000000E+01 0.  1.
         -5    1    1    2    0  502  0.27395717280E+01 -0.48463249073E+01 -0.46017190999E+03  0.46022958278E+03  0.47000000000E+01 0.  1.
<mgrwt>
<rscale>  2 0.72857476E+01</rscale>
<asrwt>0</asrwt>
<pdfrwt beam="1">  1       21 0.64692987E-05 0.72857476E+01</pdfrwt>
<pdfrwt beam="2">  1       21 0.22529709E+00 0.72857476E+01</pdfrwt>
<totfact> 0.36372834E+08</totfact>
</mgrwt>
</event>
<event>
 4    1  0.4039863E+006  0.5528290E+01  0.7546771E-02  0.2481184E+00
         21   -1    0    0  501  502  0.00000000000E+00  0.00000000000E+00  0.81627966938E+03  0.81627966938E+03  0.00000000000E+00 0.  1.
         21   -1    0    0  502  503 -0.00000000000E+00 -0.00000000000E+00 -0.71683694748E+00  0.71683694748E+00  0.00000000000E+00 0. -1.
          5    1    1    2  501    0  0.98108515088E+00 -0.27403391610E+01  0.80546862457E+03  0.80548759591E+03  0.47000000000E+01 0.  1.
         -5    1    1    2    0  503 -0.98108515088E+00  0.27403391610E+01  0.10094207863E+02  0.11508910425E+02  0.47000000000E+01 0. -1.
<mgrwt>
<rscale>  2 0.55282897E+01</rscale>
<asrwt>0</asrwt>
<pdfrwt beam="1">  1       21 0.12558074E+00 0.55282897E+01</pdfrwt>
<pdfrwt beam="2">  1       21 0.11028326E-03 0.55282897E+01</pdfrwt>
<totfact> 0.25684030E+07</totfact>
</mgrwt>
</event>
<event>
 4    1  0.4039863E+006  0.6408362E+01  0.7546771E-02  0.2365123E+00
         21   -1    0    0  503  502  0.00000000000E+00  0.00000000000E+00  0.21993099207E+02  0.21993099207E+02  0.00000000000E+00 0.  1.
         21   -1    0    0  501  503 -0.00000000000E+00 -0.00000000000E+00 -0.21274388142E+01  0.21274388142E+01  0.00000000000E+00 0. -1.
          5    1    1    2  501    0  0.82747080918E-01 -0.43554850921E+01  0.57153365347E+01  0.85867438049E+01  0.47000000000E+01 0. -1.
         -5    1    1    2    0  502 -0.82747080918E-01  0.43554850921E+01  0.14150323858E+02  0.15533794217E+02  0.47000000000E+01 0.  1.
<mgrwt>
<rscale>  2 0.64083615E+01</rscale>
<asrwt>0</asrwt>
<pdfrwt beam="1">  1       21 0.33835536E-02 0.64083615E+01</pdfrwt>
<pdfrwt beam="2">  1       21 0.32729829E-03 0.64083615E+01</pdfrwt>
<totfact> 0.27580241E+09</totfact>
</mgrwt>
</event>
<event>
 4    1  0.4039863E+006  0.7049105E+01  0.7546771E-02  0.2296072E+00
         21   -1    0    0  501  502  0.00000000000E+00  0.00000000000E+00  0.41832864004E+00  0.41832864004E+00  0.00000000000E+00 0.  1.
         21   -1    0    0  502  503 -0.00000000000E+00 -0.00000000000E+00 -0.33912372217E+03  0.33912372217E+03  0.00000000000E+00 0.  1.
          5    1    1    2  501    0  0.44302294702E+00  0.52348453662E+01 -0.32506433208E+02  0.33261961386E+02  0.47000000000E+01 0.  1.
         -5    1    1    2    0  503 -0.44302294702E+00 -0.52348453662E+01 -0.30619896032E+03  0.30628008942E+03  0.47000000000E+01 0.  1.
<mgrwt>
<rscale>  2 0.70491046E+01</rscale>
<asrwt>0</asrwt>
<pdfrwt beam="1">  1       21 0.64358265E-04 0.70491046E+01</pdfrwt>
<pdfrwt beam="2">  1       21 0.52172870E-01 0.70491046E+01</pdfrwt>
<totfact> 0.33984420E+08</totfact>
</mgrwt>
</event>
<event>
 4    1  0.4039863E+006  0.9421503E+01  0.7546771E-02  0.2109487E+00
         21   -1    0    0  501  502  0.00000000000E+00  0.00000000000E+00  0.63260421840E+01  0.63260421840E+01  0.00000000000E+00 0.  1.
         21   -1    0    0  502  503 -0.00000000000E+00 -0.00000000000E+00 -0.14036246068E+02  0.14036246068E+02  0.00000000000E+00 0. -1.
          5    1    1    2  501    0  0.33572168441E+00 -0.81585543049E+01 -0.40396261824E+01  0.10251014442E+02  0.47000000000E+01 0. -1.
         -5    1    1    2    0  503 -0.33572168441E+00  0.81585543049E+01 -0.36705777012E+01  0.10111273810E+02  0.47000000000E+01 0.  1.
<mgrwt>
<rscale>  2 0.94215029E+01</rscale>
<asrwt>0</asrwt>
<pdfrwt beam="1">  1       21 0.97323726E-03 0.94215029E+01</pdfrwt>
<pdfrwt beam="2">  1       21 0.21594225E-02 0.94215029E+01</pdfrwt>
<totfact> 0.15161070E+09</totfact>
</mgrwt>
</event>
<event>
 4    1  0.4039863E+006  0.4772844E+01  0.7546771E-02  0.2609101E+00
         21   -1    0    0  503  502  0.00000000000E+00  0.00000000000E+00  0.11877863616E+03  0.11877863616E+03  0.00000000000E+00 0.  1.
         21   -1    0    0  501  503 -0.00000000000E+00 -0.00000000000E+00 -0.19401915767E+00  0.19401915767E+00  0.00000000000E+00 0.  1.
          5    1    1    2  501    0 -0.42393323296E+00 -0.71436548526E+00  0.65674781591E+02  0.65847983830E+02  0.47000000000E+01 0.  1.
         -5    1    1    2    0  502  0.42393323296E+00  0.71436548526E+00  0.52909835412E+02  0.53124671488E+02  0.47000000000E+01 0.  1.
<mgrwt>
<rscale>  2 0.47728437E+01</rscale>
<asrwt>0</asrwt>
<pdfrwt beam="1">  1       21 0.18273578E-01 0.47728437E+01</pdfrwt>
<pdfrwt beam="2">  1       21 0.29849196E-04 0.47728437E+01</pdfrwt>
<totfact> 0.40962051E+09</totfact>
</mgrwt>
</event>
<event>
 4    1  0.4039863E+006  0.6167071E+01  0.7546771E-02  0.2394173E+00
         21   -1    0    0  503  502  0.00000000000E+00  0.00000000000E+00  0.16941585675E+02  0.16941585675E+02  0.00000000000E+00 0. -1.
         21   -1    0    0  501  503 -0.00000000000E+00 -0.00000000000E+00 -0.22760679308E+01  0.22760679308E+01  0.00000000000E+00 0.  1.
          5    1    1    2  501    0  0.19730514641E+01  0.34712862208E+01  0.84565540234E+01  0.10466425658E+02  0.47000000000E+01 0. -1.
         -5    1    1    2    0  502 -0.19730514641E+01 -0.34712862208E+01  0.62089637210E+01  0.87512279478E+01  0.47000000000E+01 0.  1.
<mgrwt>
<rscale>  2 0.61670706E+01</rscale>
<asrwt>0</asrwt>
<pdfrwt beam="1">  1       21 0.26063977E-02 0.61670706E+01</pdfrwt>
<pdfrwt beam="2">  1       21 0.35016431E-03 0.61670706E+01</pdfrwt>
<totfact> 0.35561479E+09</totfact>
</mgrwt>
</event>
<event>
 4    1  0.4039863E+006  0.7769981E+01  0.7546771E-02  0.2229724E+00
         21   -1    0    0  503  502  0.00000000000E+00  0.00000000000E+00  0.20135038503E+03  0.20135038503E+03  0.00000000000E+00 0. -1.
         21   -1    0    0  501  503 -0.00000000000E+00 -0.00000000000E+00 -0.31478768688E+00  0.31478768688E+00  0.00000000000E+00 0.  1.
          5    1    1    2  501    0 -0.50339050498E+01 -0.35975543640E+01  0.78544218525E+02  0.78927605191E+02  0.47000000000E+01 0. -1.
         -5    1    1    2    0  502  0.50339050498E+01  0.35975543640E+01  0.12249137881E+03  0.12273756752E+03  0.47000000000E+01 0.  1.
<mgrwt>
<rscale>  2 0.77699805E+01</rscale>
<asrwt>0</asrwt>
<pdfrwt beam="1">  1       21 0.30976879E-01 0.77699805E+01</pdfrwt>
<pdfrwt beam="2">  1       21 0.48429036E-04 0.77699805E+01</pdfrwt>
<totfact> 0.13378327E+09</totfact>
</mgrwt>
</event>
<event>
 4    1  0.4039863E+006  0.6410664E+01  0.7546771E-02  0.2364855E+00
         21   -1    0    0  503  502  0.00000000000E+00  0.00000000000E+00  0.26724732625E+03  0.26724732625E+03  0.00000000000E+00 0.  1.
         21   -1    0    0  501  503 -0.00000000000E+00 -0.00000000000E+00 -0.24261981000E+00  0.24261981000E+00  0.00000000000E+00 0. -1.
          5    1    1    2  501    0 -0.14932651213E+01  0.40959456777E+01  0.21443511998E+03  0.21453092386E+03  0.47000000000E+01 0.  1.
         -5    1    1    2    0  502  0.14932651213E+01 -0.40959456777E+01  0.52569586452E+02  0.52959022191E+02  0.47000000000E+01 0. -1.
<mgrwt>
<rscale>  2 0.64106639E+01</rscale>
<asrwt>0</asrwt>
<pdfrwt beam="1">  1       21 0.41114738E-01 0.64106639E+01</pdfrwt>
<pdfrwt beam="2">  1       21 0.37326338E-04 0.64106639E+01</pdfrwt>
<totfact> 0.10189119E+09</totfact>
</mgrwt>
</event>
<event>
 4    1  0.4039863E+006  0.6506930E+01  0.7546771E-02  0.2353773E+00
         21   -1    0    0  501  502  0.00000000000E+00  0.00000000000E+00  0.12463565540E+01  0.12463565540E+01  0.00000000000E+00 0. -1.
         21   -1    0    0  502  503 -0.00000000000E+00 -0.00000000000E+00 -0.13395090188E+03  0.13395090188E+03  0.00000000000E+00 0. -1.
          5    1    1    2  501    0  0.43643047785E+01 -0.10968051385E+01 -0.79511569712E+01  0.10274289995E+02  0.47000000000E+01 0. -1.
         -5    1    1    2    0  503 -0.43643047785E+01  0.10968051385E+01 -0.12475338836E+03  0.12492296844E+03  0.47000000000E+01 0. -1.
<mgrwt>
<rscale>  2 0.65069300E+01</rscale>
<asrwt>0</asrwt>
<pdfrwt beam="1">  1       21 0.19174726E-03 0.65069300E+01</pdfrwt>
<pdfrwt beam="2">  1       21 0.20607821E-01 0.65069300E+01</pdfrwt>
<totfact> 0.36376476E+08</totfact>
</mgrwt>
</event>
<event>
 4    1  0.4039863E+006  0.5238379E+01  0.7546771E-02  0.2526527E+00
         21   -1    0    0  501  502  0.00000000000E+00  0.00000000000E+00  0.14798077995E+01  0.14798077995E+01  0.00000000000E+00 0. -1.
         21   -1    0    0  502  503 -0.00000000000E+00 -0.00000000000E+00 -0.18915688067E+02  0.18915688067E+02  0.00000000000E+00 0. -1.
          5    1    1    2  501    0  0.19338234331E+01  0.12692305192E+01 -0.10148651347E+02  0.11420846875E+02  0.47000000000E+01 0. -1.
         -5    1    1    2    0  503 -0.19338234331E+01 -0.12692305192E+01 -0.72872289208E+01  0.89746489917E+01  0.47000000000E+01 0. -1.
<mgrwt>
<rscale>  2 0.52383794E+01</rscale>
<asrwt>0</asrwt>
<pdfrwt beam="1">  1       21 0.22766274E-03 0.52383794E+01</pdfrwt>
<pdfrwt beam="2">  1       21 0.29101059E-02 0.52383794E+01</pdfrwt>
<totfact> 0.46875061E+09</totfact>
</mgrwt>
</event>
<event>
 4    1  0.4039863E+006  0.5747617E+01  0.7546771E-02  0.2449476E+00
         21   -1    0    0  503  502  0.00000000000E+00  0.00000000000E+00  0.96709246347E+00  0.96709246347E+00  0.00000000000E+00 0.  1.
         21   -1    0    0  501  503 -0.00000000000E+00 -0.00000000000E+00 -0.38008163287E+02  0.38008163287E+02  0.00000000000E+00 0.  1.
          5    1    1    2  501    0 -0.31525045418E+01 -0.10034001608E+01 -0.24721980376E+02  0.25381320109E+02  0.47000000000E+01 0.  1.
         -5    1    1    2    0  502  0.31525045418E+01  0.10034001608E+01 -0.12319090448E+02  0.13593935642E+02  0.47000000000E+01 0.  1.
<mgrwt>
<rscale>  2 0.57476166E+01</rscale>
<asrwt>0</asrwt>
<pdfrwt beam="1">  1       21 0.14878343E-03 0.57476166E+01</pdfrwt>
<pdfrwt beam="2">  1       21 0.58474106E-02 0.57476166E+01</pdfrwt>
<totfact> 0.32806430E+09</totfact>
</mgrwt>
</event>
<event>
 4    1  0.4039863E+006  0.6700484E+01  0.7546771E-02  0.2332292E+00
         21   -1    0    0  503  502  0.00000000000E+00  0.00000000000E+00  0.54810907991E+01  0.54810907991E+01  0.00000000000E+00 0.  1.
         21   -1    0    0  501  503 -0.00000000000E+00 -0.00000000000E+00 -0.11943733153E+02  0.11943733153E+02  0.00000000000E+00 0. -1.
          5    1    1    2  501    0 -0.98958391582E+00  0.46719598339E+01 -0.81148416379E+01  0.10523646698E+02  0.47000000000E+01 0. -1.
         -5    1    1    2    0  502  0.98958391582E+00 -0.46719598339E+01  0.16521992842E+01  0.69011772540E+01  0.47000000000E+01 0.  1.
<mgrwt>
<rscale>  2 0.67004839E+01</rscale>
<asrwt>0</asrwt>
<pdfrwt beam="1">  1       21 0.84324475E-03 0.67004839E+01</pdfrwt>
<pdfrwt beam="2">  1       21 0.18374974E-02 0.67004839E+01</pdfrwt>
<totfact> 0.18511782E+09</totfact>
</mgrwt>
</event>
<event>
 4    1  0.4039863E+006  0.9441776E+01  0.7546771E-02  0.2108222E+00
         21   -1    0    0  501  502  0.00000000000E+00  0.00000000000E+00  0.98197430805E+00  0.98197430805E+00  0.00000000000E+00 0.  1.
         21   -1    0    0  502  503 -0.00000000000E+00 -0.00000000000E+00 -0.20390760120E+03  0.20390760120E+03  0.00000000000E+00 0. -1.
          5    1    1    2  501    0 -0.38396079701E+01 -0.72328788240E+01 -0.25158232590E+02  0.26871616857E+02  0.47000000000E+01 0.  1.
         -5    1    1    2    0  503  0.38396079701E+01  0.72328788240E+01 -0.17776739430E+03  0.17801795865E+03  0.47000000000E+01 0. -1.
<mgrwt>
<rscale>  2 0.94417755E+01</rscale>
<asrwt>0</asrwt>
<pdfrwt beam="1">  1       21 0.15107281E-03 0.94417755E+01</pdfrwt>
<pdfrwt beam="2">  1       21 0.31370433E-01 0.94417755E+01</pdfrwt>
<totfact> 0.30904341E+08</totfact>
</mgrwt>
</event>
<event>
 4    1  0.4039863E+006  0.5463067E+01  0.7546771E-02  0.2491027E+00
         21   -1    0    0  501  502  0.00000000000E+00  0.00000000000E+00  0.15625006242E+00  0.15625006242E+00  0.00000000000E+00 0.  1.
         21   -1    0    0  502  503 -0.00000000000E+00 -0.00000000000E+00 -0.20741298284E+03  0.20741298284E+03  0.00000000000E+00 0.  1.
          5    1    1    2  501    0 -0.95704535661E-03  0.27847973712E+01 -0.74440948762E+02  0.74641141135E+02  0.47000000000E+01 0.  1.
         -5    1    1    2    0  503  0.95704535661E-03 -0.27847973712E+01 -0.13281578401E+03  0.13292809176E+03  0.47000000000E+01 0.  1.
<mgrwt>
<rscale>  2 0.54630667E+01</rscale>
<asrwt>0</asrwt>
<pdfrwt beam="1">  1       21 0.24038456E-04 0.54630667E+01</pdfrwt>
<pdfrwt beam="2">  1       21 0.31909710E-01 0.54630667E+01</pdfrwt>
<totfact> 0.25032999E+09</totfact>
</mgrwt>
</event>
<event>
 4    1  0.4039863E+006  0.1028584E+02  0.7546771E-02  0.2059076E+00
         21   -1    0    0  503  502  0.00000000000E+00  0.00000000000E+00  0.49359330758E+01  0.49359330758E+01  0.00000000000E+00 0. -1.
         21   -1    0    0  501  503 -0.00000000000E+00 -0.00000000000E+00 -0.21529435565E+02  0.21529435565E+02  0.00000000000E+00 0.  1.
          5    1    1    2  501    0  0.17043969526E+01  0.89890765728E+01 -0.91762035654E+01  0.13784091500E+02  0.47000000000E+01 0. -1.
         -5    1    1    2    0  502 -0.17043969526E+01 -0.89890765728E+01 -0.74172989241E+01  0.12681277141E+02  0.47000000000E+01 0. -1.
<mgrwt>
<rscale>  2 0.10285838E+02</rscale>
<asrwt>0</asrwt>
<pdfrwt beam="1">  1       21 0.75937432E-03 0.10285838E+02</pdfrwt>
<pdfrwt beam="2">  1       21 0.33122209E-02 0.10285838E+02</pdfrwt>
<totfact> 0.12077677E+09</totfact>
</mgrwt>
</event>
<event>
 4    1  0.4039863E+006  0.5319640E+01  0.7546771E-02  0.2513393E+00
         21   -1    0    0  503  502  0.00000000000E+00  0.00000000000E+00  0.11538459291E+02  0.11538459291E+02  0.00000000000E+00 0.  1.
         21   -1    0    0  501  503 -0.00000000000E+00 -0.00000000000E+00 -0.28032138184E+01  0.28032138184E+01  0.00000000000E+00 0. -1.
          5    1    1    2  501    0 -0.15812018428E+01  0.19257116183E+01  0.18313749045E+01  0.56260553272E+01  0.47000000000E+01 0. -1.
         -5    1    1    2    0  502  0.15812018428E+01 -0.19257116183E+01  0.69038705685E+01  0.87156177825E+01  0.47000000000E+01 0.  1.
<mgrwt>
<rscale>  2 0.53196395E+01</rscale>
<asrwt>0</asrwt>
<pdfrwt beam="1">  1       21 0.17751476E-02 0.53196395E+01</pdfrwt>
<pdfrwt beam="2">  1       21 0.43126367E-03 0.53196395E+01</pdfrwt>
<totfact> 0.40369936E+09</totfact>
</mgrwt>
</event>
<event>
 4    1  0.4039863E+006  0.7825268E+01  0.7546771E-02  0.2225048E+00
         21   -1    0    0  501  502  0.00000000000E+00  0.00000000000E+00  0.14145358166E+02  0.14145358166E+02  0.00000000000E+00 0.  1.
         21   -1    0    0  502  503 -0.00000000000E+00 -0.00000000000E+00 -0.14803664256E+02  0.14803664256E+02  0.00000000000E+00 0.  1.
          5    1    1    2  501    0  0.44671959260E+01 -0.43805233880E+01  0.11846435989E+02  0.14197636079E+02  0.47000000000E+01 0.  1.
         -5    1    1    2    0  503 -0.44671959260E+01  0.43805233880E+01 -0.12504742079E+02  0.14751386344E+02  0.47000000000E+01 0.  1.
<mgrwt>
<rscale>  2 0.78252683E+01</rscale>
<asrwt>0</asrwt>
<pdfrwt beam="1">  1       21 0.21762089E-02 0.78252683E+01</pdfrwt>
<pdfrwt beam="2">  1       21 0.22774868E-02 0.78252683E+01</pdfrwt>
<totfact> 0.38696573E+08</totfact>
</mgrwt>
</event>
<event>
 4    1  0.4039863E+006  0.4884613E+01  0.7546771E-02  0.2588040E+00
         21   -1    0    0  501  502  0.00000000000E+00  0.00000000000E+00  0.26935809431E+02  0.26935809431E+02  0.00000000000E+00 0.  1.
         21   -1    0    0  502  503 -0.00000000000E+00 -0.00000000000E+00 -0.91957732266E+00  0.91957732266E+00  0.00000000000E+00 0.  1.
          5    1    1    2  501    0  0.11805037874E+01 -0.61306720031E+00  0.15677857051E+02  0.16421164462E+02  0.47000000000E+01 0.  1.
         -5    1    1    2    0  503 -0.11805037874E+01  0.61306720031E+00  0.10338375058E+02  0.11434222292E+02  0.47000000000E+01 0.  1.
<mgrwt>
<rscale>  2 0.48846126E+01</rscale>
<asrwt>0</asrwt>
<pdfrwt beam="1">  1       21 0.41439701E-02 0.48846126E+01</pdfrwt>
<pdfrwt beam="2">  1       21 0.14147345E-03 0.48846126E+01</pdfrwt>
<totfact> 0.49572621E+09</totfact>
</mgrwt>
</event>
<event>
 4    1  0.4039863E+006  0.8424580E+01  0.7546771E-02  0.2177566E+00
         21   -1    0    0  503  502  0.00000000000E+00  0.00000000000E+00  0.85337638362E+02  0.85337638362E+02  0.00000000000E+00 0. -1.
         21   -1    0    0  501  503 -0.00000000000E+00 -0.00000000000E+00 -0.11470190381E+01  0.11470190381E+01  0.00000000000E+00 0. -1.
          5    1    1    2  501    0  0.59733250387E+01  0.36335853776E+01  0.19422097481E+02  0.21170532002E+02  0.47000000000E+01 0. -1.
         -5    1    1    2    0  502 -0.59733250387E+01 -0.36335853776E+01  0.64768521843E+02  0.65314125398E+02  0.47000000000E+01 0. -1.
<mgrwt>
<rscale>  2 0.84245804E+01</rscale>
<asrwt>0</asrwt>
<pdfrwt beam="1">  1       21 0.13128862E-01 0.84245804E+01</pdfrwt>
<pdfrwt beam="2">  1       21 0.17646453E-03 0.84245804E+01</pdfrwt>
<totfact> 0.99744670E+08</totfact>
</mgrwt>
</event>
<event>
 4    1  0.4039863E+006  0.5304834E+01  0.7546771E-02  0.2515761E+00
         21   -1    0    0  501  502  0.00000000000E+00  0.00000000000E+00  0.38799864304E+03  0.38799864304E+03  0.00000000000E+00 0.  1.
         21   -1    0    0  502  503 -0.00000000000E+00 -0.00000000000E+00 -0.72539659545E-01  0.72539659545E-01  0.00000000000E+00 0.  1.
          5    1    1    2  501    0 -0.24378759239E+01  0.32866838466E+00  0.19164192629E+03  0.19171533369E+03  0.47000000000E+01 0.  1.
         -5    1    1    2    0  503  0.24378759239E+01 -0.32866838466E+00  0.19628417709E+03  0.19635584901E+03  0.47000000000E+01 0.  1.
<mgrwt>
<rscale>  2 0.53048338E+01</rscale>
<asrwt>0</asrwt>
<pdfrwt beam="1">  1       21 0.59690437E-01 0.53048338E+01</pdfrwt>
<pdfrwt beam="2">  1       21 0.11160258E-04 0.53048338E+01</pdfrwt>
<totfact> 0.22541727E+09</totfact>
</mgrwt>
</event>
<event>
 4    1  0.4039863E+006  0.5412321E+01  0.7546771E-02  0.2498825E+00
         21   -1    0    0  503  502  0.00000000000E+00  0.00000000000E+00  0.19852634963E+02  0.19852634963E+02  0.00000000000E+00 0.  1.
         21   -1    0    0  501  503 -0.00000000000E+00 -0.00000000000E+00 -0.17042987243E+01  0.17042987243E+01  0.00000000000E+00 0.  1.
          5    1    1    2  501    0  0.15436819649E+01  0.21955094952E+01  0.51252356466E+01  0.74539423385E+01  0.47000000000E+01 0.  1.
         -5    1    1    2    0  502 -0.15436819649E+01 -0.21955094952E+01  0.13023100592E+02  0.14102991348E+02  0.47000000000E+01 0.  1.
<mgrwt>
<rscale>  2 0.54123208E+01</rscale>
<asrwt>0</asrwt>
<pdfrwt beam="1">  1       21 0.30542514E-02 0.54123208E+01</pdfrwt>
<pdfrwt beam="2">  1       21 0.26219982E-03 0.54123208E+01</pdfrwt>
<totfact> 0.37298557E+09</totfact>
</mgrwt>
</event>
<event>
 4    1  0.4039863E+006  0.4832765E+01  0.7546771E-02  0.2597704E+00
         21   -1    0    0  501  502  0.00000000000E+00  0.00000000000E+00  0.20634327433E+02  0.20634327433E+02  0.00000000000E+00 0.  1.
         21   -1    0    0  502  503 -0.00000000000E+00 -0.00000000000E+00 -0.22225307672E+01  0.22225307672E+01  0.00000000000E+00 0.  1.
          5    1    1    2  501    0 -0.53493695439E+00 -0.98967716276E+00  0.17211706063E+02  0.17877316466E+02  0.47000000000E+01 0.  1.
         -5    1    1    2    0  503  0.53493695439E+00  0.98967716276E+00  0.12000906037E+01  0.49795417348E+01  0.47000000000E+01 0.  1.
<mgrwt>
<rscale>  2 0.48327651E+01</rscale>
<asrwt>0</asrwt>
<pdfrwt beam="1">  1       21 0.31745118E-02 0.48327651E+01</pdfrwt>
<pdfrwt beam="2">  1       21 0.34192782E-03 0.48327651E+01</pdfrwt>
<totfact> 0.21945668E+09</totfact>
</mgrwt>
</event>
<event>
 4    1  0.4039863E+006  0.5422510E+01  0.7546771E-02  0.2497249E+00
         21   -1    0    0  503  502  0.00000000000E+00  0.00000000000E+00  0.11126986275E+03  0.11126986275E+03  0.00000000000E+00 0. -1.
         21   -1    0    0  501  503 -0.00000000000E+00 -0.00000000000E+00 -0.42369774437E+00  0.42369774437E+00  0.00000000000E+00 0. -1.
          5    1    1    2  501    0 -0.22220647719E+01  0.15414433439E+01  0.21164260824E+02  0.21847873024E+02  0.47000000000E+01 0. -1.
         -5    1    1    2    0  502  0.22220647719E+01 -0.15414433439E+01  0.89681904178E+02  0.89845687467E+02  0.47000000000E+01 0. -1.
<mgrwt>
<rscale>  2 0.54225104E+01</rscale>
<asrwt>0</asrwt>
<pdfrwt beam="1">  1       21 0.17118417E-01 0.54225104E+01</pdfrwt>
<pdfrwt beam="2">  1       21 0.65184357E-04 0.54225104E+01</pdfrwt>
<totfact> 0.18198782E+09</totfact>
</mgrwt>
</event>
<event>
 4    1  0.4039863E+006  0.5797272E+01  0.7546771E-02  0.2442580E+00
         21   -1    0    0  503  502  0.00000000000E+00  0.00000000000E+00  0.18556439271E+04  0.18556439271E+04  0.00000000000E+00 0. -1.
         21   -1    0    0  501  503 -0.00000000000E+00 -0.00000000000E+00 -0.30182233466E-01  0.30182233466E-01  0.00000000000E+00 0. -1.
          5    1    1    2  501    0  0.27536413954E+01 -0.19838914259E+01  0.34104200151E+03  0.34109127101E+03  0.47000000000E+01 0. -1.
         -5    1    1    2    0  502 -0.27536413954E+01  0.19838914259E+01  0.15145717434E+04  0.15145828383E+04  0.47000000000E+01 0. -1.
<mgrwt>
<rscale>  2 0.57972723E+01</rscale>
<asrwt>0</asrwt>
<pdfrwt beam="1">  1       21 0.28539233E+00 0.57972723E+01</pdfrwt>
<pdfrwt beam="2">  1       21 0.46449068E-05 0.57972723E+01</pdfrwt>
<totfact> 0.28990812E+08</totfact>
</mgrwt>
</event>
<event>
 4    1  0.4039863E+006  0.5394956E+01  0.7546771E-02  0.2501522E+00
         21   -1    0    0  501  502  0.00000000000E+00  0.00000000000E+00  0.44734809843E+01  0.44734809843E+01  0.00000000000E+00 0.  1.
         21   -1    0    0  502  503 -0.00000000000E+00 -0.00000000000E+00 -0.69286812859E+01  0.69286812859E+01  0.00000000000E+00 0.  1.
          5    1    1    2  501    0 -0.19491009680E+01  0.17934766300E+01  0.18011154385E+00  0.53979619463E+01  0.47000000000E+01 0.  1.
         -5    1    1    2    0  503  0.19491009680E+01 -0.17934766300E+01 -0.26353118455E+01  0.60042003238E+01  0.47000000000E+01 0.  1.
<mgrwt>
<rscale>  2 0.53949563E+01</rscale>
<asrwt>0</asrwt>
<pdfrwt beam="1">  1       21 0.68822785E-03 0.53949563E+01</pdfrwt>
<pdfrwt beam="2">  1       21 0.10659510E-02 0.53949563E+01</pdfrwt>
<totfact> 0.44090884E+09</totfact>
</mgrwt>
</event>
<event>
 4    1  0.4039863E+006  0.6405266E+01  0.7546771E-02  0.2365484E+00
         21   -1    0    0  503  502  0.00000000000E+00  0.00000000000E+00  0.50007738155E+00  0.50007738155E+00  0.00000000000E+00 0.  1.
         21   -1    0    0  501  503 -0.00000000000E+00 -0.00000000000E+00 -0.96354406219E+02  0.96354406219E+02  0.00000000000E+00 0. -1.
          5    1    1    2  501    0 -0.12641148242E+01 -0.41640662245E+01 -0.66591291567E+02  0.66898636357E+02  0.47000000000E+01 0. -1.
         -5    1    1    2    0  502  0.12641148242E+01  0.41640662245E+01 -0.29263037270E+02  0.29955847244E+02  0.47000000000E+01 0.  1.
<mgrwt>
<rscale>  2 0.64052661E+01</rscale>
<asrwt>0</asrwt>
<pdfrwt beam="1">  1       21 0.76935036E-04 0.64052661E+01</pdfrwt>
<pdfrwt beam="2">  1       21 0.14823744E-01 0.64052661E+01</pdfrwt>
<totfact> 0.21018637E+09</totfact>
</mgrwt>
</event>
<event>
 4    1  0.4039863E+006  0.6125311E+01  0.7546771E-02  0.2399394E+00
         21   -1    0    0  501  502  0.00000000000E+00  0.00000000000E+00  0.48166866203E+03  0.48166866203E+03  0.00000000000E+00 0. -1.
         21   -1    0    0  502  503 -0.00000000000E+00 -0.00000000000E+00 -0.25656892970E+00  0.25656892970E+00  0.00000000000E+00 0. -1.
          5    1    1    2  501    0 -0.21519682326E+01 -0.32861012540E+01  0.44179055538E+03  0.44183301625E+03  0.47000000000E+01 0. -1.
         -5    1    1    2    0  503  0.21519682326E+01  0.32861012540E+01  0.39621537722E+02  0.40092214708E+02  0.47000000000E+01 0. -1.
<mgrwt>
<rscale>  2 0.61253105E+01</rscale>
<asrwt>0</asrwt>
<pdfrwt beam="1">  1       21 0.74102147E-01 0.61253105E+01</pdfrwt>
<pdfrwt beam="2">  1       21 0.39472529E-04 0.61253105E+01</pdfrwt>
<totfact> 0.31069781E+08</totfact>
</mgrwt>
</event>
<event>
 4    1  0.4039863E+006  0.6273906E+01  0.7546771E-02  0.2381082E+00
         21   -1    0    0  503  502  0.00000000000E+00  0.00000000000E+00  0.35005408430E+01  0.35005408430E+01  0.00000000000E+00 0.  1.
         21   -1    0    0  501  503 -0.00000000000E+00 -0.00000000000E+00 -0.10284044745E+03  0.10284044745E+03  0.00000000000E+00 0. -1.
          5    1    1    2  501    0  0.33194734280E+01  0.25005972398E+01 -0.99849508524E+02  0.10004642044E+03  0.47000000000E+01 0. -1.
         -5    1    1    2    0  502 -0.33194734280E+01 -0.25005972398E+01  0.50960191304E+00  0.62945678569E+01  0.47000000000E+01 0.  1.
<mgrwt>
<rscale>  2 0.62739055E+01</rscale>
<asrwt>0</asrwt>
<pdfrwt beam="1">  1       21 0.53854482E-03 0.62739055E+01</pdfrwt>
<pdfrwt beam="2">  1       21 0.15821605E-01 0.62739055E+01</pdfrwt>
<totfact> 0.13056436E+08</totfact>
</mgrwt>
</event>
<event>
 4    1  0.4039863E+006  0.6440609E+01  0.7546771E-02  0.2361378E+00
         21   -1    0    0  501  502  0.00000000000E+00  0.00000000000E+00  0.14434664340E+02  0.14434664340E+02  0.00000000000E+00 0. -1.
         21   -1    0    0  502  503 -0.00000000000E+00 -0.00000000000E+00 -0.28837258609E+01  0.28837258609E+01  0.00000000000E+00 0.  1.
          5    1    1    2  501    0  0.42794010951E+01 -0.10383479467E+01  0.62850836030E+01  0.89990952927E+01  0.47000000000E+01 0.  1.
         -5    1    1    2    0  503 -0.42794010951E+01  0.10383479467E+01  0.52658548758E+01  0.83192949079E+01  0.47000000000E+01 0. -1.
<mgrwt>
<rscale>  2 0.64406087E+01</rscale>
<asrwt>0</asrwt>
<pdfrwt beam="1">  1       21 0.22207175E-02 0.64406087E+01</pdfrwt>
<pdfrwt beam="2">  1       21 0.44365014E-03 0.64406087E+01</pdfrwt>
<totfact> 0.33553479E+09</totfact>
</mgrwt>
</event>
<event>
 4    1  0.4039863E+006  0.5351020E+01  0.7546771E-02  0.2508413E+00
         21   -1    0    0  503  502  0.00000000000E+00  0.00000000000E+00  0.18559677597E+01  0.18559677597E+01  0.00000000000E+00 0.  1.
         21   -1    0    0  501  503 -0.00000000000E+00 -0.00000000000E+00 -0.70300299165E+02  0.70300299165E+02  0.00000000000E+00 0.  1.
          5    1    1    2  501    0  0.24872255588E+01  0.59759474605E+00 -0.66096640250E+02  0.66312889116E+02  0.47000000000E+01 0.  1.
         -5    1    1    2    0  502 -0.24872255588E+01 -0.59759474605E+00 -0.23476911547E+01  0.58433778090E+01  0.47000000000E+01 0.  1.
<mgrwt>
<rscale>  2 0.53510196E+01</rscale>
<asrwt>0</asrwt>
<pdfrwt beam="1">  1       21 0.28553350E-03 0.53510196E+01</pdfrwt>
<pdfrwt beam="2">  1       21 0.10815431E-01 0.53510196E+01</pdfrwt>
<totfact> 0.50484952E+08</totfact>
</mgrwt>
</event>
<event>
 4    1  0.4039863E+006  0.4956994E+01  0.7546771E-02  0.2574840E+00
         21   -1    0    0  501  502  0.00000000000E+00  0.00000000000E+00  0.18043369932E+01  0.18043369932E+01  0.00000000000E+00 0.  1.
         21   -1    0    0  502  503 -0.00000000000E+00 -0.00000000000E+00 -0.14347018776E+03  0.14347018776E+03  0.00000000000E+00 0.  1.
          5    1    1    2  501    0  0.12314940651E+01  0.98245120417E+00 -0.17289603425E+01  0.52498658904E+01  0.47000000000E+01 0.  1.
         -5    1    1    2    0  503 -0.12314940651E+01 -0.98245120417E+00 -0.13993689043E+03  0.14002465887E+03  0.47000000000E+01 0.  1.
<mgrwt>
<rscale>  2 0.49569938E+01</rscale>
<asrwt>0</asrwt>
<pdfrwt beam="1">  1       21 0.27759020E-03 0.49569938E+01</pdfrwt>
<pdfrwt beam="2">  1       21 0.22072345E-01 0.49569938E+01</pdfrwt>
<totfact> 0.16162200E+08</totfact>
</mgrwt>
</event>
<event>
 4    1  0.4039863E+006  0.5999049E+01  0.7546771E-02  0.2415547E+00
         21   -1    0    0  501  502  0.00000000000E+00  0.00000000000E+00  0.10741358043E+01  0.10741358043E+01  0.00000000000E+00 0. -1.
         21   -1    0    0  502  503 -0.00000000000E+00 -0.00000000000E+00 -0.47624488980E+02  0.47624488980E+02  0.00000000000E+00 0.  1.
          5    1    1    2  501    0 -0.17058968627E+01 -0.33148910201E+01 -0.10016938852E+02  0.11675943240E+02  0.47000000000E+01 0. -1.
         -5    1    1    2    0  503  0.17058968627E+01  0.33148910201E+01 -0.36533414323E+02  0.37022681544E+02  0.47000000000E+01 0.  1.
<mgrwt>
<rscale>  2 0.59990488E+01</rscale>
<asrwt>0</asrwt>
<pdfrwt beam="1">  1       21 0.16525173E-03 0.59990488E+01</pdfrwt>
<pdfrwt beam="2">  1       21 0.73268415E-02 0.59990488E+01</pdfrwt>
<totfact> 0.21073961E+09</totfact>
</mgrwt>
</event>
<event>
 4    1  0.4039863E+006  0.6888035E+01  0.7546771E-02  0.2312432E+00
         21   -1    0    0  503  502  0.00000000000E+00  0.00000000000E+00  0.11923368008E+00  0.11923368008E+00  0.00000000000E+00 0.  1.
         21   -1    0    0  501  503 -0.00000000000E+00 -0.00000000000E+00 -0.40027802230E+03  0.40027802230E+03  0.00000000000E+00 0. -1.
          5    1    1    2  501    0  0.44161132472E+01 -0.24192902261E+01 -0.18470148619E+03  0.18482987859E+03  0.47000000000E+01 0.  1.
         -5    1    1    2    0  502 -0.44161132472E+01  0.24192902261E+01 -0.21545730243E+03  0.21556737738E+03  0.47000000000E+01 0. -1.
<mgrwt>
<rscale>  2 0.68880347E+01</rscale>
<asrwt>0</asrwt>
<pdfrwt beam="1">  1       21 0.18343614E-04 0.68880347E+01</pdfrwt>
<pdfrwt beam="2">  1       21 0.61581333E-01 0.68880347E+01</pdfrwt>
<totfact> 0.13305978E+09</totfact>
</mgrwt>
</event>
<event>
 4    1  0.4039863E+006  0.6468622E+01  0.7546771E-02  0.2358150E+00
         21   -1    0    0  503  502  0.00000000000E+00  0.00000000000E+00  0.82919477949E+02  0.82919477949E+02  0.00000000000E+00 0.  1.
         21   -1    0    0  501  503 -0.00000000000E+00 -0.00000000000E+00 -0.60360246516E+00  0.60360246516E+00  0.00000000000E+00 0. -1.
          5    1    1    2  501    0  0.32433361947E+01 -0.30387242391E+01  0.24246770512E+02  0.25094799360E+02  0.47000000000E+01 0. -1.
         -5    1    1    2    0  502 -0.32433361947E+01  0.30387242391E+01  0.58069104972E+02  0.58428281054E+02  0.47000000000E+01 0.  1.
<mgrwt>
<rscale>  2 0.64686223E+01</rscale>
<asrwt>0</asrwt>
<pdfrwt beam="1">  1       21 0.12756834E-01 0.64686223E+01</pdfrwt>
<pdfrwt beam="2">  1       21 0.92861983E-04 0.64686223E+01</pdfrwt>
<totfact> 0.20832640E+09</totfact>
</mgrwt>
</event>
<event>
 4    1  0.4039863E+006  0.5823342E+01  0.7546771E-02  0.2438999E+00
         21   -1    0    0  501  502  0.00000000000E+00  0.00000000000E+00  0.78156219486E+01  0.78156219486E+01  0.00000000000E+00 0.  1.
         21   -1    0    0  502  503 -0.00000000000E+00 -0.00000000000E+00 -0.44560279650E+01  0.44560279650E+01  0.00000000000E+00 0. -1.
          5    1    1    2  501    0 -0.31256143892E+01  0.14324261112E+01  0.68507038717E+00  0.58634999198E+01  0.47000000000E+01 0. -1.
         -5    1    1    2    0  503  0.31256143892E+01 -0.14324261112E+01  0.26745235964E+01  0.64081499937E+01  0.47000000000E+01 0.  1.
<mgrwt>
<rscale>  2 0.58233418E+01</rscale>
<asrwt>0</asrwt>
<pdfrwt beam="1">  1       21 0.12024034E-02 0.58233418E+01</pdfrwt>
<pdfrwt beam="2">  1       21 0.68554277E-03 0.58233418E+01</pdfrwt>
<totfact> 0.40220678E+09</totfact>
</mgrwt>
</event>
<event>
 4    1  0.4039863E+006  0.5348468E+01  0.7546771E-02  0.2508816E+00
         21   -1    0    0  501  502  0.00000000000E+00  0.00000000000E+00  0.83933122432E+01  0.83933122432E+01  0.00000000000E+00 0. -1.
         21   -1    0    0  502  503 -0.00000000000E+00 -0.00000000000E+00 -0.12880370406E+02  0.12880370406E+02  0.00000000000E+00 0.  1.
          5    1    1    2  501    0 -0.22598459601E+01 -0.11871001500E+01  0.68781164377E+01  0.87128982698E+01  0.47000000000E+01 0. -1.
         -5    1    1    2    0  503  0.22598459601E+01  0.11871001500E+01 -0.11365174601E+02  0.12560784380E+02  0.47000000000E+01 0.  1.
<mgrwt>
<rscale>  2 0.53484681E+01</rscale>
<asrwt>0</asrwt>
<pdfrwt beam="1">  1       21 0.12912788E-02 0.53484681E+01</pdfrwt>
<pdfrwt beam="2">  1       21 0.19815954E-02 0.53484681E+01</pdfrwt>
<totfact> 0.75448246E+08</totfact>
</mgrwt>
</event>
<event>
 4    1  0.4039863E+006  0.1554264E+02  0.7546771E-02  0.1851947E+00
         21   -1    0    0  503  502  0.00000000000E+00  0.00000000000E+00  0.41166631732E+01  0.41166631732E+01  0.00000000000E+00 0.  1.
         21   -1    0    0  501  503 -0.00000000000E+00 -0.00000000000E+00 -0.59106624594E+02  0.59106624594E+02  0.00000000000E+00 0. -1.
          5    1    1    2  501    0  0.10211636404E+02 -0.10733418727E+02 -0.24815439256E+02  0.29281048839E+02  0.47000000000E+01 0. -1.
         -5    1    1    2    0  502 -0.10211636404E+02  0.10733418727E+02 -0.30174522165E+02  0.33942238929E+02  0.47000000000E+01 0.  1.
<mgrwt>
<rscale>  2 0.15542644E+02</rscale>
<asrwt>0</asrwt>
<pdfrwt beam="1">  1       21 0.63333281E-03 0.15542644E+02</pdfrwt>
<pdfrwt beam="2">  1       21 0.90933267E-02 0.15542644E+02</pdfrwt>
<totfact> 0.39921686E+08</totfact>
</mgrwt>
</event>
<event>
 4    1  0.4039863E+006  0.1334160E+02  0.7546771E-02  0.1923341E+00
         21   -1    0    0  501  502  0.00000000000E+00  0.00000000000E+00  0.21764942757E+01  0.21764942757E+01  0.00000000000E+00 0. -1.
         21   -1    0    0  502  503 -0.00000000000E+00 -0.00000000000E+00 -0.96007918136E+02  0.96007918136E+02  0.00000000000E+00 0.  1.
          5    1    1    2  501    0  0.11924179071E+02  0.37043467341E+01 -0.28018491060E+02  0.31032790279E+02  0.47000000000E+01 0.  1.
         -5    1    1    2    0  503 -0.11924179071E+02 -0.37043467341E+01 -0.65812932800E+02  0.67151622132E+02  0.47000000000E+01 0. -1.
<mgrwt>
<rscale>  2 0.13341598E+02</rscale>
<asrwt>0</asrwt>
<pdfrwt beam="1">  1       21 0.33484531E-03 0.13341598E+02</pdfrwt>
<pdfrwt beam="2">  1       21 0.14770447E-01 0.13341598E+02</pdfrwt>
<totfact> 0.42568785E+08</totfact>
</mgrwt>
</event>
<event>
 4    1  0.4039863E+006  0.5379943E+01  0.7546771E-02  0.2503866E+00
         21   -1    0    0  503  502  0.00000000000E+00  0.00000000000E+00  0.10639808055E+03  0.10639808055E+03  0.00000000000E+00 0.  1.
         21   -1    0    0  501  503 -0.00000000000E+00 -0.00000000000E+00 -0.51052359910E+00  0.51052359910E+00  0.00000000000E+00 0. -1.
          5    1    1    2  501    0 -0.18157292140E+01 -0.18859772897E+01  0.16408666970E+02  0.17268124815E+02  0.47000000000E+01 0. -1.
         -5    1    1    2    0  502  0.18157292140E+01  0.18859772897E+01  0.89478889985E+02  0.89640479338E+02  0.47000000000E+01 0.  1.
<mgrwt>
<rscale>  2 0.53799426E+01</rscale>
<asrwt>0</asrwt>
<pdfrwt beam="1">  1       21 0.16368918E-01 0.53799426E+01</pdfrwt>
<pdfrwt beam="2">  1       21 0.78542177E-04 0.53799426E+01</pdfrwt>
<totfact> 0.15131650E+09</totfact>
</mgrwt>
</event>
<event>
 4    1  0.4039863E+006  0.5832515E+01  0.7546771E-02  0.2437745E+00
         21   -1    0    0  501  502  0.00000000000E+00  0.00000000000E+00  0.46850641035E+02  0.46850641035E+02  0.00000000000E+00 0.  1.
         21   -1    0    0  502  503 -0.00000000000E+00 -0.00000000000E+00 -0.40772870264E+01  0.40772870264E+01  0.00000000000E+00 0.  1.
          5    1    1    2  501    0 -0.12606316636E+01 -0.32154383790E+01  0.44472200238E+02  0.44853035908E+02  0.47000000000E+01 0.  1.
         -5    1    1    2    0  503  0.12606316636E+01  0.32154383790E+01 -0.16988462296E+01  0.60748921531E+01  0.47000000000E+01 0.  1.
<mgrwt>
<rscale>  2 0.58325154E+01</rscale>
<asrwt>0</asrwt>
<pdfrwt beam="1">  1       21 0.72077906E-02 0.58325154E+01</pdfrwt>
<pdfrwt beam="2">  1       21 0.62727496E-03 0.58325154E+01</pdfrwt>
<totfact> 0.33765909E+08</totfact>
</mgrwt>
</event>
<event>
 4    1  0.4039863E+006  0.1079919E+02  0.7546771E-02  0.2032167E+00
         21   -1    0    0  503  502  0.00000000000E+00  0.00000000000E+00  0.78234893218E+01  0.78234893218E+01  0.00000000000E+00 0.  1.
         21   -1    0    0  501  503 -0.00000000000E+00 -0.00000000000E+00 -0.18715264167E+02  0.18715264167E+02  0.00000000000E+00 0. -1.
          5    1    1    2  501    0  0.94945156413E+01 -0.20944445781E+01 -0.11431827006E+02  0.15726067342E+02  0.47000000000E+01 0. -1.
         -5    1    1    2    0  502 -0.94945156413E+01  0.20944445781E+01  0.54005216161E+00  0.10812686146E+02  0.47000000000E+01 0.  1.
<mgrwt>
<rscale>  2 0.10799191E+02</rscale>
<asrwt>0</asrwt>
<pdfrwt beam="1">  1       21 0.12036137E-02 0.10799191E+02</pdfrwt>
<pdfrwt beam="2">  1       21 0.28792714E-02 0.10799191E+02</pdfrwt>
<totfact> 0.78500262E+08</totfact>
</mgrwt>
</event>
<event>
 4    1  0.4039863E+006  0.6301497E+01  0.7546771E-02  0.2377761E+00
         21   -1    0    0  503  502  0.00000000000E+00  0.00000000000E+00  0.26795012678E+00  0.26795012678E+00  0.00000000000E+00 0.  1.
         21   -1    0    0  501  503 -0.00000000000E+00 -0.00000000000E+00 -0.18430454836E+03  0.18430454836E+03  0.00000000000E+00 0.  1.
          5    1    1    2  501    0  0.18991730444E+01  0.37432615776E+01 -0.13286717191E+03  0.13301651866E+03  0.47000000000E+01 0.  1.
         -5    1    1    2    0  502 -0.18991730444E+01 -0.37432615776E+01 -0.51169426328E+02  0.51555979830E+02  0.47000000000E+01 0.  1.
<mgrwt>
<rscale>  2 0.63014971E+01</rscale>
<asrwt>0</asrwt>
<pdfrwt beam="1">  1       21 0.41223057E-04 0.63014971E+01</pdfrwt>
<pdfrwt beam="2">  1       21 0.28354573E-01 0.63014971E+01</pdfrwt>
<totfact> 0.16677488E+09</totfact>
</mgrwt>
</event>
<event>
 4    1  0.4039863E+006  0.5913103E+01  0.7546771E-02  0.2426872E+00
         21   -1    0    0  503  502  0.00000000000E+00  0.00000000000E+00  0.16327575129E-01  0.16327575129E-01  0.00000000000E+00 0. -1.
         21   -1    0    0  501  503 -0.00000000000E+00 -0.00000000000E+00 -0.22086004117E+04  0.22086004117E+04  0.00000000000E+00 0.  1.
          5    1    1    2  501    0 -0.21551901806E+01 -0.28687878343E+01 -0.12968386224E+04  0.12968521031E+04  0.47000000000E+01 0.  1.
         -5    1    1    2    0  502  0.21551901806E+01  0.28687878343E+01 -0.91174546180E+03  0.91176463624E+03  0.47000000000E+01 0. -1.
<mgrwt>
<rscale>  2 0.59131031E+01</rscale>
<asrwt>0</asrwt>
<pdfrwt beam="1">  1       21 0.25123993E-05 0.59131031E+01</pdfrwt>
<pdfrwt beam="2">  1       21 0.33972183E+00 0.59131031E+01</pdfrwt>
<totfact> 0.41794572E+08</totfact>
</mgrwt>
</event>
<event>
 4    1  0.4039863E+006  0.6128798E+01  0.7546771E-02  0.2398956E+00
         21   -1    0    0  501  502  0.00000000000E+00  0.00000000000E+00  0.95912368056E+01  0.95912368056E+01  0.00000000000E+00 0.  1.
         21   -1    0    0  502  503 -0.00000000000E+00 -0.00000000000E+00 -0.85678570901E+01  0.85678570901E+01  0.00000000000E+00 0.  1.
          5    1    1    2  501    0  0.22071662025E+01 -0.32558537384E+01  0.72017068766E+01  0.94565716911E+01  0.47000000000E+01 0.  1.
         -5    1    1    2    0  503 -0.22071662025E+01  0.32558537384E+01 -0.61783271612E+01  0.87025222046E+01  0.47000000000E+01 0.  1.
<mgrwt>
<rscale>  2 0.61287981E+01</rscale>
<asrwt>0</asrwt>
<pdfrwt beam="1">  1       21 0.14755749E-02 0.61287981E+01</pdfrwt>
<pdfrwt beam="2">  1       21 0.13181319E-02 0.61287981E+01</pdfrwt>
<totfact> 0.12515132E+09</totfact>
</mgrwt>
</event>
<event>
 4    1  0.4039863E+006  0.8833299E+01  0.7546771E-02  0.2148178E+00
         21   -1    0    0  503  502  0.00000000000E+00  0.00000000000E+00  0.13746168762E+03  0.13746168762E+03  0.00000000000E+00 0.  1.
         21   -1    0    0  501  503 -0.00000000000E+00 -0.00000000000E+00 -0.13431140406E+01  0.13431140406E+01  0.00000000000E+00 0.  1.
          5    1    1    2  501    0  0.62544982293E+01  0.41010263694E+01  0.15323562578E+02  0.17687247820E+02  0.47000000000E+01 0.  1.
         -5    1    1    2    0  502 -0.62544982293E+01 -0.41010263694E+01  0.12079501100E+03  0.12111755384E+03  0.47000000000E+01 0.  1.
<mgrwt>
<rscale>  2 0.88332987E+01</rscale>
<asrwt>0</asrwt>
<pdfrwt beam="1">  1       21 0.21147941E-01 0.88332987E+01</pdfrwt>
<pdfrwt beam="2">  1       21 0.20663304E-03 0.88332987E+01</pdfrwt>
<totfact> 0.37837291E+08</totfact>
</mgrwt>
</event>
<event>
 4    1  0.4039863E+006  0.6139084E+01  0.7546771E-02  0.2397666E+00
         21   -1    0    0  501  502  0.00000000000E+00  0.00000000000E+00  0.34253511040E+01  0.34253511040E+01  0.00000000000E+00 0.  1.
         21   -1    0    0  502  503 -0.00000000000E+00 -0.00000000000E+00 -0.11005551056E+02  0.11005551056E+02  0.00000000000E+00 0. -1.
          5    1    1    2  501    0 -0.21797692395E+01 -0.32934723467E+01 -0.39047776340E+01  0.72756884490E+01  0.47000000000E+01 0. -1.
         -5    1    1    2    0  503  0.21797692395E+01  0.32934723467E+01 -0.36754223180E+01  0.71552137111E+01  0.47000000000E+01 0.  1.
<mgrwt>
<rscale>  2 0.61390841E+01</rscale>
<asrwt>0</asrwt>
<pdfrwt beam="1">  1       21 0.52697709E-03 0.61390841E+01</pdfrwt>
<pdfrwt beam="2">  1       21 0.16931617E-02 0.61390841E+01</pdfrwt>
<totfact> 0.37411778E+09</totfact>
</mgrwt>
</event>
<event>
 4    1  0.4039863E+006  0.5238844E+01  0.7546771E-02  0.2526451E+00
         21   -1    0    0  501  502  0.00000000000E+00  0.00000000000E+00  0.56493450258E+00  0.56493450258E+00  0.00000000000E+00 0. -1.
         21   -1    0    0  502  503 -0.00000000000E+00 -0.00000000000E+00 -0.62263172060E+02  0.62263172060E+02  0.00000000000E+00 0. -1.
          5    1    1    2  501    0 -0.99199240969E+00  0.20907977358E+01 -0.16123464108E+02  0.16953217363E+02  0.47000000000E+01 0. -1.
         -5    1    1    2    0  503  0.99199240969E+00 -0.20907977358E+01 -0.45574773450E+02  0.45874889200E+02  0.47000000000E+01 0. -1.
<mgrwt>
<rscale>  2 0.52388438E+01</rscale>
<asrwt>0</asrwt>
<pdfrwt beam="1">  1       21 0.86913042E-04 0.52388438E+01</pdfrwt>
<pdfrwt beam="2">  1       21 0.95789449E-02 0.52388438E+01</pdfrwt>
<totfact> 0.29490391E+09</totfact>
</mgrwt>
</event>
<event>
 4    1  0.4039863E+006  0.5513655E+01  0.7546771E-02  0.2483375E+00
         21   -1    0    0  501  502  0.00000000000E+00  0.00000000000E+00  0.12881215630E+03  0.12881215630E+03  0.00000000000E+00 0. -1.
         21   -1    0    0  502  503 -0.00000000000E+00 -0.00000000000E+00 -0.39290635190E+00  0.39290635190E+00  0.00000000000E+00 0. -1.
          5    1    1    2  501    0 -0.28808607830E+01 -0.10502701541E+00  0.10503381063E+03  0.10517842823E+03  0.47000000000E+01 0. -1.
         -5    1    1    2    0  503  0.28808607830E+01  0.10502701541E+00  0.23385439312E+02  0.24026634416E+02  0.47000000000E+01 0. -1.
<mgrwt>
<rscale>  2 0.55136548E+01</rscale>
<asrwt>0</asrwt>
<pdfrwt beam="1">  1       21 0.19817221E-01 0.55136548E+01</pdfrwt>
<pdfrwt beam="2">  1       21 0.60447234E-04 0.55136548E+01</pdfrwt>
<totfact> 0.16168181E+09</totfact>
</mgrwt>
</event>
<event>
 4    1  0.4039863E+006  0.5229196E+01  0.7546771E-02  0.2528033E+00
         21   -1    0    0  503  502  0.00000000000E+00  0.00000000000E+00  0.78416333387E+01  0.78416333387E+01  0.00000000000E+00 0.  1.
         21   -1    0    0  501  503 -0.00000000000E+00 -0.00000000000E+00 -0.55524468164E+01  0.55524468164E+01  0.00000000000E+00 0.  1.
          5    1    1    2  501    0  0.18137731856E+01  0.14016821821E+01 -0.29398999125E+01  0.59989580432E+01  0.47000000000E+01 0.  1.
         -5    1    1    2    0  502 -0.18137731856E+01 -0.14016821821E+01  0.52290864348E+01  0.73951221119E+01  0.47000000000E+01 0.  1.
<mgrwt>
<rscale>  2 0.52291956E+01</rscale>
<asrwt>0</asrwt>
<pdfrwt beam="1">  1       21 0.12064051E-02 0.52291956E+01</pdfrwt>
<pdfrwt beam="2">  1       21 0.85422259E-03 0.52291956E+01</pdfrwt>
<totfact> 0.26585837E+09</totfact>
</mgrwt>
</event>
<event>
 4    1  0.4039863E+006  0.1099775E+02  0.7546771E-02  0.2022288E+00
         21   -1    0    0  501  502  0.00000000000E+00  0.00000000000E+00  0.12430304869E+03  0.12430304869E+03  0.00000000000E+00 0.  1.
         21   -1    0    0  502  503 -0.00000000000E+00 -0.00000000000E+00 -0.15887846733E+01  0.15887846733E+01  0.00000000000E+00 0.  1.
          5    1    1    2  501    0 -0.31156730048E+01  0.94420963908E+01  0.10054384897E+03  0.10114354239E+03  0.47000000000E+01 0.  1.
         -5    1    1    2    0  503  0.31156730048E+01 -0.94420963908E+01  0.22170415050E+02  0.24748290972E+02  0.47000000000E+01 0.  1.
<mgrwt>
<rscale>  2 0.10997754E+02</rscale>
<asrwt>0</asrwt>
<pdfrwt beam="1">  1       21 0.19123538E-01 0.10997754E+02</pdfrwt>
<pdfrwt beam="2">  1       21 0.24442851E-03 0.10997754E+02</pdfrwt>
<totfact> 0.39611127E+08</totfact>
</mgrwt>
</event>
<event>
 4    1  0.4039863E+006  0.1201625E+02  0.7546771E-02  0.1975646E+00
         21   -1    0    0  503  502  0.00000000000E+00  0.00000000000E+00  0.10901360683E+03  0.10901360683E+03  0.00000000000E+00 0. -1.
         21   -1    0    0  501  503 -0.00000000000E+00 -0.00000000000E+00 -0.15503629247E+01  0.15503629247E+01  0.00000000000E+00 0.  1.
          5    1    1    2  501    0 -0.10910349954E+02  0.18068021821E+01  0.32632032838E+02  0.34774125976E+02  0.47000000000E+01 0.  1.
         -5    1    1    2    0  502  0.10910349954E+02 -0.18068021821E+01  0.74831211071E+02  0.75789843782E+02  0.47000000000E+01 0. -1.
<mgrwt>
<rscale>  2 0.12016250E+02</rscale>
<asrwt>0</asrwt>
<pdfrwt beam="1">  1       21 0.16771318E-01 0.12016250E+02</pdfrwt>
<pdfrwt beam="2">  1       21 0.23851746E-03 0.12016250E+02</pdfrwt>
<totfact> 0.53260191E+08</totfact>
</mgrwt>
</event>
<event>
 4    1  0.4039863E+006  0.5356770E+01  0.7546771E-02  0.2507505E+00
         21   -1    0    0  501  502  0.00000000000E+00  0.00000000000E+00  0.15741594392E+04  0.15741594392E+04  0.00000000000E+00 0. -1.
         21   -1    0    0  502  503 -0.00000000000E+00 -0.00000000000E+00 -0.18774325879E-01  0.18774325879E-01  0.00000000000E+00 0. -1.
          5    1    1    2  501    0  0.10857147336E+01 -0.23294213753E+01  0.92124293939E+03  0.92125851331E+03  0.47000000000E+01 0. -1.
         -5    1    1    2    0  503 -0.10857147336E+01  0.23294213753E+01  0.65289772553E+03  0.65291970025E+03  0.47000000000E+01 0. -1.
<mgrwt>
<rscale>  2 0.53567696E+01</rscale>
<asrwt>0</asrwt>
<pdfrwt beam="1">  1       21 0.24207271E+00 0.53567696E+01</pdfrwt>
<pdfrwt beam="2">  1       21 0.28896186E-05 0.53567696E+01</pdfrwt>
<totfact> 0.78853284E+08</totfact>
</mgrwt>
</event>
<event>
 4    1  0.4039863E+006  0.5869749E+01  0.7546771E-02  0.2432691E+00
         21   -1    0    0  501  502  0.00000000000E+00  0.00000000000E+00  0.14246628313E+01  0.14246628313E+01  0.00000000000E+00 0.  1.
         21   -1    0    0  502  503 -0.00000000000E+00 -0.00000000000E+00 -0.24249288952E+02  0.24249288952E+02  0.00000000000E+00 0. -1.
          5    1    1    2  501    0  0.17264328120E+01 -0.30632299967E+01 -0.12078752833E+02  0.13429453387E+02  0.47000000000E+01 0.  1.
         -5    1    1    2    0  503 -0.17264328120E+01  0.30632299967E+01 -0.10745873288E+02  0.12244498396E+02  0.47000000000E+01 0.  1.
<mgrwt>
<rscale>  2 0.58697486E+01</rscale>
<asrwt>0</asrwt>
<pdfrwt beam="1">  1       21 0.21917892E-03 0.58697486E+01</pdfrwt>
<pdfrwt beam="2">  1       21 0.37306595E-02 0.58697486E+01</pdfrwt>
<totfact> 0.38372172E+09</totfact>
</mgrwt>
</event>
<event>
 4    1  0.4039863E+006  0.5913383E+01  0.7546771E-02  0.2426835E+00
         21   -1    0    0  503  502  0.00000000000E+00  0.00000000000E+00  0.14990441751E+01  0.14990441751E+01  0.00000000000E+00 0. -1.
         21   -1    0    0  501  503 -0.00000000000E+00 -0.00000000000E+00 -0.64147937141E+02  0.64147937141E+02  0.00000000000E+00 0. -1.
          5    1    1    2  501    0 -0.45096365368E+00 -0.35601583166E+01 -0.57508403900E+02  0.57811630444E+02  0.47000000000E+01 0. -1.
         -5    1    1    2    0  502  0.45096365368E+00  0.35601583166E+01 -0.51404890661E+01  0.78353508725E+01  0.47000000000E+01 0. -1.
<mgrwt>
<rscale>  2 0.59133827E+01</rscale>
<asrwt>0</asrwt>
<pdfrwt beam="1">  1       21 0.23062215E-03 0.59133827E+01</pdfrwt>
<pdfrwt beam="2">  1       21 0.98689146E-02 0.59133827E+01</pdfrwt>
<totfact> 0.84177226E+08</totfact>
</mgrwt>
</event>
<event>
 4    1  0.4039863E+006  0.8009289E+01  0.7546771E-02  0.2209861E+00
         21   -1    0    0  501  502  0.00000000000E+00  0.00000000000E+00  0.27030526577E+02  0.27030526577E+02  0.00000000000E+00 0.  1.
         21   -1    0    0  502  503 -0.00000000000E+00 -0.00000000000E+00 -0.30572833043E+01  0.30572833043E+01  0.00000000000E+00 0. -1.
          5    1    1    2  501    0 -0.27351118875E+01 -0.58802951825E+01  0.19102833101E+02  0.20713931084E+02  0.47000000000E+01 0.  1.
         -5    1    1    2    0  503  0.27351118875E+01  0.58802951825E+01  0.48704101725E+01  0.93738787980E+01  0.47000000000E+01 0. -1.
<mgrwt>
<rscale>  2 0.80092889E+01</rscale>
<asrwt>0</asrwt>
<pdfrwt beam="1">  1       21 0.41585424E-02 0.80092889E+01</pdfrwt>
<pdfrwt beam="2">  1       21 0.47035130E-03 0.80092889E+01</pdfrwt>
<totfact> 0.14504692E+09</totfact>
</mgrwt>
</event>
<event>
 4    1  0.4039863E+006  0.1143286E+02  0.7546771E-02  0.2001577E+00
         21   -1    0    0  501  502  0.00000000000E+00  0.00000000000E+00  0.44189593220E+00  0.44189593220E+00  0.00000000000E+00 0.  1.
         21   -1    0    0  502  503 -0.00000000000E+00 -0.00000000000E+00 -0.41353765984E+03  0.41353765984E+03  0.00000000000E+00 0. -1.
          5    1    1    2  501    0 -0.24550270165E+01 -0.10128823688E+02 -0.96099368740E+02  0.96777057711E+02  0.47000000000E+01 0.  1.
         -5    1    1    2    0  503  0.24550270165E+01  0.10128823688E+02 -0.31699639517E+03  0.31720249807E+03  0.47000000000E+01 0. -1.
<mgrwt>
<rscale>  2 0.11432857E+02</rscale>
<asrwt>0</asrwt>
<pdfrwt beam="1">  1       21 0.67983728E-04 0.11432857E+02</pdfrwt>
<pdfrwt beam="2">  1       21 0.63621424E-01 0.11432857E+02</pdfrwt>
<totfact> 0.27714592E+08</totfact>
</mgrwt>
</event>
<event>
 4    1  0.4039863E+006  0.5336417E+01  0.7546771E-02  0.2510724E+00
         21   -1    0    0  501  502  0.00000000000E+00  0.00000000000E+00  0.87875777040E-01  0.87875777040E-01  0.00000000000E+00 0.  1.
         21   -1    0    0  502  503 -0.00000000000E+00 -0.00000000000E+00 -0.32640909392E+03  0.32640909392E+03  0.00000000000E+00 0. -1.
          5    1    1    2  501    0  0.21459651792E+01 -0.13349839183E+01 -0.17699872013E+03  0.17707914693E+03  0.47000000000E+01 0.  1.
         -5    1    1    2    0  503 -0.21459651792E+01  0.13349839183E+01 -0.14932249801E+03  0.14941782277E+03  0.47000000000E+01 0.  1.
<mgrwt>
<rscale>  2 0.53364172E+01</rscale>
<asrwt>0</asrwt>
<pdfrwt beam="1">  1       21 0.13519056E-04 0.53364172E+01</pdfrwt>
<pdfrwt beam="2">  1       21 0.50217876E-01 0.53364172E+01</pdfrwt>
<totfact> 0.24015348E+09</totfact>
</mgrwt>
</event>
<event>
 4    1  0.4039863E+006  0.7555500E+01  0.7546771E-02  0.2248386E+00
         21   -1    0    0  503  502  0.00000000000E+00  0.00000000000E+00  0.88238485764E+03  0.88238485764E+03  0.00000000000E+00 0.  1.
         21   -1    0    0  501  503 -0.00000000000E+00 -0.00000000000E+00 -0.71767841143E-01  0.71767841143E-01  0.00000000000E+00 0.  1.
          5    1    1    2  501    0 -0.58496797653E+01  0.88137442049E+00  0.30263851277E+03  0.30273281121E+03  0.47000000000E+01 0.  1.
         -5    1    1    2    0  502  0.58496797653E+01 -0.88137442049E+00  0.57967457703E+03  0.57972381426E+03  0.47000000000E+01 0.  1.
<mgrwt>
<rscale>  2 0.75554996E+01</rscale>
<asrwt>0</asrwt>
<pdfrwt beam="1">  1       21 0.13574283E+00 0.75554996E+01</pdfrwt>
<pdfrwt beam="2">  1       21 0.11041913E-04 0.75554996E+01</pdfrwt>
<totfact> 0.56373557E+08</totfact>
</mgrwt>
</event>
<event>
 4    1  0.4039863E+006  0.4774434E+01  0.7546771E-02  0.2608795E+00
         21   -1    0    0  501  502  0.00000000000E+00  0.00000000000E+00  0.52252560404E+01  0.52252560404E+01  0.00000000000E+00 0.  1.
         21   -1    0    0  502  503 -0.00000000000E+00 -0.00000000000E+00 -0.54298616461E+01  0.54298616461E+01  0.00000000000E+00 0.  1.
          5    1    1    2  501    0  0.83796576057E+00 -0.55114914029E-01  0.22597408843E+01  0.52822015423E+01  0.47000000000E+01 0. -1.
         -5    1    1    2    0  503 -0.83796576057E+00  0.55114914029E-01 -0.24643464900E+01  0.53729161442E+01  0.47000000000E+01 0. -1.
<mgrwt>
<rscale>  2 0.47744344E+01</rscale>
<asrwt>0</asrwt>
<pdfrwt beam="1">  1       21 0.80388554E-03 0.47744344E+01</pdfrwt>
<pdfrwt beam="2">  1       21 0.83536333E-03 0.47744344E+01</pdfrwt>
<totfact> 0.43927484E+09</totfact>
</mgrwt>
</event>
<event>
 4    1  0.4039863E+006  0.5052746E+01  0.7546771E-02  0.2557881E+00
         21   -1    0    0  503  502  0.00000000000E+00  0.00000000000E+00  0.70577979179E+01  0.70577979179E+01  0.00000000000E+00 0.  1.
         21   -1    0    0  501  503 -0.00000000000E+00 -0.00000000000E+00 -0.56402262426E+01  0.56402262426E+01  0.00000000000E+00 0. -1.
          5    1    1    2  501    0  0.47117541239E+00 -0.17939444427E+01 -0.30935182157E+01  0.59245335583E+01  0.47000000000E+01 0. -1.
         -5    1    1    2    0  502 -0.47117541239E+00  0.17939444427E+01  0.45110898910E+01  0.67734906021E+01  0.47000000000E+01 0.  1.
<mgrwt>
<rscale>  2 0.50527461E+01</rscale>
<asrwt>0</asrwt>
<pdfrwt beam="1">  1       21 0.10858151E-02 0.50527461E+01</pdfrwt>
<pdfrwt beam="2">  1       21 0.86772712E-03 0.50527461E+01</pdfrwt>
<totfact> 0.29120836E+09</totfact>
</mgrwt>
</event>
<event>
 4    1  0.4039863E+006  0.5508058E+01  0.7546771E-02  0.2484216E+00
         21   -1    0    0  501  502  0.00000000000E+00  0.00000000000E+00  0.87891246372E+02  0.87891246372E+02  0.00000000000E+00 0. -1.
         21   -1    0    0  502  503 -0.00000000000E+00 -0.00000000000E+00 -0.98768093780E+00  0.98768093780E+00  0.00000000000E+00 0. -1.
          5    1    1    2  501    0  0.28633205681E+01 -0.22383153418E+00  0.79294076818E+02  0.79485151592E+02  0.47000000000E+01 0. -1.
         -5    1    1    2    0  503 -0.28633205681E+01  0.22383153418E+00  0.76094886164E+01  0.93937757177E+01  0.47000000000E+01 0. -1.
<mgrwt>
<rscale>  2 0.55080582E+01</rscale>
<asrwt>0</asrwt>
<pdfrwt beam="1">  1       21 0.13521724E-01 0.55080582E+01</pdfrwt>
<pdfrwt beam="2">  1       21 0.15195098E-03 0.55080582E+01</pdfrwt>
<totfact> 0.86086515E+08</totfact>
</mgrwt>
</event>
<event>
 4    1  0.4039863E+006  0.7444058E+01  0.7546771E-02  0.2258426E+00
         21   -1    0    0  503  502  0.00000000000E+00  0.00000000000E+00  0.31061288139E+01  0.31061288139E+01  0.00000000000E+00 0. -1.
         21   -1    0    0  501  503 -0.00000000000E+00 -0.00000000000E+00 -0.25808873051E+02  0.25808873051E+02  0.00000000000E+00 0.  1.
          5    1    1    2  501    0  0.49753372398E+01 -0.29274584529E+01 -0.19384809464E+02  0.20764990528E+02  0.47000000000E+01 0.  1.
         -5    1    1    2    0  502 -0.49753372398E+01  0.29274584529E+01 -0.33179347731E+01  0.81500113375E+01  0.47000000000E+01 0. -1.
<mgrwt>
<rscale>  2 0.74440576E+01</rscale>
<asrwt>0</asrwt>
<pdfrwt beam="1">  1       21 0.47786599E-03 0.74440576E+01</pdfrwt>
<pdfrwt beam="2">  1       21 0.39705957E-02 0.74440576E+01</pdfrwt>
<totfact> 0.14431496E+09</totfact>
</mgrwt>
</event>
<event>
 4    1  0.4039863E+006  0.4711254E+01  0.7546771E-02  0.2621076E+00
         21   -1    0    0  503  502  0.00000000000E+00  0.00000000000E+00  0.42659339230E+00  0.42659339230E+00  0.00000000000E+00 0.  1.
         21   -1    0    0  501  503 -0.00000000000E+00 -0.00000000000E+00 -0.86111835554E+02  0.86111835554E+02  0.00000000000E+00 0.  1.
          5    1    1    2  501    0  0.31607211619E+00  0.77554530173E-01 -0.15621553017E+02  0.16316520308E+02  0.47000000000E+01 0.  1.
         -5    1    1    2    0  502 -0.31607211619E+00 -0.77554530173E-01 -0.70063689144E+02  0.70221908638E+02  0.47000000000E+01 0.  1.
<mgrwt>
<rscale>  2 0.47112542E+01</rscale>
<asrwt>0</asrwt>
<pdfrwt beam="1">  1       21 0.65629734E-04 0.47112542E+01</pdfrwt>
<pdfrwt beam="2">  1       21 0.13247978E-01 0.47112542E+01</pdfrwt>
<totfact> 0.23516377E+09</totfact>
</mgrwt>
</event>
<event>
 4    1  0.4039863E+006  0.4994004E+01  0.7546771E-02  0.2568219E+00
         21   -1    0    0  501  502  0.00000000000E+00  0.00000000000E+00  0.69458757140E+03  0.69458757140E+03  0.00000000000E+00 0.  1.
         21   -1    0    0  502  503 -0.00000000000E+00 -0.00000000000E+00 -0.55566444383E-01  0.55566444383E-01  0.00000000000E+00 0. -1.
          5    1    1    2  501    0 -0.16864280999E+01 -0.77702178579E-01  0.55386046662E+03  0.55388298093E+03  0.47000000000E+01 0.  1.
         -5    1    1    2    0  503  0.16864280999E+01  0.77702178579E-01  0.14067153834E+03  0.14076015692E+03  0.47000000000E+01 0. -1.
<mgrwt>
<rscale>  2 0.49940041E+01</rscale>
<asrwt>0</asrwt>
<pdfrwt beam="1">  1       21 0.10685267E+00 0.49940041E+01</pdfrwt>
<pdfrwt beam="2">  1       21 0.85492400E-05 0.49940041E+01</pdfrwt>
<totfact> 0.99822392E+08</totfact>
</mgrwt>
</event>
<event>
 4    1  0.4039863E+006  0.9280336E+01  0.7546771E-02  0.2118417E+00
         21   -1    0    0  503  502  0.00000000000E+00  0.00000000000E+00  0.29299879572E+03  0.29299879572E+03  0.00000000000E+00 0.  1.
         21   -1    0    0  501  503 -0.00000000000E+00 -0.00000000000E+00 -0.44276866957E+00  0.44276866957E+00  0.00000000000E+00 0. -1.
          5    1    1    2  501    0 -0.75337757140E+01  0.26975646525E+01  0.61214429748E+02  0.61913900224E+02  0.47000000000E+01 0. -1.
         -5    1    1    2    0  502  0.75337757140E+01 -0.26975646525E+01  0.23134159730E+03  0.23152766417E+03  0.47000000000E+01 0.  1.
<mgrwt>
<rscale>  2 0.92803357E+01</rscale>
<asrwt>0</asrwt>
<pdfrwt beam="1">  1       21 0.45076583E-01 0.92803357E+01</pdfrwt>
<pdfrwt beam="2">  1       21 0.68118491E-04 0.92803357E+01</pdfrwt>
<totfact> 0.47977817E+08</totfact>
</mgrwt>
</event>
<event>
 4    1  0.4039863E+006  0.5423333E+01  0.7546771E-02  0.2497122E+00
         21   -1    0    0  503  502  0.00000000000E+00  0.00000000000E+00  0.36721680434E+03  0.36721680434E+03  0.00000000000E+00 0. -1.
         21   -1    0    0  501  503 -0.00000000000E+00 -0.00000000000E+00 -0.15090945343E+00  0.15090945343E+00  0.00000000000E+00 0. -1.
          5    1    1    2  501    0 -0.26893516232E+01 -0.29988244652E+00  0.57706736772E+02  0.57961021476E+02  0.47000000000E+01 0. -1.
         -5    1    1    2    0  502  0.26893516232E+01  0.29988244652E+00  0.30935915811E+03  0.30940669232E+03  0.47000000000E+01 0. -1.
<mgrwt>
<rscale>  2 0.54233331E+01</rscale>
<asrwt>0</asrwt>
<pdfrwt beam="1">  1       21 0.56494178E-01 0.54233331E+01</pdfrwt>
<pdfrwt beam="2">  1       21 0.23217133E-04 0.54233331E+01</pdfrwt>
<totfact> 0.96009019E+08</totfact>
</mgrwt>
</event>
<event>
 4    1  0.4039863E+006  0.4734626E+01  0.7546771E-02  0.2616500E+00
         21   -1    0    0  501  502  0.00000000000E+00  0.00000000000E+00  0.98372075197E+02  0.98372075197E+02  0.00000000000E+00 0. -1.
         21   -1    0    0  502  503 -0.00000000000E+00 -0.00000000000E+00 -0.24132160542E+00  0.24132160542E+00  0.00000000000E+00 0. -1.
          5    1    1    2  501    0 -0.53759833712E+00  0.19408943243E+00  0.60703693591E+02  0.60888053822E+02  0.47000000000E+01 0. -1.
         -5    1    1    2    0  503  0.53759833712E+00 -0.19408943243E+00  0.37427060001E+02  0.37725342980E+02  0.47000000000E+01 0. -1.
<mgrwt>
<rscale>  2 0.47346259E+01</rscale>
<asrwt>0</asrwt>
<pdfrwt beam="1">  1       21 0.15134133E-01 0.47346259E+01</pdfrwt>
<pdfrwt beam="2">  1       21 0.37126479E-04 0.47346259E+01</pdfrwt>
<totfact> 0.40859334E+09</totfact>
</mgrwt>
</event>
<event>
 4    1  0.4039863E+006  0.6176495E+01  0.7546771E-02  0.2393003E+00
         21   -1    0    0  503  502  0.00000000000E+00  0.00000000000E+00  0.13482736489E+02  0.13482736489E+02  0.00000000000E+00 0. -1.
         21   -1    0    0  501  503 -0.00000000000E+00 -0.00000000000E+00 -0.30092325007E+01  0.30092325007E+01  0.00000000000E+00 0.  1.
          5    1    1    2  501    0 -0.29158738325E+00  0.39967574154E+01  0.72521262868E+01  0.95258820442E+01  0.47000000000E+01 0.  1.
         -5    1    1    2    0  502  0.29158738325E+00 -0.39967574154E+01  0.32213777018E+01  0.69660869459E+01  0.47000000000E+01 0. -1.
<mgrwt>
<rscale>  2 0.61764952E+01</rscale>
<asrwt>0</asrwt>
<pdfrwt beam="1">  1       21 0.20742671E-02 0.61764952E+01</pdfrwt>
<pdfrwt beam="2">  1       21 0.46295885E-03 0.61764952E+01</pdfrwt>
<totfact> 0.33648654E+09</totfact>
</mgrwt>
</event>
<event>
 4    1  0.4039863E+006  0.7590154E+01  0.7546771E-02  0.2245313E+00
         21   -1    0    0  503  502  0.00000000000E+00  0.00000000000E+00  0.36069422029E+03  0.36069422029E+03  0.00000000000E+00 0.  1.
         21   -1    0    0  501  503 -0.00000000000E+00 -0.00000000000E+00 -0.16038579410E+01  0.16038579410E+01  0.00000000000E+00 0.  1.
          5    1    1    2  501    0 -0.15510529701E+01 -0.57545354324E+01  0.76525445165E+01  0.10778306033E+02  0.47000000000E+01 0.  1.
         -5    1    1    2    0  502  0.15510529701E+01  0.57545354324E+01  0.35143781783E+03  0.35151977219E+03  0.47000000000E+01 0.  1.
<mgrwt>
<rscale>  2 0.75901544E+01</rscale>
<asrwt>0</asrwt>
<pdfrwt beam="1">  1       21 0.55491354E-01 0.75901544E+01</pdfrwt>
<pdfrwt beam="2">  1       21 0.24674766E-03 0.75901544E+01</pdfrwt>
<totfact> 0.50402548E+07</totfact>
</mgrwt>
</event>
<event>
 4    1  0.4039863E+006  0.5506831E+01  0.7546771E-02  0.2484400E+00
         21   -1    0    0  501  502  0.00000000000E+00  0.00000000000E+00  0.21446177940E+01  0.21446177940E+01  0.00000000000E+00 0. -1.
         21   -1    0    0  502  503 -0.00000000000E+00 -0.00000000000E+00 -0.29991500353E+02  0.29991500353E+02  0.00000000000E+00 0. -1.
          5    1    1    2  501    0  0.21444860117E+01  0.19069275072E+01 -0.22419681919E+01  0.59457223401E+01  0.47000000000E+01 0. -1.
         -5    1    1    2    0  503 -0.21444860117E+01 -0.19069275072E+01 -0.25604914367E+02  0.26190395807E+02  0.47000000000E+01 0. -1.
<mgrwt>
<rscale>  2 0.55068315E+01</rscale>
<asrwt>0</asrwt>
<pdfrwt beam="1">  1       21 0.32994122E-03 0.55068315E+01</pdfrwt>
<pdfrwt beam="2">  1       21 0.46140766E-02 0.55068315E+01</pdfrwt>
<totfact> 0.15188922E+09</totfact>
</mgrwt>
</event>
<event>
 4    1  0.4039863E+006  0.5361754E+01  0.7546771E-02  0.2506720E+00
         21   -1    0    0  503  502  0.00000000000E+00  0.00000000000E+00  0.12844646359E+00  0.12844646359E+00  0.00000000000E+00 0. -1.
         21   -1    0    0  501  503 -0.00000000000E+00 -0.00000000000E+00 -0.25238442114E+03  0.25238442114E+03  0.00000000000E+00 0. -1.
          5    1    1    2  501    0 -0.21173613074E+00  0.25716861387E+01 -0.16860595243E+03  0.16869118411E+03  0.47000000000E+01 0. -1.
         -5    1    1    2    0  502  0.21173613074E+00 -0.25716861387E+01 -0.83650022239E+02  0.83821683486E+02  0.47000000000E+01 0. -1.
<mgrwt>
<rscale>  2 0.53617536E+01</rscale>
<asrwt>0</asrwt>
<pdfrwt beam="1">  1       21 0.19761027E-04 0.53617536E+01</pdfrwt>
<pdfrwt beam="2">  1       21 0.38828309E-01 0.53617536E+01</pdfrwt>
<totfact> 0.22881876E+09</totfact>
</mgrwt>
</event>
<event>
 4    1  0.4039863E+006  0.1336763E+02  0.7546771E-02  0.1922394E+00
         21   -1    0    0  501  502  0.00000000000E+00  0.00000000000E+00  0.65048266005E+01  0.65048266005E+01  0.00000000000E+00 0.  1.
         21   -1    0    0  502  503 -0.00000000000E+00 -0.00000000000E+00 -0.27918622212E+02  0.27918622212E+02  0.00000000000E+00 0. -1.
          5    1    1    2  501    0  0.10545578564E+02  0.67375343104E+01 -0.12886464546E+02  0.18567567540E+02  0.47000000000E+01 0. -1.
         -5    1    1    2    0  503 -0.10545578564E+02 -0.67375343104E+01 -0.85273310652E+01  0.15855881273E+02  0.47000000000E+01 0. -1.
<mgrwt>
<rscale>  2 0.13367632E+02</rscale>
<asrwt>0</asrwt>
<pdfrwt beam="1">  1       21 0.10007426E-02 0.13367632E+02</pdfrwt>
<pdfrwt beam="2">  1       21 0.42951726E-02 0.13367632E+02</pdfrwt>
<totfact> 0.62385696E+08</totfact>
</mgrwt>
</event>
<event>
 4    1  0.4039863E+006  0.6414516E+01  0.7546771E-02  0.2364406E+00
         21   -1    0    0  501  502  0.00000000000E+00  0.00000000000E+00  0.29905860106E+00  0.29905860106E+00  0.00000000000E+00 0. -1.
         21   -1    0    0  502  503 -0.00000000000E+00 -0.00000000000E+00 -0.15148514794E+03  0.15148514794E+03  0.00000000000E+00 0.  1.
          5    1    1    2  501    0  0.38484424337E+01 -0.20604639059E+01 -0.52604100583E+02  0.52993748865E+02  0.47000000000E+01 0. -1.
         -5    1    1    2    0  503 -0.38484424337E+01  0.20604639059E+01 -0.98581988757E+02  0.98790457677E+02  0.47000000000E+01 0.  1.
<mgrwt>
<rscale>  2 0.64145164E+01</rscale>
<asrwt>0</asrwt>
<pdfrwt beam="1">  1       21 0.46008974E-04 0.64145164E+01</pdfrwt>
<pdfrwt beam="2">  1       21 0.23305428E-01 0.64145164E+01</pdfrwt>
<totfact> 0.20216709E+09</totfact>
</mgrwt>
</event>
<event>
 4    1  0.4039863E+006  0.6400978E+01  0.7546771E-02  0.2365985E+00
         21   -1    0    0  503  502  0.00000000000E+00  0.00000000000E+00  0.25755147283E+01  0.25755147283E+01  0.00000000000E+00 0.  1.
         21   -1    0    0  501  503 -0.00000000000E+00 -0.00000000000E+00 -0.16313267180E+02  0.16313267180E+02  0.00000000000E+00 0. -1.
          5    1    1    2  501    0 -0.40839933199E+01  0.14844256375E+01 -0.53811685151E+01  0.83623857539E+01  0.47000000000E+01 0. -1.
         -5    1    1    2    0  502  0.40839933199E+01 -0.14844256375E+01 -0.83565839370E+01  0.10526396155E+02  0.47000000000E+01 0. -1.
<mgrwt>
<rscale>  2 0.64009781E+01</rscale>
<asrwt>0</asrwt>
<pdfrwt beam="1">  1       21 0.39623303E-03 0.64009781E+01</pdfrwt>
<pdfrwt beam="2">  1       21 0.25097334E-02 0.64009781E+01</pdfrwt>
<totfact> 0.32703729E+09</totfact>
</mgrwt>
</event>
<event>
 4    1  0.4039863E+006  0.6138343E+01  0.7546771E-02  0.2397759E+00
         21   -1    0    0  503  502  0.00000000000E+00  0.00000000000E+00  0.78316135483E+00  0.78316135483E+00  0.00000000000E+00 0. -1.
         21   -1    0    0  501  503 -0.00000000000E+00 -0.00000000000E+00 -0.49088797680E+02  0.49088797680E+02  0.00000000000E+00 0. -1.
          5    1    1    2  501    0  0.23450839018E+01 -0.31764502055E+01 -0.27670816577E+02  0.28343488572E+02  0.47000000000E+01 0. -1.
         -5    1    1    2    0  502 -0.23450839018E+01  0.31764502055E+01 -0.20634819749E+02  0.21528470463E+02  0.47000000000E+01 0. -1.
<mgrwt>
<rscale>  2 0.61383430E+01</rscale>
<asrwt>0</asrwt>
<pdfrwt beam="1">  1       21 0.12048635E-03 0.61383430E+01</pdfrwt>
<pdfrwt beam="2">  1       21 0.75521236E-02 0.61383430E+01</pdfrwt>
<totfact> 0.31470829E+09</totfact>
</mgrwt>
</event>
<event>
 4    1  0.4039863E+006  0.5629560E+01  0.7546771E-02  0.2466284E+00
         21   -1    0    0  501  502  0.00000000000E+00  0.00000000000E+00  0.26794843542E+00  0.26794843542E+00  0.00000000000E+00 0.  1.
         21   -1    0    0  502  503 -0.00000000000E+00 -0.00000000000E+00 -0.13077245486E+03  0.13077245486E+03  0.00000000000E+00 0. -1.
          5    1    1    2  501    0 -0.28784308105E+01  0.11474258881E+01 -0.44998512319E+02  0.45349289531E+02  0.47000000000E+01 0. -1.
         -5    1    1    2    0  503  0.28784308105E+01 -0.11474258881E+01 -0.85505994111E+02  0.85691113769E+02  0.47000000000E+01 0. -1.
<mgrwt>
<rscale>  2 0.56295604E+01</rscale>
<asrwt>0</asrwt>
<pdfrwt beam="1">  1       21 0.41222796E-04 0.56295604E+01</pdfrwt>
<pdfrwt beam="2">  1       21 0.20118859E-01 0.56295604E+01</pdfrwt>
<totfact> 0.26746087E+09</totfact>
</mgrwt>
</event>
<event>
 4    1  0.4039863E+006  0.5616006E+01  0.7546771E-02  0.2468252E+00
         21   -1    0    0  501  502  0.00000000000E+00  0.00000000000E+00  0.93180816366E+01  0.93180816366E+01  0.00000000000E+00 0.  1.
         21   -1    0    0  502  503 -0.00000000000E+00 -0.00000000000E+00 -0.30299778877E+02  0.30299778877E+02  0.00000000000E+00 0.  1.
          5    1    1    2  501    0 -0.76854637648E+00  0.29763842331E+01  0.81789050860E+01  0.99213917895E+01  0.47000000000E+01 0.  1.
         -5    1    1    2    0  503  0.76854637648E+00 -0.29763842331E+01 -0.29160602326E+02  0.29696468724E+02  0.47000000000E+01 0.  1.
<mgrwt>
<rscale>  2 0.56160063E+01</rscale>
<asrwt>0</asrwt>
<pdfrwt beam="1">  1       21 0.14335510E-02 0.56160063E+01</pdfrwt>
<pdfrwt beam="2">  1       21 0.46615044E-02 0.56160063E+01</pdfrwt>
<totfact> 0.19648362E+08</totfact>
</mgrwt>
</event>
<event>
 4    1  0.4039863E+006  0.4872344E+01  0.7546771E-02  0.2590311E+00
         21   -1    0    0  503  502  0.00000000000E+00  0.00000000000E+00  0.42028536398E+01  0.42028536398E+01  0.00000000000E+00 0. -1.
         21   -1    0    0  501  503 -0.00000000000E+00 -0.00000000000E+00 -0.61456511325E+01  0.61456511325E+01  0.00000000000E+00 0. -1.
          5    1    1    2  501    0  0.12818425862E+01 -0.81315054120E-01  0.50029293445E+00  0.48979613692E+01  0.47000000000E+01 0. -1.
         -5    1    1    2    0  502 -0.12818425862E+01  0.81315054120E-01 -0.24430904271E+01  0.54505434031E+01  0.47000000000E+01 0. -1.
<mgrwt>
<rscale>  2 0.48723436E+01</rscale>
<asrwt>0</asrwt>
<pdfrwt beam="1">  1       21 0.64659287E-03 0.48723436E+01</pdfrwt>
<pdfrwt beam="2">  1       21 0.94548479E-03 0.48723436E+01</pdfrwt>
<totfact> 0.51084819E+09</totfact>
</mgrwt>
</event>
<event>
 4    1  0.4039863E+006  0.2525344E+02  0.7546771E-02  0.1657388E+00
         21   -1    0    0  501  502  0.00000000000E+00  0.00000000000E+00  0.75949606396E+02  0.75949606396E+02  0.00000000000E+00 0. -1.
         21   -1    0    0  502  503 -0.00000000000E+00 -0.00000000000E+00 -0.19434818176E+02  0.19434818176E+02  0.00000000000E+00 0.  1.
          5    1    1    2  501    0 -0.19187985355E+02  0.15731092513E+02  0.64199387384E+02  0.68987661173E+02  0.47000000000E+01 0. -1.
         -5    1    1    2    0  503  0.19187985355E+02 -0.15731092513E+02 -0.76845991647E+01  0.26396763399E+02  0.47000000000E+01 0.  1.
<mgrwt>
<rscale>  2 0.25253436E+02</rscale>
<asrwt>0</asrwt>
<pdfrwt beam="1">  1       21 0.11684555E-01 0.25253436E+02</pdfrwt>
<pdfrwt beam="2">  1       21 0.29899721E-02 0.25253436E+02</pdfrwt>
<totfact> 0.29537980E+07</totfact>
</mgrwt>
</event>
<event>
 4    1  0.4039863E+006  0.5356179E+01  0.7546771E-02  0.2507598E+00
         21   -1    0    0  501  502  0.00000000000E+00  0.00000000000E+00  0.33996038220E+00  0.33996038220E+00  0.00000000000E+00 0. -1.
         21   -1    0    0  502  503 -0.00000000000E+00 -0.00000000000E+00 -0.17519828810E+03  0.17519828810E+03  0.00000000000E+00 0. -1.
          5    1    1    2  501    0  0.73576382734E+00  0.24611601352E+01 -0.24239827584E+02  0.24824542271E+02  0.47000000000E+01 0. -1.
         -5    1    1    2    0  503 -0.73576382734E+00 -0.24611601352E+01 -0.15061850013E+03  0.15071370621E+03  0.47000000000E+01 0. -1.
<mgrwt>
<rscale>  2 0.53561794E+01</rscale>
<asrwt>0</asrwt>
<pdfrwt beam="1">  1       21 0.52301732E-04 0.53561794E+01</pdfrwt>
<pdfrwt beam="2">  1       21 0.26953513E-01 0.53561794E+01</pdfrwt>
<totfact> 0.11602981E+09</totfact>
</mgrwt>
</event>
<event>
 4    1  0.4039863E+006  0.5259264E+01  0.7546771E-02  0.2523118E+00
         21   -1    0    0  503  502  0.00000000000E+00  0.00000000000E+00  0.19939803649E+02  0.19939803649E+02  0.00000000000E+00 0.  1.
         21   -1    0    0  501  503 -0.00000000000E+00 -0.00000000000E+00 -0.61349609386E+01  0.61349609386E+01  0.00000000000E+00 0. -1.
          5    1    1    2  501    0 -0.19290694682E+00  0.23521573098E+01 -0.45667062746E+01  0.69652468226E+01  0.47000000000E+01 0. -1.
         -5    1    1    2    0  502  0.19290694682E+00 -0.23521573098E+01  0.18371548985E+02  0.19109517765E+02  0.47000000000E+01 0.  1.
<mgrwt>
<rscale>  2 0.52592639E+01</rscale>
<asrwt>0</asrwt>
<pdfrwt beam="1">  1       21 0.30676621E-02 0.52592639E+01</pdfrwt>
<pdfrwt beam="2">  1       21 0.94384015E-03 0.52592639E+01</pdfrwt>
<totfact> 0.61683558E+08</totfact>
</mgrwt>
</event>
<event>
 4    1  0.4039863E+006  0.1909561E+02  0.7546771E-02  0.1763935E+00
         21   -1    0    0  501  502  0.00000000000E+00  0.00000000000E+00  0.20046778122E+04  0.20046778122E+04  0.00000000000E+00 0. -1.
         21   -1    0    0  502  503 -0.00000000000E+00 -0.00000000000E+00 -0.53072050435E+00  0.53072050435E+00  0.00000000000E+00 0.  1.
          5    1    1    2  501    0 -0.17623641109E+02 -0.56532935989E+01  0.18149045083E+04  0.18150049633E+04  0.47000000000E+01 0. -1.
         -5    1    1    2    0  503  0.17623641109E+02  0.56532935989E+01  0.18924258335E+03  0.19020356939E+03  0.47000000000E+01 0.  1.
<mgrwt>
<rscale>  2 0.19095613E+02</rscale>
<asrwt>0</asrwt>
<pdfrwt beam="1">  1       21 0.30840591E+00 0.19095613E+02</pdfrwt>
<pdfrwt beam="2">  1       21 0.81650913E-04 0.19095613E+02</pdfrwt>
<totfact> 0.58893972E+06</totfact>
</mgrwt>
</event>
<event>
 4    1  0.4039863E+006  0.5763624E+01  0.7546771E-02  0.2447242E+00
         21   -1    0    0  501  502  0.00000000000E+00  0.00000000000E+00  0.17448009154E+02  0.17448009154E+02  0.00000000000E+00 0.  1.
         21   -1    0    0  502  503 -0.00000000000E+00 -0.00000000000E+00 -0.26525336409E+01  0.26525336409E+01  0.00000000000E+00 0.  1.
          5    1    1    2  501    0 -0.21571789388E+01 -0.25447869968E+01  0.12736989435E+02  0.13980352703E+02  0.47000000000E+01 0.  1.
         -5    1    1    2    0  503  0.21571789388E+01  0.25447869968E+01  0.20584860788E+01  0.61201900926E+01  0.47000000000E+01 0.  1.
<mgrwt>
<rscale>  2 0.57636240E+01</rscale>
<asrwt>0</asrwt>
<pdfrwt beam="1">  1       21 0.26843090E-02 0.57636240E+01</pdfrwt>
<pdfrwt beam="2">  1       21 0.40808211E-03 0.57636240E+01</pdfrwt>
<totfact> 0.25980752E+09</totfact>
</mgrwt>
</event>
<event>
 4    1  0.4039863E+006  0.4869011E+01  0.7546771E-02  0.2590929E+00
         21   -1    0    0  503  502  0.00000000000E+00  0.00000000000E+00  0.21503274853E+01  0.21503274853E+01  0.00000000000E+00 0.  1.
         21   -1    0    0  501  503 -0.00000000000E+00 -0.00000000000E+00 -0.16152760707E+02  0.16152760707E+02  0.00000000000E+00 0.  1.
          5    1    1    2  501    0 -0.36000867280E+00 -0.12196986904E+01 -0.12157498269E+02  0.13096260356E+02  0.47000000000E+01 0.  1.
         -5    1    1    2    0  502  0.36000867280E+00  0.12196986904E+01 -0.18449349525E+01  0.52068278365E+01  0.47000000000E+01 0.  1.
<mgrwt>
<rscale>  2 0.48690113E+01</rscale>
<asrwt>0</asrwt>
<pdfrwt beam="1">  1       21 0.33081962E-03 0.48690113E+01</pdfrwt>
<pdfrwt beam="2">  1       21 0.24850401E-02 0.48690113E+01</pdfrwt>
<totfact> 0.32819461E+09</totfact>
</mgrwt>
</event>
<event>
 4    1  0.4039863E+006  0.1276497E+02  0.7546771E-02  0.1945075E+00
         21   -1    0    0  503  502  0.00000000000E+00  0.00000000000E+00  0.62212574118E+02  0.62212574118E+02  0.00000000000E+00 0.  1.
         21   -1    0    0  501  503 -0.00000000000E+00 -0.00000000000E+00 -0.16847567825E+02  0.16847567825E+02  0.00000000000E+00 0. -1.
          5    1    1    2  501    0  0.91859622197E+01  0.75148168035E+01 -0.13645139460E+02  0.18685133245E+02  0.47000000000E+01 0. -1.
         -5    1    1    2    0  502 -0.91859622197E+01 -0.75148168035E+01  0.59010145754E+02  0.60375008698E+02  0.47000000000E+01 0.  1.
<mgrwt>
<rscale>  2 0.12764967E+02</rscale>
<asrwt>0</asrwt>
<pdfrwt beam="1">  1       21 0.95711651E-02 0.12764967E+02</pdfrwt>
<pdfrwt beam="2">  1       21 0.25919335E-02 0.12764967E+02</pdfrwt>
<totfact> 0.42072473E+07</totfact>
</mgrwt>
</event>
<event>
 4    1  0.4039863E+006  0.5507810E+01  0.7546771E-02  0.2484253E+00
         21   -1    0    0  503  502  0.00000000000E+00  0.00000000000E+00  0.10152267229E+04  0.10152267229E+04  0.00000000000E+00 0.  1.
         21   -1    0    0  501  503 -0.00000000000E+00 -0.00000000000E+00 -0.29881026014E-01  0.29881026014E-01  0.00000000000E+00 0.  1.
          5    1    1    2  501    0  0.53794395131E+00  0.28207432450E+01  0.50818109430E+03  0.50821094103E+03  0.47000000000E+01 0. -1.
         -5    1    1    2    0  502 -0.53794395131E+00 -0.28207432450E+01  0.50701574760E+03  0.50704566292E+03  0.47000000000E+01 0. -1.
<mgrwt>
<rscale>  2 0.55078105E+01</rscale>
<asrwt>0</asrwt>
<pdfrwt beam="1">  1       21 0.15616111E+00 0.55078105E+01</pdfrwt>
<pdfrwt beam="2">  1       21 0.45978940E-05 0.55078105E+01</pdfrwt>
<totfact> 0.11163872E+09</totfact>
</mgrwt>
</event>
<event>
 4    1  0.4039863E+006  0.6808712E+01  0.7546771E-02  0.2320721E+00
         21   -1    0    0  503  502  0.00000000000E+00  0.00000000000E+00  0.13142656066E+01  0.13142656066E+01  0.00000000000E+00 0.  1.
         21   -1    0    0  501  503 -0.00000000000E+00 -0.00000000000E+00 -0.35410418854E+02  0.35410418854E+02  0.00000000000E+00 0.  1.
          5    1    1    2  501    0  0.48669115267E+01 -0.76271220307E+00 -0.18190490648E+02  0.19422989155E+02  0.47000000000E+01 0.  1.
         -5    1    1    2    0  502 -0.48669115267E+01  0.76271220307E+00 -0.15905662600E+02  0.17301695306E+02  0.47000000000E+01 0.  1.
<mgrwt>
<rscale>  2 0.68087119E+01</rscale>
<asrwt>0</asrwt>
<pdfrwt beam="1">  1       21 0.20219473E-03 0.68087119E+01</pdfrwt>
<pdfrwt beam="2">  1       21 0.54477561E-02 0.68087119E+01</pdfrwt>
<totfact> 0.27737473E+09</totfact>
</mgrwt>
</event>
<event>
 4    1  0.4039863E+006  0.6941060E+01  0.7546771E-02  0.2306977E+00
         21   -1    0    0  503  502  0.00000000000E+00  0.00000000000E+00  0.15008682140E+01  0.15008682140E+01  0.00000000000E+00 0.  1.
         21   -1    0    0  501  503 -0.00000000000E+00 -0.00000000000E+00 -0.66780080143E+02  0.66780080143E+02  0.00000000000E+00 0.  1.
          5    1    1    2  501    0 -0.42417537835E+01  0.28453197098E+01 -0.57242389793E+02  0.57661681459E+02  0.47000000000E+01 0.  1.
         -5    1    1    2    0  502  0.42417537835E+01 -0.28453197098E+01 -0.80368221355E+01  0.10619266898E+02  0.47000000000E+01 0.  1.
<mgrwt>
<rscale>  2 0.69410604E+01</rscale>
<asrwt>0</asrwt>
<pdfrwt beam="1">  1       21 0.23090281E-03 0.69410604E+01</pdfrwt>
<pdfrwt beam="2">  1       21 0.10273858E-01 0.69410604E+01</pdfrwt>
<totfact> 0.89054737E+08</totfact>
</mgrwt>
</event>
<event>
 4    1  0.4039863E+006  0.5847885E+01  0.7546771E-02  0.2435652E+00
         21   -1    0    0  501  502  0.00000000000E+00  0.00000000000E+00  0.24386556918E+01  0.24386556918E+01  0.00000000000E+00 0. -1.
         21   -1    0    0  502  503 -0.00000000000E+00 -0.00000000000E+00 -0.14841856136E+02  0.14841856136E+02  0.00000000000E+00 0.  1.
          5    1    1    2  501    0 -0.23737679468E+01  0.25442051111E+01 -0.41723596407E+01  0.71837552077E+01  0.47000000000E+01 0. -1.
         -5    1    1    2    0  503  0.23737679468E+01 -0.25442051111E+01 -0.82308408033E+01  0.10096756620E+02  0.47000000000E+01 0.  1.
<mgrwt>
<rscale>  2 0.58478846E+01</rscale>
<asrwt>0</asrwt>
<pdfrwt beam="1">  1       21 0.37517780E-03 0.58478846E+01</pdfrwt>
<pdfrwt beam="2">  1       21 0.22833625E-02 0.58478846E+01</pdfrwt>
<totfact> 0.37324490E+09</totfact>
</mgrwt>
</event>
<event>
 4    1  0.4039863E+006  0.7154989E+01  0.7546771E-02  0.2285647E+00
         21   -1    0    0  503  502  0.00000000000E+00  0.00000000000E+00  0.42200386936E+00  0.42200386936E+00  0.00000000000E+00 0. -1.
         21   -1    0    0  501  503 -0.00000000000E+00 -0.00000000000E+00 -0.15391633107E+03  0.15391633107E+03  0.00000000000E+00 0. -1.
          5    1    1    2  501    0  0.53793402653E+01  0.40811727895E+00 -0.41229580643E+02  0.41845814383E+02  0.47000000000E+01 0. -1.
         -5    1    1    2    0  502 -0.53793402653E+01 -0.40811727895E+00 -0.11226474656E+03  0.11249252056E+03  0.47000000000E+01 0. -1.
<mgrwt>
<rscale>  2 0.71549886E+01</rscale>
<asrwt>0</asrwt>
<pdfrwt beam="1">  1       21 0.64923695E-04 0.71549886E+01</pdfrwt>
<pdfrwt beam="2">  1       21 0.23679427E-01 0.71549886E+01</pdfrwt>
<totfact> 0.13416100E+09</totfact>
</mgrwt>
</event>
<event>
 4    1  0.4039863E+006  0.7577256E+01  0.7546771E-02  0.2246454E+00
         21   -1    0    0  501  502  0.00000000000E+00  0.00000000000E+00  0.71193950444E+00  0.71193950444E+00  0.00000000000E+00 0. -1.
         21   -1    0    0  502  503 -0.00000000000E+00 -0.00000000000E+00 -0.13605351641E+03  0.13605351641E+03  0.00000000000E+00 0. -1.
          5    1    1    2  501    0  0.33274745139E+01 -0.49247048394E+01 -0.11131004653E+03  0.11156765330E+03  0.47000000000E+01 0. -1.
         -5    1    1    2    0  503 -0.33274745139E+01  0.49247048394E+01 -0.24031530375E+02  0.25197802614E+02  0.47000000000E+01 0. -1.
<mgrwt>
<rscale>  2 0.75772557E+01</rscale>
<asrwt>0</asrwt>
<pdfrwt beam="1">  1       21 0.10952912E-03 0.75772557E+01</pdfrwt>
<pdfrwt beam="2">  1       21 0.20931316E-01 0.75772557E+01</pdfrwt>
<totfact> 0.84149213E+08</totfact>
</mgrwt>
</event>
<event>
 4    1  0.4039863E+006  0.1147293E+02  0.7546771E-02  0.1999731E+00
         21   -1    0    0  501  502  0.00000000000E+00  0.00000000000E+00  0.76869503631E+02  0.76869503631E+02  0.00000000000E+00 0.  1.
         21   -1    0    0  502  503 -0.00000000000E+00 -0.00000000000E+00 -0.19501533840E+01  0.19501533840E+01  0.00000000000E+00 0. -1.
          5    1    1    2  501    0  0.15849021835E+01  0.10345348311E+02  0.23697995955E+02  0.26329131374E+02  0.47000000000E+01 0.  1.
         -5    1    1    2    0  503 -0.15849021835E+01 -0.10345348311E+02  0.51221354292E+02  0.52490525641E+02  0.47000000000E+01 0.  1.
<mgrwt>
<rscale>  2 0.11472931E+02</rscale>
<asrwt>0</asrwt>
<pdfrwt beam="1">  1       21 0.11826075E-01 0.11472931E+02</pdfrwt>
<pdfrwt beam="2">  1       21 0.30002366E-03 0.11472931E+02</pdfrwt>
<totfact> 0.66751406E+08</totfact>
</mgrwt>
</event>
<event>
 4    1  0.4039863E+006  0.5612977E+01  0.7546771E-02  0.2468693E+00
         21   -1    0    0  503  502  0.00000000000E+00  0.00000000000E+00  0.62704935433E+00  0.62704935433E+00  0.00000000000E+00 0.  1.
         21   -1    0    0  501  503 -0.00000000000E+00 -0.00000000000E+00 -0.57835212060E+02  0.57835212060E+02  0.00000000000E+00 0.  1.
          5    1    1    2  501    0  0.10832312668E+01 -0.28709103521E+01 -0.39194248128E+02  0.39594123333E+02  0.47000000000E+01 0.  1.
         -5    1    1    2    0  502 -0.10832312668E+01  0.28709103521E+01 -0.18013914578E+02  0.18868138082E+02  0.47000000000E+01 0.  1.
<mgrwt>
<rscale>  2 0.56129775E+01</rscale>
<asrwt>0</asrwt>
<pdfrwt beam="1">  1       21 0.96469111E-04 0.56129775E+01</pdfrwt>
<pdfrwt beam="2">  1       21 0.88977268E-02 0.56129775E+01</pdfrwt>
<totfact> 0.30598295E+09</totfact>
</mgrwt>
</event>
<event>
 4    1  0.4039863E+006  0.8564921E+01  0.7546771E-02  0.2167223E+00
         21   -1    0    0  503  502  0.00000000000E+00  0.00000000000E+00  0.81706723641E-01  0.81706723641E-01  0.00000000000E+00 0.  1.
         21   -1    0    0  501  503 -0.00000000000E+00 -0.00000000000E+00 -0.94701947762E+03  0.94701947762E+03  0.00000000000E+00 0. -1.
          5    1    1    2  501    0  0.13412250654E+01  0.70334188260E+01 -0.58140597802E+03  0.58146906121E+03  0.47000000000E+01 0. -1.
         -5    1    1    2    0  502 -0.13412250654E+01 -0.70334188260E+01 -0.36553179287E+03  0.36563212313E+03  0.47000000000E+01 0.  1.
<mgrwt>
<rscale>  2 0.85649206E+01</rscale>
<asrwt>0</asrwt>
<pdfrwt beam="1">  1       21 0.12570986E-04 0.85649206E+01</pdfrwt>
<pdfrwt beam="2">  1       21 0.14568695E+00 0.85649206E+01</pdfrwt>
<totfact> 0.43291079E+08</totfact>
</mgrwt>
</event>
<event>
 4    1  0.4039863E+006  0.6522942E+01  0.7546771E-02  0.2351956E+00
         21   -1    0    0  503  502  0.00000000000E+00  0.00000000000E+00  0.10465289090E+04  0.10465289090E+04  0.00000000000E+00 0. -1.
         21   -1    0    0  501  503 -0.00000000000E+00 -0.00000000000E+00 -0.46019163052E-01  0.46019163052E-01  0.00000000000E+00 0. -1.
          5    1    1    2  501    0  0.43105923102E+01  0.13702454058E+01  0.34461780203E+03  0.34467952979E+03  0.47000000000E+01 0. -1.
         -5    1    1    2    0  502 -0.43105923102E+01 -0.13702454058E+01  0.70186508785E+03  0.70189539842E+03  0.47000000000E+01 0. -1.
<mgrwt>
<rscale>  2 0.65229425E+01</rscale>
<asrwt>0</asrwt>
<pdfrwt beam="1">  1       21 0.16098539E+00 0.65229425E+01</pdfrwt>
<pdfrwt beam="2">  1       21 0.70807094E-05 0.65229425E+01</pdfrwt>
<totfact> 0.64956039E+08</totfact>
</mgrwt>
</event>
<event>
 4    1  0.4039863E+006  0.5512775E+01  0.7546771E-02  0.2483507E+00
         21   -1    0    0  503  502  0.00000000000E+00  0.00000000000E+00  0.62834285041E+01  0.62834285041E+01  0.00000000000E+00 0. -1.
         21   -1    0    0  501  503 -0.00000000000E+00 -0.00000000000E+00 -0.49789929109E+01  0.49789929109E+01  0.00000000000E+00 0.  1.
          5    1    1    2  501    0 -0.14624819549E+00  0.28773779931E+01 -0.29994569879E+00  0.55209292761E+01  0.47000000000E+01 0. -1.
         -5    1    1    2    0  502  0.14624819549E+00 -0.28773779931E+01  0.16043812920E+01  0.57414921388E+01  0.47000000000E+01 0. -1.
<mgrwt>
<rscale>  2 0.55127754E+01</rscale>
<asrwt>0</asrwt>
<pdfrwt beam="1">  1       21 0.96668131E-03 0.55127754E+01</pdfrwt>
<pdfrwt beam="2">  1       21 0.76599891E-03 0.55127754E+01</pdfrwt>
<totfact> 0.44495218E+09</totfact>
</mgrwt>
</event>
<event>
 4    1  0.4039863E+006  0.4955608E+01  0.7546771E-02  0.2575090E+00
         21   -1    0    0  501  502  0.00000000000E+00  0.00000000000E+00  0.19180999273E+01  0.19180999273E+01  0.00000000000E+00 0. -1.
         21   -1    0    0  502  503 -0.00000000000E+00 -0.00000000000E+00 -0.12825593781E+02  0.12825593781E+02  0.00000000000E+00 0. -1.
          5    1    1    2  501    0  0.10907444018E+01  0.11306307106E+01 -0.57609491873E+01  0.75991173627E+01  0.47000000000E+01 0. -1.
         -5    1    1    2    0  503 -0.10907444018E+01 -0.11306307106E+01 -0.51465446662E+01  0.71445763454E+01  0.47000000000E+01 0. -1.
<mgrwt>
<rscale>  2 0.49556078E+01</rscale>
<asrwt>0</asrwt>
<pdfrwt beam="1">  1       21 0.29509229E-03 0.49556078E+01</pdfrwt>
<pdfrwt beam="2">  1       21 0.19731683E-02 0.49556078E+01</pdfrwt>
<totfact> 0.54186533E+09</totfact>
</mgrwt>
</event>
<event>
 4    1  0.4039863E+006  0.5876600E+01  0.7546771E-02  0.2431766E+00
         21   -1    0    0  501  502  0.00000000000E+00  0.00000000000E+00  0.17094584879E+02  0.17094584879E+02  0.00000000000E+00 0. -1.
         21   -1    0    0  502  503 -0.00000000000E+00 -0.00000000000E+00 -0.62779824036E+01  0.62779824036E+01  0.00000000000E+00 0. -1.
          5    1    1    2  501    0  0.22116146962E+01 -0.27483067795E+01  0.15032359833E+02  0.16140206686E+02  0.47000000000E+01 0. -1.
         -5    1    1    2    0  503 -0.22116146962E+01  0.27483067795E+01 -0.42157573568E+01  0.72323605973E+01  0.47000000000E+01 0. -1.
<mgrwt>
<rscale>  2 0.58766002E+01</rscale>
<asrwt>0</asrwt>
<pdfrwt beam="1">  1       21 0.26299361E-02 0.58766002E+01</pdfrwt>
<pdfrwt beam="2">  1       21 0.96584346E-03 0.58766002E+01</pdfrwt>
<totfact> 0.81887522E+08</totfact>
</mgrwt>
</event>
<event>
 4    1  0.4039863E+006  0.8610670E+01  0.7546771E-02  0.2163909E+00
         21   -1    0    0  503  502  0.00000000000E+00  0.00000000000E+00  0.25608593709E+03  0.25608593709E+03  0.00000000000E+00 0.  1.
         21   -1    0    0  501  503 -0.00000000000E+00 -0.00000000000E+00 -0.40574327619E+00  0.40574327619E+00  0.00000000000E+00 0. -1.
          5    1    1    2  501    0  0.64739196982E+00 -0.71857162248E+01  0.59204050400E+02  0.59826943912E+02  0.47000000000E+01 0. -1.
         -5    1    1    2    0  502 -0.64739196982E+00  0.71857162248E+01  0.19647614342E+03  0.19666473646E+03  0.47000000000E+01 0.  1.
<mgrwt>
<rscale>  2 0.86106698E+01</rscale>
<asrwt>0</asrwt>
<pdfrwt beam="1">  1       21 0.39397707E-01 0.86106698E+01</pdfrwt>
<pdfrwt beam="2">  1       21 0.62422247E-04 0.86106698E+01</pdfrwt>
<totfact> 0.66180447E+08</totfact>
</mgrwt>
</event>
<event>
 4    1  0.4039863E+006  0.6535725E+01  0.7546771E-02  0.2350511E+00
         21   -1    0    0  501  502  0.00000000000E+00  0.00000000000E+00  0.48969295318E+03  0.48969295318E+03  0.00000000000E+00 0.  1.
         21   -1    0    0  502  503 -0.00000000000E+00 -0.00000000000E+00 -0.60858639350E+00  0.60858639350E+00  0.00000000000E+00 0.  1.
          5    1    1    2  501    0  0.43133220279E+01  0.14216029636E+01  0.47144488997E+03  0.47149019076E+03  0.47000000000E+01 0.  1.
         -5    1    1    2    0  503 -0.43133220279E+01 -0.14216029636E+01  0.17639476813E+02  0.18811348813E+02  0.47000000000E+01 0.  1.
<mgrwt>
<rscale>  2 0.65357250E+01</rscale>
<asrwt>0</asrwt>
<pdfrwt beam="1">  1       21 0.75337063E-01 0.65357250E+01</pdfrwt>
<pdfrwt beam="2">  1       21 0.93629067E-04 0.65357250E+01</pdfrwt>
<totfact> 0.98174247E+07</totfact>
</mgrwt>
</event>
<event>
 4    1  0.4039863E+006  0.7258780E+01  0.7546771E-02  0.2275669E+00
         21   -1    0    0  503  502  0.00000000000E+00  0.00000000000E+00  0.22587677379E+00  0.22587677379E+00  0.00000000000E+00 0. -1.
         21   -1    0    0  501  503 -0.00000000000E+00 -0.00000000000E+00 -0.24347091542E+03  0.24347091542E+03  0.00000000000E+00 0.  1.
          5    1    1    2  501    0  0.29475283631E+01  0.46810222030E+01 -0.14656570443E+03  0.14674534272E+03  0.47000000000E+01 0.  1.
         -5    1    1    2    0  502 -0.29475283631E+01 -0.46810222030E+01 -0.96679334211E+02  0.96951449478E+02  0.47000000000E+01 0. -1.
<mgrwt>
<rscale>  2 0.72587804E+01</rscale>
<asrwt>0</asrwt>
<pdfrwt beam="1">  1       21 0.34749958E-04 0.72587804E+01</pdfrwt>
<pdfrwt beam="2">  1       21 0.37457404E-01 0.72587804E+01</pdfrwt>
<totfact> 0.14392731E+09</totfact>
</mgrwt>
</event>
<event>
 4    1  0.4039863E+006  0.7318729E+01  0.7546771E-02  0.2270012E+00
         21   -1    0    0  503  502  0.00000000000E+00  0.00000000000E+00  0.31423378573E+01  0.31423378573E+01  0.00000000000E+00 0.  1.
         21   -1    0    0  501  503 -0.00000000000E+00 -0.00000000000E+00 -0.29160585509E+02  0.29160585509E+02  0.00000000000E+00 0.  1.
          5    1    1    2  501    0  0.56047391800E+01 -0.24634496550E+00 -0.23419606513E+02  0.24536539208E+02  0.47000000000E+01 0.  1.
         -5    1    1    2    0  502 -0.56047391800E+01  0.24634496550E+00 -0.25986411391E+01  0.77663841579E+01  0.47000000000E+01 0.  1.
<mgrwt>
<rscale>  2 0.73187285E+01</rscale>
<asrwt>0</asrwt>
<pdfrwt beam="1">  1       21 0.48343661E-03 0.73187285E+01</pdfrwt>
<pdfrwt beam="2">  1       21 0.44862438E-02 0.73187285E+01</pdfrwt>
<totfact> 0.11688633E+09</totfact>
</mgrwt>
</event>
<event>
 4    1  0.4039863E+006  0.5202154E+01  0.7546771E-02  0.2532495E+00
         21   -1    0    0  503  502  0.00000000000E+00  0.00000000000E+00  0.85781975120E+02  0.85781975120E+02  0.00000000000E+00 0. -1.
         21   -1    0    0  501  503 -0.00000000000E+00 -0.00000000000E+00 -0.75859691902E+00  0.75859691902E+00  0.00000000000E+00 0.  1.
          5    1    1    2  501    0 -0.63132395130E+00  0.21386521783E+01  0.94409474627E+01  0.10779327069E+02  0.47000000000E+01 0.  1.
         -5    1    1    2    0  502  0.63132395130E+00 -0.21386521783E+01  0.75582430739E+02  0.75761244970E+02  0.47000000000E+01 0. -1.
<mgrwt>
<rscale>  2 0.52021537E+01</rscale>
<asrwt>0</asrwt>
<pdfrwt beam="1">  1       21 0.13197219E-01 0.52021537E+01</pdfrwt>
<pdfrwt beam="2">  1       21 0.11670729E-03 0.52021537E+01</pdfrwt>
<totfact> 0.12115909E+09</totfact>
</mgrwt>
</event>
<event>
 4    1  0.4039863E+006  0.6960700E+01  0.7546771E-02  0.2304974E+00
         21   -1    0    0  501  502  0.00000000000E+00  0.00000000000E+00  0.85228980321E+00  0.85228980321E+00  0.00000000000E+00 0. -1.
         21   -1    0    0  502  503 -0.00000000000E+00 -0.00000000000E+00 -0.21892638702E+03  0.21892638702E+03  0.00000000000E+00 0.  1.
          5    1    1    2  501    0 -0.24861785327E+01 -0.44922443708E+01 -0.14485538101E+02  0.16071159176E+02  0.47000000000E+01 0. -1.
         -5    1    1    2    0  503  0.24861785327E+01  0.44922443708E+01 -0.20358855912E+03  0.20370751765E+03  0.47000000000E+01 0.  1.
<mgrwt>
<rscale>  2 0.69606999E+01</rscale>
<asrwt>0</asrwt>
<pdfrwt beam="1">  1       21 0.13112156E-03 0.69606999E+01</pdfrwt>
<pdfrwt beam="2">  1       21 0.33680970E-01 0.69606999E+01</pdfrwt>
<totfact> 0.27996894E+08</totfact>
</mgrwt>
</event>
<event>
 4    1  0.4039863E+006  0.7879093E+01  0.7546771E-02  0.2220547E+00
         21   -1    0    0  503  502  0.00000000000E+00  0.00000000000E+00  0.14710438930E+02  0.14710438930E+02  0.00000000000E+00 0. -1.
         21   -1    0    0  501  503 -0.00000000000E+00 -0.00000000000E+00 -0.27506372054E+02  0.27506372054E+02  0.00000000000E+00 0. -1.
          5    1    1    2  501    0 -0.22434622293E+00  0.63197923036E+01 -0.25819717748E+02  0.26995146426E+02  0.47000000000E+01 0. -1.
         -5    1    1    2    0  502  0.22434622293E+00 -0.63197923036E+01  0.13023784624E+02  0.15221664558E+02  0.47000000000E+01 0. -1.
<mgrwt>
<rscale>  2 0.78790930E+01</rscale>
<asrwt>0</asrwt>
<pdfrwt beam="1">  1       21 0.22631444E-02 0.78790930E+01</pdfrwt>
<pdfrwt beam="2">  1       21 0.42317496E-02 0.78790930E+01</pdfrwt>
<totfact> 0.14653830E+08</totfact>
</mgrwt>
</event>
<event>
 4    1  0.4039863E+006  0.5576851E+01  0.7546771E-02  0.2473982E+00
         21   -1    0    0  501  502  0.00000000000E+00  0.00000000000E+00  0.26747394116E+03  0.26747394116E+03  0.00000000000E+00 0.  1.
         21   -1    0    0  502  503 -0.00000000000E+00 -0.00000000000E+00 -0.12792635317E+00  0.12792635317E+00  0.00000000000E+00 0. -1.
          5    1    1    2  501    0  0.11985939922E+01 -0.27522066658E+01  0.93297686405E+02  0.93464215385E+02  0.47000000000E+01 0. -1.
         -5    1    1    2    0  503 -0.11985939922E+01  0.27522066658E+01  0.17404832840E+03  0.17413765213E+03  0.47000000000E+01 0.  1.
<mgrwt>
<rscale>  2 0.55768512E+01</rscale>
<asrwt>0</asrwt>
<pdfrwt beam="1">  1       21 0.41149389E-01 0.55768512E+01</pdfrwt>
<pdfrwt beam="2">  1       21 0.19681192E-04 0.55768512E+01</pdfrwt>
<totfact> 0.21497332E+09</totfact>
</mgrwt>
</event>
<event>
 4    1  0.4039863E+006  0.5143669E+01  0.7546771E-02  0.2542281E+00
         21   -1    0    0  501  502  0.00000000000E+00  0.00000000000E+00  0.26030221400E+01  0.26030221400E+01  0.00000000000E+00 0.  1.
         21   -1    0    0  502  503 -0.00000000000E+00 -0.00000000000E+00 -0.18178433173E+02  0.18178433173E+02  0.00000000000E+00 0.  1.
          5    1    1    2  501    0  0.99028072381E+00  0.18402933141E+01 -0.88845569408E+00  0.52198361003E+01  0.47000000000E+01 0.  1.
         -5    1    1    2    0  503 -0.99028072381E+00 -0.18402933141E+01 -0.14686955339E+02  0.15561619213E+02  0.47000000000E+01 0.  1.
<mgrwt>
<rscale>  2 0.51436694E+01</rscale>
<asrwt>0</asrwt>
<pdfrwt beam="1">  1       21 0.40046495E-03 0.51436694E+01</pdfrwt>
<pdfrwt beam="2">  1       21 0.27966820E-02 0.51436694E+01</pdfrwt>
<totfact> 0.22587510E+09</totfact>
</mgrwt>
</event>
<event>
 4    1  0.4039863E+006  0.4881387E+01  0.7546771E-02  0.2588636E+00
         21   -1    0    0  501  502  0.00000000000E+00  0.00000000000E+00  0.10414852906E+01  0.10414852906E+01  0.00000000000E+00 0. -1.
         21   -1    0    0  502  503 -0.00000000000E+00 -0.00000000000E+00 -0.49127860592E+02  0.49127860592E+02  0.00000000000E+00 0. -1.
          5    1    1    2  501    0  0.41336892578E+00  0.12518246945E+01 -0.57073245474E+01  0.75100927041E+01  0.47000000000E+01 0. -1.
         -5    1    1    2    0  503 -0.41336892578E+00 -0.12518246945E+01 -0.42379050754E+02  0.42659253178E+02  0.47000000000E+01 0. -1.
<mgrwt>
<rscale>  2 0.48813870E+01</rscale>
<asrwt>0</asrwt>
<pdfrwt beam="1">  1       21 0.16022853E-03 0.48813870E+01</pdfrwt>
<pdfrwt beam="2">  1       21 0.75581311E-02 0.48813870E+01</pdfrwt>
<totfact> 0.17377306E+09</totfact>
</mgrwt>
</event>
<event>
 4    1  0.4039863E+006  0.5450851E+01  0.7546771E-02  0.2492893E+00
         21   -1    0    0  503  502  0.00000000000E+00  0.00000000000E+00  0.36281690108E+00  0.36281690108E+00  0.00000000000E+00 0.  1.
         21   -1    0    0  501  503 -0.00000000000E+00 -0.00000000000E+00 -0.57326459672E+03  0.57326459672E+03  0.00000000000E+00 0. -1.
          5    1    1    2  501    0 -0.25602386031E+01  0.10329328513E+01 -0.55198960171E+03  0.55201651440E+03  0.47000000000E+01 0. -1.
         -5    1    1    2    0  502  0.25602386031E+01 -0.10329328513E+01 -0.20912178111E+02  0.21610899225E+02  0.47000000000E+01 0.  1.
<mgrwt>
<rscale>  2 0.54508506E+01</rscale>
<asrwt>0</asrwt>
<pdfrwt beam="1">  1       21 0.55818155E-04 0.54508506E+01</pdfrwt>
<pdfrwt beam="2">  1       21 0.88194284E-01 0.54508506E+01</pdfrwt>
<totfact> 0.12933265E+08</totfact>
</mgrwt>
</event>
<event>
 4    1  0.4039863E+006  0.6371009E+01  0.7546771E-02  0.2369500E+00
         21   -1    0    0  501  502  0.00000000000E+00  0.00000000000E+00  0.10350022723E+04  0.10350022723E+04  0.00000000000E+00 0.  1.
         21   -1    0    0  502  503 -0.00000000000E+00 -0.00000000000E+00 -0.39251660914E-01  0.39251660914E-01  0.00000000000E+00 0.  1.
          5    1    1    2  501    0  0.63732429422E+00  0.42536546603E+01  0.50211916353E+03  0.50215958035E+03  0.47000000000E+01 0.  1.
         -5    1    1    2    0  503 -0.63732429422E+00 -0.42536546603E+01  0.53284385711E+03  0.53288194360E+03  0.47000000000E+01 0.  1.
<mgrwt>
<rscale>  2 0.63710094E+01</rscale>
<asrwt>0</asrwt>
<pdfrwt beam="1">  1       21 0.15920926E+00 0.63710094E+01</pdfrwt>
<pdfrwt beam="2">  1       21 0.60395460E-05 0.63710094E+01</pdfrwt>
<totfact> 0.81277750E+08</totfact>
</mgrwt>
</event>
<event>
 4    1  0.4039863E+006  0.5014233E+01  0.7546771E-02  0.2564635E+00
         21   -1    0    0  503  502  0.00000000000E+00  0.00000000000E+00  0.34211153211E+02  0.34211153211E+02  0.00000000000E+00 0.  1.
         21   -1    0    0  501  503 -0.00000000000E+00 -0.00000000000E+00 -0.10008284558E+02  0.10008284558E+02  0.00000000000E+00 0.  1.
          5    1    1    2  501    0 -0.66297514137E+00 -0.16164760370E+01 -0.91810350415E+01  0.10461067596E+02  0.47000000000E+01 0.  1.
         -5    1    1    2    0  502  0.66297514137E+00  0.16164760370E+01  0.33383903694E+02  0.33758370172E+02  0.47000000000E+01 0.  1.
<mgrwt>
<rscale>  2 0.50142328E+01</rscale>
<asrwt>0</asrwt>
<pdfrwt beam="1">  1       21 0.52632543E-02 0.50142328E+01</pdfrwt>
<pdfrwt beam="2">  1       21 0.15397361E-02 0.50142328E+01</pdfrwt>
<totfact> 0.13605913E+08</totfact>
</mgrwt>
</event>
<event>
 4    1  0.4039863E+006  0.6960484E+01  0.7546771E-02  0.2304996E+00
         21   -1    0    0  501  502  0.00000000000E+00  0.00000000000E+00  0.21940317189E+00  0.21940317189E+00  0.00000000000E+00 0.  1.
         21   -1    0    0  502  503 -0.00000000000E+00 -0.00000000000E+00 -0.31241206369E+03  0.31241206369E+03  0.00000000000E+00 0. -1.
          5    1    1    2  501    0 -0.45404982664E+01  0.23962908874E+01 -0.71457300440E+02  0.71795502092E+02  0.47000000000E+01 0.  1.
         -5    1    1    2    0  503  0.45404982664E+01 -0.23962908874E+01 -0.24073536008E+03  0.24083596477E+03  0.47000000000E+01 0. -1.
<mgrwt>
<rscale>  2 0.69604838E+01</rscale>
<asrwt>0</asrwt>
<pdfrwt beam="1">  1       21 0.33754148E-04 0.69604838E+01</pdfrwt>
<pdfrwt beam="2">  1       21 0.48063659E-01 0.69604838E+01</pdfrwt>
<totfact> 0.93354167E+08</totfact>
</mgrwt>
</event>
<event>
 4    1  0.4039863E+006  0.4914670E+01  0.7546771E-02  0.2582517E+00
         21   -1    0    0  503  502  0.00000000000E+00  0.00000000000E+00  0.11188756121E+03  0.11188756121E+03  0.00000000000E+00 0.  1.
         21   -1    0    0  501  503 -0.00000000000E+00 -0.00000000000E+00 -0.96049782926E+00  0.96049782926E+00  0.00000000000E+00 0.  1.
          5    1    1    2  501    0  0.12271992893E+01  0.74697070242E+00  0.57833231300E+01  0.75895197313E+01  0.47000000000E+01 0.  1.
         -5    1    1    2    0  502 -0.12271992893E+01 -0.74697070242E+00  0.10514374025E+03  0.10525853931E+03  0.47000000000E+01 0.  1.
<mgrwt>
<rscale>  2 0.49146702E+01</rscale>
<asrwt>0</asrwt>
<pdfrwt beam="1">  1       21 0.17213461E-01 0.49146702E+01</pdfrwt>
<pdfrwt beam="2">  1       21 0.14776899E-03 0.49146702E+01</pdfrwt>
<totfact> 0.55579446E+08</totfact>
</mgrwt>
</event>
<event>
 4    1  0.4039863E+006  0.4843259E+01  0.7546771E-02  0.2595734E+00
         21   -1    0    0  501  502  0.00000000000E+00  0.00000000000E+00  0.18794460516E+01  0.18794460516E+01  0.00000000000E+00 0. -1.
         21   -1    0    0  502  503 -0.00000000000E+00 -0.00000000000E+00 -0.14438137026E+02  0.14438137026E+02  0.00000000000E+00 0. -1.
          5    1    1    2  501    0 -0.11179440105E+01 -0.34257953279E+00 -0.32753929166E+01  0.58468246344E+01  0.47000000000E+01 0.  1.
         -5    1    1    2    0  503  0.11179440105E+01  0.34257953279E+00 -0.92832980581E+01  0.10470758444E+02  0.47000000000E+01 0.  1.
<mgrwt>
<rscale>  2 0.48432592E+01</rscale>
<asrwt>0</asrwt>
<pdfrwt beam="1">  1       21 0.28914554E-03 0.48432592E+01</pdfrwt>
<pdfrwt beam="2">  1       21 0.22212519E-02 0.48432592E+01</pdfrwt>
<totfact> 0.45947616E+09</totfact>
</mgrwt>
</event>
<event>
 4    1  0.4039863E+006  0.5099995E+01  0.7546771E-02  0.2549715E+00
         21   -1    0    0  503  502  0.00000000000E+00  0.00000000000E+00  0.14850913181E+02  0.14850913181E+02  0.00000000000E+00 0.  1.
         21   -1    0    0  501  503 -0.00000000000E+00 -0.00000000000E+00 -0.21172688193E+01  0.21172688193E+01  0.00000000000E+00 0. -1.
          5    1    1    2  501    0 -0.12068552093E+01  0.15695385236E+01  0.28400487068E+01  0.58374504135E+01  0.47000000000E+01 0. -1.
         -5    1    1    2    0  502  0.12068552093E+01 -0.15695385236E+01  0.98935956549E+01  0.11130731587E+02  0.47000000000E+01 0.  1.
<mgrwt>
<rscale>  2 0.50999952E+01</rscale>
<asrwt>0</asrwt>
<pdfrwt beam="1">  1       21 0.22847558E-02 0.50999952E+01</pdfrwt>
<pdfrwt beam="2">  1       21 0.32573367E-03 0.50999952E+01</pdfrwt>
<totfact> 0.39645955E+09</totfact>
</mgrwt>
</event>
<event>
 4    1  0.4039863E+006  0.5109747E+01  0.7546771E-02  0.2548046E+00
         21   -1    0    0  503  502  0.00000000000E+00  0.00000000000E+00  0.30701422837E+01  0.30701422837E+01  0.00000000000E+00 0. -1.
         21   -1    0    0  501  503 -0.00000000000E+00 -0.00000000000E+00 -0.97510467114E+01  0.97510467114E+01  0.00000000000E+00 0. -1.
          5    1    1    2  501    0  0.60059465649E+00  0.19127981923E+01 -0.56326713795E+01  0.76050310805E+01  0.47000000000E+01 0. -1.
         -5    1    1    2    0  502 -0.60059465649E+00 -0.19127981923E+01 -0.10482330482E+01  0.52161579145E+01  0.47000000000E+01 0. -1.
<mgrwt>
<rscale>  2 0.51097467E+01</rscale>
<asrwt>0</asrwt>
<pdfrwt beam="1">  1       21 0.47232960E-03 0.51097467E+01</pdfrwt>
<pdfrwt beam="2">  1       21 0.15001610E-02 0.51097467E+01</pdfrwt>
<totfact> 0.43378223E+09</totfact>
</mgrwt>
</event>
<event>
 4    1  0.4039863E+006  0.5858235E+01  0.7546771E-02  0.2434248E+00
         21   -1    0    0  503  502  0.00000000000E+00  0.00000000000E+00  0.29286532398E+01  0.29286532398E+01  0.00000000000E+00 0.  1.
         21   -1    0    0  501  503 -0.00000000000E+00 -0.00000000000E+00 -0.40966720530E+02  0.40966720530E+02  0.00000000000E+00 0. -1.
          5    1    1    2  501    0 -0.19980709638E+01  0.28699533288E+01 -0.37563919149E+02  0.38017981819E+02  0.47000000000E+01 0. -1.
         -5    1    1    2    0  502  0.19980709638E+01 -0.28699533288E+01 -0.47414814048E+00  0.58773919509E+01  0.47000000000E+01 0.  1.
<mgrwt>
<rscale>  2 0.58582352E+01</rscale>
<asrwt>0</asrwt>
<pdfrwt beam="1">  1       21 0.45056202E-03 0.58582352E+01</pdfrwt>
<pdfrwt beam="2">  1       21 0.63025726E-02 0.58582352E+01</pdfrwt>
<totfact> 0.65605552E+08</totfact>
</mgrwt>
</event>
<event>
 4    1  0.4039863E+006  0.6209359E+01  0.7546771E-02  0.2388947E+00
         21   -1    0    0  501  502  0.00000000000E+00  0.00000000000E+00  0.78309228024E+01  0.78309228024E+01  0.00000000000E+00 0.  1.
         21   -1    0    0  502  503 -0.00000000000E+00 -0.00000000000E+00 -0.10489198707E+02  0.10489198707E+02  0.00000000000E+00 0.  1.
          5    1    1    2  501    0  0.37740866166E+01  0.14907729209E+01  0.53432936113E+01  0.81918813656E+01  0.47000000000E+01 0.  1.
         -5    1    1    2    0  503 -0.37740866166E+01 -0.14907729209E+01 -0.80015695158E+01  0.10128240144E+02  0.47000000000E+01 0.  1.
<mgrwt>
<rscale>  2 0.62093586E+01</rscale>
<asrwt>0</asrwt>
<pdfrwt beam="1">  1       21 0.12047574E-02 0.62093586E+01</pdfrwt>
<pdfrwt beam="2">  1       21 0.16137229E-02 0.62093586E+01</pdfrwt>
<totfact> 0.12650274E+09</totfact>
</mgrwt>
</event>
<event>
 4    1  0.4039863E+006  0.1747559E+02  0.7546771E-02  0.1800753E+00
         21   -1    0    0  503  502  0.00000000000E+00  0.00000000000E+00  0.42673881068E+02  0.42673881068E+02  0.00000000000E+00 0.  1.
         21   -1    0    0  501  503 -0.00000000000E+00 -0.00000000000E+00 -0.34330969209E+02  0.34330969209E+02  0.00000000000E+00 0. -1.
          5    1    1    2  501    0  0.30278233227E+01 -0.16557129851E+02 -0.30083662187E+02  0.34791133835E+02  0.47000000000E+01 0. -1.
         -5    1    1    2    0  502 -0.30278233227E+01  0.16557129851E+02  0.38426574045E+02  0.42213716442E+02  0.47000000000E+01 0.  1.
<mgrwt>
<rscale>  2 0.17475590E+02</rscale>
<asrwt>0</asrwt>
<pdfrwt beam="1">  1       21 0.65652124E-02 0.17475590E+02</pdfrwt>
<pdfrwt beam="2">  1       21 0.52816876E-02 0.17475590E+02</pdfrwt>
<totfact> 0.28312350E+07</totfact>
</mgrwt>
</event>
<event>
 4    1  0.4039863E+006  0.5372741E+01  0.7546771E-02  0.2504994E+00
         21   -1    0    0  501  502  0.00000000000E+00  0.00000000000E+00  0.32260505881E+02  0.32260505881E+02  0.00000000000E+00 0.  1.
         21   -1    0    0  502  503 -0.00000000000E+00 -0.00000000000E+00 -0.93017231205E+00  0.93017231205E+00  0.00000000000E+00 0.  1.
          5    1    1    2  501    0 -0.45569533718E+00 -0.25629451499E+01  0.12428458093E+02  0.13540048621E+02  0.47000000000E+01 0.  1.
         -5    1    1    2    0  503  0.45569533718E+00  0.25629451499E+01  0.18901875475E+02  0.19650629572E+02  0.47000000000E+01 0.  1.
<mgrwt>
<rscale>  2 0.53727410E+01</rscale>
<asrwt>0</asrwt>
<pdfrwt beam="1">  1       21 0.49631539E-02 0.53727410E+01</pdfrwt>
<pdfrwt beam="2">  1       21 0.14310346E-03 0.53727410E+01</pdfrwt>
<totfact> 0.41375904E+09</totfact>
</mgrwt>
</event>
<event>
 4    1  0.4039863E+006  0.4893401E+01  0.7546771E-02  0.2586419E+00
         21   -1    0    0  503  502  0.00000000000E+00  0.00000000000E+00  0.85801452534E+02  0.85801452534E+02  0.00000000000E+00 0.  1.
         21   -1    0    0  501  503 -0.00000000000E+00 -0.00000000000E+00 -0.45649819288E+00  0.45649819288E+00  0.00000000000E+00 0.  1.
          5    1    1    2  501    0  0.88213679165E+00  0.10378886773E+01  0.15785004309E+02  0.16526092679E+02  0.47000000000E+01 0.  1.
         -5    1    1    2    0  502 -0.88213679165E+00 -0.10378886773E+01  0.69559950033E+02  0.69731858048E+02  0.47000000000E+01 0.  1.
<mgrwt>
<rscale>  2 0.48934015E+01</rscale>
<asrwt>0</asrwt>
<pdfrwt beam="1">  1       21 0.13200211E-01 0.48934015E+01</pdfrwt>
<pdfrwt beam="2">  1       21 0.70230559E-04 0.48934015E+01</pdfrwt>
<totfact> 0.22452983E+09</totfact>
</mgrwt>
</event>
<event>
 4    1  0.4039863E+006  0.5678669E+01  0.7546771E-02  0.2459221E+00
         21   -1    0    0  503  502  0.00000000000E+00  0.00000000000E+00  0.64608609494E+01  0.64608609494E+01  0.00000000000E+00 0. -1.
         21   -1    0    0  501  503 -0.00000000000E+00 -0.00000000000E+00 -0.58699307157E+01  0.58699307157E+01  0.00000000000E+00 0. -1.
          5    1    1    2  501    0 -0.28060500308E+01 -0.15110823767E+01 -0.20900303395E+01  0.60510754040E+01  0.47000000000E+01 0. -1.
         -5    1    1    2    0  502  0.28060500308E+01  0.15110823767E+01  0.26809605731E+01  0.62797162611E+01  0.47000000000E+01 0. -1.
<mgrwt>
<rscale>  2 0.56786695E+01</rscale>
<asrwt>0</asrwt>
<pdfrwt beam="1">  1       21 0.99397861E-03 0.56786695E+01</pdfrwt>
<pdfrwt beam="2">  1       21 0.90306626E-03 0.56786695E+01</pdfrwt>
<totfact> 0.34948630E+09</totfact>
</mgrwt>
</event>
<event>
 4    1  0.4039863E+006  0.4988645E+01  0.7546771E-02  0.2569172E+00
         21   -1    0    0  501  502  0.00000000000E+00  0.00000000000E+00  0.15518517723E+01  0.15518517723E+01  0.00000000000E+00 0. -1.
         21   -1    0    0  502  503 -0.00000000000E+00 -0.00000000000E+00 -0.19375925274E+02  0.19375925274E+02  0.00000000000E+00 0. -1.
          5    1    1    2  501    0 -0.23495119540E+00  0.16557116015E+01 -0.45680882400E+01  0.67641712826E+01  0.47000000000E+01 0. -1.
         -5    1    1    2    0  503  0.23495119540E+00 -0.16557116015E+01 -0.13255985261E+02  0.14163605763E+02  0.47000000000E+01 0. -1.
<mgrwt>
<rscale>  2 0.49886454E+01</rscale>
<asrwt>0</asrwt>
<pdfrwt beam="1">  1       21 0.23874642E-03 0.49886454E+01</pdfrwt>
<pdfrwt beam="2">  1       21 0.29809116E-02 0.49886454E+01</pdfrwt>
<totfact> 0.40375991E+09</totfact>
</mgrwt>
</event>
<event>
 4    1  0.4039863E+006  0.5342744E+01  0.7546771E-02  0.2509721E+00
         21   -1    0    0  503  502  0.00000000000E+00  0.00000000000E+00  0.89395340659E+00  0.89395340659E+00  0.00000000000E+00 0. -1.
         21   -1    0    0  501  503 -0.00000000000E+00 -0.00000000000E+00 -0.35493922169E+02  0.35493922169E+02  0.00000000000E+00 0. -1.
          5    1    1    2  501    0  0.19163309803E+01  0.16681103856E+01 -0.23064286161E+02  0.23675012414E+02  0.47000000000E+01 0. -1.
         -5    1    1    2    0  502 -0.19163309803E+01 -0.16681103856E+01 -0.11535682601E+02  0.12712863161E+02  0.47000000000E+01 0. -1.
<mgrwt>
<rscale>  2 0.53427443E+01</rscale>
<asrwt>0</asrwt>
<pdfrwt beam="1">  1       21 0.13753132E-03 0.53427443E+01</pdfrwt>
<pdfrwt beam="2">  1       21 0.54606022E-02 0.53427443E+01</pdfrwt>
<totfact> 0.37706211E+09</totfact>
</mgrwt>
</event>
<event>
 4    1  0.4039863E+006  0.8128647E+01  0.7546771E-02  0.2200308E+00
         21   -1    0    0  501  502  0.00000000000E+00  0.00000000000E+00  0.45976650577E+01  0.45976650577E+01  0.00000000000E+00 0.  1.
         21   -1    0    0  502  503 -0.00000000000E+00 -0.00000000000E+00 -0.63777259300E+02  0.63777259300E+02  0.00000000000E+00 0.  1.
          5    1    1    2  501    0  0.62731910347E+01  0.21522008967E+01  0.50026991528E+00  0.81440263043E+01  0.47000000000E+01 0.  1.
         -5    1    1    2    0  503 -0.62731910347E+01 -0.21522008967E+01 -0.59679864157E+02  0.60230898053E+02  0.47000000000E+01 0.  1.
<mgrwt>
<rscale>  2 0.81286465E+01</rscale>
<asrwt>0</asrwt>
<pdfrwt beam="1">  1       21 0.70733306E-03 0.81286465E+01</pdfrwt>
<pdfrwt beam="2">  1       21 0.98118863E-02 0.81286465E+01</pdfrwt>
<totfact> 0.22076332E+08</totfact>
</mgrwt>
</event>
<event>
 4    1  0.4039863E+006  0.1015253E+02  0.7546771E-02  0.2066410E+00
         21   -1    0    0  503  502  0.00000000000E+00  0.00000000000E+00  0.44692337157E+02  0.44692337157E+02  0.00000000000E+00 0. -1.
         21   -1    0    0  501  503 -0.00000000000E+00 -0.00000000000E+00 -0.45571189492E+01  0.45571189492E+01  0.00000000000E+00 0.  1.
          5    1    1    2  501    0  0.89332392035E+01 -0.10867660193E+01  0.27616055549E+01  0.10521420450E+02  0.47000000000E+01 0.  1.
         -5    1    1    2    0  502 -0.89332392035E+01  0.10867660193E+01  0.37373612653E+02  0.38728035656E+02  0.47000000000E+01 0. -1.
<mgrwt>
<rscale>  2 0.10152528E+02</rscale>
<asrwt>0</asrwt>
<pdfrwt beam="1">  1       21 0.68757439E-02 0.10152528E+02</pdfrwt>
<pdfrwt beam="2">  1       21 0.70109525E-03 0.10152528E+02</pdfrwt>
<totfact> 0.43996754E+08</totfact>
</mgrwt>
</event>
<event>
 4    1  0.4039863E+006  0.8230898E+01  0.7546771E-02  0.2192302E+00
         21   -1    0    0  503  502  0.00000000000E+00  0.00000000000E+00  0.69163193045E+00  0.69163193045E+00  0.00000000000E+00 0.  1.
         21   -1    0    0  501  503 -0.00000000000E+00 -0.00000000000E+00 -0.10805948935E+03  0.10805948935E+03  0.00000000000E+00 0.  1.
          5    1    1    2  501    0 -0.67081929634E+01  0.81107116337E+00 -0.70312853368E+02  0.70792973083E+02  0.47000000000E+01 0.  1.
         -5    1    1    2    0  502  0.67081929634E+01 -0.81107116337E+00 -0.37055004049E+02  0.37958148194E+02  0.47000000000E+01 0.  1.
<mgrwt>
<rscale>  2 0.82308984E+01</rscale>
<asrwt>0</asrwt>
<pdfrwt beam="1">  1       21 0.10640494E-03 0.82308984E+01</pdfrwt>
<pdfrwt beam="2">  1       21 0.16624532E-01 0.82308984E+01</pdfrwt>
<totfact> 0.13467552E+09</totfact>
</mgrwt>
</event>
<event>
 4    1  0.4039863E+006  0.4751091E+01  0.7546771E-02  0.2613299E+00
         21   -1    0    0  501  502  0.00000000000E+00  0.00000000000E+00  0.36319592611E+00  0.36319592611E+00  0.00000000000E+00 0.  1.
         21   -1    0    0  502  503 -0.00000000000E+00 -0.00000000000E+00 -0.13616745792E+03  0.13616745792E+03  0.00000000000E+00 0.  1.
          5    1    1    2  501    0 -0.60245264275E-01 -0.69227078267E+00 -0.17571932717E+02  0.18202903278E+02  0.47000000000E+01 0.  1.
         -5    1    1    2    0  503  0.60245264275E-01  0.69227078267E+00 -0.11823232927E+03  0.11832775057E+03  0.47000000000E+01 0.  1.
<mgrwt>
<rscale>  2 0.47510913E+01</rscale>
<asrwt>0</asrwt>
<pdfrwt beam="1">  1       21 0.55876353E-04 0.47510913E+01</pdfrwt>
<pdfrwt beam="2">  1       21 0.20948819E-01 0.47510913E+01</pdfrwt>
<totfact> 0.14347447E+09</totfact>
</mgrwt>
</event>
<event>
 4    1  0.4039863E+006  0.4934965E+01  0.7546771E-02  0.2578822E+00
         21   -1    0    0  503  502  0.00000000000E+00  0.00000000000E+00  0.10561695241E+03  0.10561695241E+03  0.00000000000E+00 0.  1.
         21   -1    0    0  501  503 -0.00000000000E+00 -0.00000000000E+00 -0.44911625030E+00  0.44911625030E+00  0.00000000000E+00 0.  1.
          5    1    1    2  501    0 -0.11851394881E+01  0.92699641515E+00  0.15590705234E+02  0.16353102692E+02  0.47000000000E+01 0.  1.
         -5    1    1    2    0  502  0.11851394881E+01 -0.92699641515E+00  0.89577130924E+02  0.89712965966E+02  0.47000000000E+01 0.  1.
<mgrwt>
<rscale>  2 0.49349648E+01</rscale>
<asrwt>0</asrwt>
<pdfrwt beam="1">  1       21 0.16248742E-01 0.49349648E+01</pdfrwt>
<pdfrwt beam="2">  1       21 0.69094892E-04 0.49349648E+01</pdfrwt>
<totfact> 0.16764521E+09</totfact>
</mgrwt>
</event>
<event>
 4    1  0.4039863E+006  0.1765153E+02  0.7546771E-02  0.1796514E+00
         21   -1    0    0  501  502  0.00000000000E+00  0.00000000000E+00  0.19595479877E+02  0.19595479877E+02  0.00000000000E+00 0.  1.
         21   -1    0    0  502  503 -0.00000000000E+00 -0.00000000000E+00 -0.24024227235E+02  0.24024227235E+02  0.00000000000E+00 0.  1.
          5    1    1    2  501    0 -0.16457496352E+02  0.43171008416E+01  0.10468205651E+02  0.20522180084E+02  0.47000000000E+01 0.  1.
         -5    1    1    2    0  503  0.16457496352E+02 -0.43171008416E+01 -0.14896953009E+02  0.23097527028E+02  0.47000000000E+01 0.  1.
<mgrwt>
<rscale>  2 0.17651531E+02</rscale>
<asrwt>0</asrwt>
<pdfrwt beam="1">  1       21 0.30146892E-02 0.17651531E+02</pdfrwt>
<pdfrwt beam="2">  1       21 0.36960350E-02 0.17651531E+02</pdfrwt>
<totfact> 0.16806878E+08</totfact>
</mgrwt>
</event>
<event>
 4    1  0.4039863E+006  0.7214229E+01  0.7546771E-02  0.2279923E+00
         21   -1    0    0  501  502  0.00000000000E+00  0.00000000000E+00  0.73202255917E-01  0.73202255917E-01  0.00000000000E+00 0.  1.
         21   -1    0    0  502  503 -0.00000000000E+00 -0.00000000000E+00 -0.87327562908E+03  0.87327562908E+03  0.00000000000E+00 0. -1.
          5    1    1    2  501    0  0.54667668551E+01  0.26374467475E+00 -0.24834910268E+03  0.24845386272E+03  0.47000000000E+01 0.  1.
         -5    1    1    2    0  503 -0.54667668551E+01 -0.26374467475E+00 -0.62485332415E+03  0.62489496862E+03  0.47000000000E+01 0. -1.
<mgrwt>
<rscale>  2 0.72142291E+01</rscale>
<asrwt>0</asrwt>
<pdfrwt beam="1">  1       21 0.11262951E-04 0.72142291E+01</pdfrwt>
<pdfrwt beam="2">  1       21 0.13433739E+00 0.72142291E+01</pdfrwt>
<totfact> 0.54731639E+08</totfact>
</mgrwt>
</event>
<event>
 4    1  0.4039863E+006  0.4874522E+01  0.7546771E-02  0.2589907E+00
         21   -1    0    0  503  502  0.00000000000E+00  0.00000000000E+00  0.36131577044E+03  0.36131577044E+03  0.00000000000E+00 0.  1.
         21   -1    0    0  501  503 -0.00000000000E+00 -0.00000000000E+00 -0.70943549535E-01  0.70943549535E-01  0.00000000000E+00 0. -1.
          5    1    1    2  501    0 -0.83833998822E-01  0.12899348479E+01  0.13179063690E+03  0.13188075271E+03  0.47000000000E+01 0. -1.
         -5    1    1    2    0  502  0.83833998822E-01 -0.12899348479E+01  0.22945418999E+03  0.22950596128E+03  0.47000000000E+01 0.  1.
<mgrwt>
<rscale>  2 0.48745215E+01</rscale>
<asrwt>0</asrwt>
<pdfrwt beam="1">  1       21 0.55585568E-01 0.48745215E+01</pdfrwt>
<pdfrwt beam="2">  1       21 0.10914682E-04 0.48745215E+01</pdfrwt>
<totfact> 0.24585049E+09</totfact>
</mgrwt>
</event>
<event>
 4    1  0.4039863E+006  0.4751540E+01  0.7546771E-02  0.2613212E+00
         21   -1    0    0  501  502  0.00000000000E+00  0.00000000000E+00  0.18195829352E+03  0.18195829352E+03  0.00000000000E+00 0. -1.
         21   -1    0    0  502  503 -0.00000000000E+00 -0.00000000000E+00 -0.13716740015E+00  0.13716740015E+00  0.00000000000E+00 0. -1.
          5    1    1    2  501    0  0.53985984118E+00  0.44236242280E+00  0.11903561481E+03  0.11913041058E+03  0.47000000000E+01 0. -1.
         -5    1    1    2    0  503 -0.53985984118E+00 -0.44236242280E+00  0.62785511316E+02  0.62965050340E+02  0.47000000000E+01 0. -1.
<mgrwt>
<rscale>  2 0.47515401E+01</rscale>
<asrwt>0</asrwt>
<pdfrwt beam="1">  1       21 0.27993391E-01 0.47515401E+01</pdfrwt>
<pdfrwt beam="2">  1       21 0.21102822E-04 0.47515401E+01</pdfrwt>
<totfact> 0.32539337E+09</totfact>
</mgrwt>
</event>
<event>
 4    1  0.4039863E+006  0.5556880E+01  0.7546771E-02  0.2476931E+00
         21   -1    0    0  501  502  0.00000000000E+00  0.00000000000E+00  0.94378382132E+00  0.94378382132E+00  0.00000000000E+00 0.  1.
         21   -1    0    0  502  503 -0.00000000000E+00 -0.00000000000E+00 -0.16029507437E+03  0.16029507437E+03  0.00000000000E+00 0.  1.
          5    1    1    2  501    0  0.25222654513E+01  0.15579118845E+01 -0.77530085912E+01  0.95387658878E+01  0.47000000000E+01 0.  1.
         -5    1    1    2    0  503 -0.25222654513E+01 -0.15579118845E+01 -0.15159828195E+03  0.15170009230E+03  0.47000000000E+01 0.  1.
<mgrwt>
<rscale>  2 0.55568797E+01</rscale>
<asrwt>0</asrwt>
<pdfrwt beam="1">  1       21 0.14519747E-03 0.55568797E+01</pdfrwt>
<pdfrwt beam="2">  1       21 0.24660787E-01 0.55568797E+01</pdfrwt>
<totfact> 0.35365304E+08</totfact>
</mgrwt>
</event>
<event>
 4    1  0.4039863E+006  0.5932297E+01  0.7546771E-02  0.2424319E+00
         21   -1    0    0  503  502  0.00000000000E+00  0.00000000000E+00  0.27245474937E+01  0.27245474937E+01  0.00000000000E+00 0. -1.
         21   -1    0    0  501  503 -0.00000000000E+00 -0.00000000000E+00 -0.17808433742E+02  0.17808433742E+02  0.00000000000E+00 0. -1.
          5    1    1    2  501    0  0.29896104993E+01  0.20406804487E+01 -0.12922668185E+02  0.14219265123E+02  0.47000000000E+01 0. -1.
         -5    1    1    2    0  502 -0.29896104993E+01 -0.20406804487E+01 -0.21612180636E+01  0.63137161125E+01  0.47000000000E+01 0. -1.
<mgrwt>
<rscale>  2 0.59322970E+01</rscale>
<asrwt>0</asrwt>
<pdfrwt beam="1">  1       21 0.41916115E-03 0.59322970E+01</pdfrwt>
<pdfrwt beam="2">  1       21 0.27397591E-02 0.59322970E+01</pdfrwt>
<totfact> 0.24936030E+09</totfact>
</mgrwt>
</event>
<event>
 4    1  0.4039863E+006  0.6695059E+01  0.7546771E-02  0.2332880E+00
         21   -1    0    0  501  502  0.00000000000E+00  0.00000000000E+00  0.18366462138E+00  0.18366462138E+00  0.00000000000E+00 0. -1.
         21   -1    0    0  502  503 -0.00000000000E+00 -0.00000000000E+00 -0.68697229509E+03  0.68697229509E+03  0.00000000000E+00 0. -1.
          5    1    1    2  501    0 -0.43505584312E+01  0.19510155999E+01 -0.67515579227E+02  0.67846718852E+02  0.47000000000E+01 0. -1.
         -5    1    1    2    0  503  0.43505584312E+01 -0.19510155999E+01 -0.61927305124E+03  0.61930924086E+03  0.47000000000E+01 0. -1.
<mgrwt>
<rscale>  2 0.66950594E+01</rscale>
<asrwt>0</asrwt>
<pdfrwt beam="1">  1       21 0.28256318E-04 0.66950594E+01</pdfrwt>
<pdfrwt beam="2">  1       21 0.10568721E+00 0.66950594E+01</pdfrwt>
<totfact> 0.25333867E+08</totfact>
</mgrwt>
</event>
<event>
 4    1  0.4039863E+006  0.5360199E+01  0.7546771E-02  0.2506965E+00
         21   -1    0    0  503  502  0.00000000000E+00  0.00000000000E+00  0.18011128407E+02  0.18011128407E+02  0.00000000000E+00 0. -1.
         21   -1    0    0  501  503 -0.00000000000E+00 -0.00000000000E+00 -0.15956526830E+01  0.15956526830E+01  0.00000000000E+00 0. -1.
          5    1    1    2  501    0 -0.72639697592E+00 -0.24726663734E+01  0.80465050180E+01  0.96684008277E+01  0.47000000000E+01 0. -1.
         -5    1    1    2    0  502  0.72639697592E+00  0.24726663734E+01  0.83689707062E+01  0.99383802625E+01  0.47000000000E+01 0. -1.
<mgrwt>
<rscale>  2 0.53601988E+01</rscale>
<asrwt>0</asrwt>
<pdfrwt beam="1">  1       21 0.27709427E-02 0.53601988E+01</pdfrwt>
<pdfrwt beam="2">  1       21 0.24548504E-03 0.53601988E+01</pdfrwt>
<totfact> 0.46485957E+09</totfact>
</mgrwt>
</event>
<event>
 4    1  0.4039863E+006  0.8621007E+01  0.7546771E-02  0.2163165E+00
         21   -1    0    0  503  502  0.00000000000E+00  0.00000000000E+00  0.60496067246E+01  0.60496067246E+01  0.00000000000E+00 0.  1.
         21   -1    0    0  501  503 -0.00000000000E+00 -0.00000000000E+00 -0.23942255983E+02  0.23942255983E+02  0.00000000000E+00 0. -1.
          5    1    1    2  501    0  0.15546163506E+01  0.70579687021E+01 -0.19409942807E+02  0.21238352902E+02  0.47000000000E+01 0. -1.
         -5    1    1    2    0  502 -0.15546163506E+01 -0.70579687021E+01  0.15172935495E+01  0.87535098054E+01  0.47000000000E+01 0.  1.
<mgrwt>
<rscale>  2 0.86210066E+01</rscale>
<asrwt>0</asrwt>
<pdfrwt beam="1">  1       21 0.93070873E-03 0.86210066E+01</pdfrwt>
<pdfrwt beam="2">  1       21 0.36834240E-02 0.86210066E+01</pdfrwt>
<totfact> 0.69064663E+08</totfact>
</mgrwt>
</event>
<event>
 4    1  0.4039863E+006  0.5536907E+01  0.7546771E-02  0.2479898E+00
         21   -1    0    0  503  502  0.00000000000E+00  0.00000000000E+00  0.55422754930E+00  0.55422754930E+00  0.00000000000E+00 0.  1.
         21   -1    0    0  501  503 -0.00000000000E+00 -0.00000000000E+00 -0.57657604238E+02  0.57657604238E+02  0.00000000000E+00 0. -1.
          5    1    1    2  501    0 -0.23871877491E+01 -0.16937151545E+01 -0.22685413880E+02  0.23351345556E+02  0.47000000000E+01 0.  1.
         -5    1    1    2    0  502  0.23871877491E+01  0.16937151545E+01 -0.34417962810E+02  0.34860486232E+02  0.47000000000E+01 0. -1.
<mgrwt>
<rscale>  2 0.55369068E+01</rscale>
<asrwt>0</asrwt>
<pdfrwt beam="1">  1       21 0.85265812E-04 0.55369068E+01</pdfrwt>
<pdfrwt beam="2">  1       21 0.88703970E-02 0.55369068E+01</pdfrwt>
<totfact> 0.35809947E+09</totfact>
</mgrwt>
</event>
<event>
 4    1  0.4039863E+006  0.5656957E+01  0.7546771E-02  0.2462331E+00
         21   -1    0    0  501  502  0.00000000000E+00  0.00000000000E+00  0.42832905574E+02  0.42832905574E+02  0.00000000000E+00 0. -1.
         21   -1    0    0  502  503 -0.00000000000E+00 -0.00000000000E+00 -0.81840096199E+00  0.81840096199E+00  0.00000000000E+00 0. -1.
          5    1    1    2  501    0 -0.28712681026E+01  0.12911170680E+01  0.27448679468E+02  0.28025544925E+02  0.47000000000E+01 0. -1.
         -5    1    1    2    0  503  0.28712681026E+01 -0.12911170680E+01  0.14565825143E+02  0.15625761610E+02  0.47000000000E+01 0. -1.
<mgrwt>
<rscale>  2 0.56569571E+01</rscale>
<asrwt>0</asrwt>
<pdfrwt beam="1">  1       21 0.65896760E-02 0.56569571E+01</pdfrwt>
<pdfrwt beam="2">  1       21 0.12590787E-03 0.56569571E+01</pdfrwt>
<totfact> 0.33881759E+09</totfact>
</mgrwt>
</event>
<event>
 4    1  0.4039863E+006  0.5599201E+01  0.7546771E-02  0.2470703E+00
         21   -1    0    0  503  502  0.00000000000E+00  0.00000000000E+00  0.64155924243E+03  0.64155924243E+03  0.00000000000E+00 0. -1.
         21   -1    0    0  501  503 -0.00000000000E+00 -0.00000000000E+00 -0.75921021557E-01  0.75921021557E-01  0.00000000000E+00 0. -1.
          5    1    1    2  501    0  0.10979936738E+01 -0.28382138904E+01  0.12923080501E+03  0.12935204680E+03  0.47000000000E+01 0. -1.
         -5    1    1    2    0  502 -0.10979936738E+01  0.28382138904E+01  0.51225251639E+03  0.51228311665E+03  0.47000000000E+01 0. -1.
<mgrwt>
<rscale>  2 0.55992007E+01</rscale>
<asrwt>0</asrwt>
<pdfrwt beam="1">  1       21 0.98697081E-01 0.55992007E+01</pdfrwt>
<pdfrwt beam="2">  1       21 0.11680671E-04 0.55992007E+01</pdfrwt>
<totfact> 0.84308131E+08</totfact>
</mgrwt>
</event>
<event>
 4    1  0.4039863E+006  0.5241436E+01  0.7546771E-02  0.2526026E+00
         21   -1    0    0  501  502  0.00000000000E+00  0.00000000000E+00  0.19789217811E+00  0.19789217811E+00  0.00000000000E+00 0.  1.
         21   -1    0    0  502  503 -0.00000000000E+00 -0.00000000000E+00 -0.55176818788E+03  0.55176818788E+03  0.00000000000E+00 0.  1.
          5    1    1    2  501    0  0.13017335178E+01  0.19204544554E+01 -0.37032338359E+02  0.37401426976E+02  0.47000000000E+01 0.  1.
         -5    1    1    2    0  503 -0.13017335178E+01 -0.19204544554E+01 -0.51453795735E+03  0.51456465309E+03  0.47000000000E+01 0.  1.
<mgrwt>
<rscale>  2 0.52414364E+01</rscale>
<asrwt>0</asrwt>
<pdfrwt beam="1">  1       21 0.30444877E-04 0.52414364E+01</pdfrwt>
<pdfrwt beam="2">  1       21 0.84887618E-01 0.52414364E+01</pdfrwt>
<totfact> 0.30348471E+08</totfact>
</mgrwt>
</event>
<event>
 4    1  0.4039863E+006  0.5331461E+01  0.7546771E-02  0.2511511E+00
         21   -1    0    0  501  502  0.00000000000E+00  0.00000000000E+00  0.72175770124E+02  0.72175770124E+02  0.00000000000E+00 0. -1.
         21   -1    0    0  502  503 -0.00000000000E+00 -0.00000000000E+00 -0.45129725602E+00  0.45129725602E+00  0.00000000000E+00 0. -1.
          5    1    1    2  501    0  0.18304264207E+01 -0.17274288748E+01  0.48821317518E+02  0.49111561934E+02  0.47000000000E+01 0. -1.
         -5    1    1    2    0  503 -0.18304264207E+01  0.17274288748E+01  0.22903155350E+02  0.23515505447E+02  0.47000000000E+01 0. -1.
<mgrwt>
<rscale>  2 0.53314605E+01</rscale>
<asrwt>0</asrwt>
<pdfrwt beam="1">  1       21 0.11103956E-01 0.53314605E+01</pdfrwt>
<pdfrwt beam="2">  1       21 0.69430404E-04 0.53314605E+01</pdfrwt>
<totfact> 0.32288895E+09</totfact>
</mgrwt>
</event>
<event>
 4    1  0.4039863E+006  0.5020726E+01  0.7546771E-02  0.2563490E+00
         21   -1    0    0  503  502  0.00000000000E+00  0.00000000000E+00  0.65215972096E+01  0.65215972096E+01  0.00000000000E+00 0. -1.
         21   -1    0    0  501  503 -0.00000000000E+00 -0.00000000000E+00 -0.42503011519E+01  0.42503011519E+01  0.00000000000E+00 0. -1.
          5    1    1    2  501    0  0.37380037921E+00  0.17256785063E+01 -0.48542985631E+00  0.50441386952E+01  0.47000000000E+01 0. -1.
         -5    1    1    2    0  502 -0.37380037921E+00 -0.17256785063E+01  0.27567259140E+01  0.57277596664E+01  0.47000000000E+01 0. -1.
<mgrwt>
<rscale>  2 0.50207263E+01</rscale>
<asrwt>0</asrwt>
<pdfrwt beam="1">  1       21 0.10033226E-02 0.50207263E+01</pdfrwt>
<pdfrwt beam="2">  1       21 0.65389249E-03 0.50207263E+01</pdfrwt>
<totfact> 0.47820958E+09</totfact>
</mgrwt>
</event>
<event>
 4    1  0.4039863E+006  0.4853846E+01  0.7546771E-02  0.2593753E+00
         21   -1    0    0  501  502  0.00000000000E+00  0.00000000000E+00  0.16399745599E+03  0.16399745599E+03  0.00000000000E+00 0. -1.
         21   -1    0    0  502  503 -0.00000000000E+00 -0.00000000000E+00 -0.23549162607E+00  0.23549162607E+00  0.00000000000E+00 0. -1.
          5    1    1    2  501    0 -0.71225722906E+00  0.98107525318E+00  0.13315997604E+03  0.13324841101E+03  0.47000000000E+01 0. -1.
         -5    1    1    2    0  503  0.71225722906E+00 -0.98107525318E+00  0.30601988323E+02  0.30984536600E+02  0.47000000000E+01 0. -1.
<mgrwt>
<rscale>  2 0.48538458E+01</rscale>
<asrwt>0</asrwt>
<pdfrwt beam="1">  1       21 0.25230287E-01 0.48538458E+01</pdfrwt>
<pdfrwt beam="2">  1       21 0.36229612E-04 0.48538458E+01</pdfrwt>
<totfact> 0.19256840E+09</totfact>
</mgrwt>
</event>
<event>
 4    1  0.4039863E+006  0.1246278E+02  0.7546771E-02  0.1957074E+00
         21   -1    0    0  501  502  0.00000000000E+00  0.00000000000E+00  0.36510169755E+01  0.36510169755E+01  0.00000000000E+00 0. -1.
         21   -1    0    0  502  503 -0.00000000000E+00 -0.00000000000E+00 -0.45858489660E+02  0.45858489660E+02  0.00000000000E+00 0. -1.
          5    1    1    2  501    0 -0.48420183709E+01 -0.10477870615E+02 -0.14446412200E+02  0.19079301350E+02  0.47000000000E+01 0. -1.
         -5    1    1    2    0  503  0.48420183709E+01  0.10477870615E+02 -0.27761060485E+02  0.30430205286E+02  0.47000000000E+01 0. -1.
<mgrwt>
<rscale>  2 0.12462781E+02</rscale>
<asrwt>0</asrwt>
<pdfrwt beam="1">  1       21 0.56169494E-03 0.12462781E+02</pdfrwt>
<pdfrwt beam="2">  1       21 0.70551520E-02 0.12462781E+02</pdfrwt>
<totfact> 0.64566048E+08</totfact>
</mgrwt>
</event>
<event>
 4    1  0.4039863E+006  0.7729375E+01  0.7546771E-02  0.2233193E+00
         21   -1    0    0  503  502  0.00000000000E+00  0.00000000000E+00  0.25302384403E+04  0.25302384403E+04  0.00000000000E+00 0.  1.
         21   -1    0    0  501  503 -0.00000000000E+00 -0.00000000000E+00 -0.27114512321E-01  0.27114512321E-01  0.00000000000E+00 0. -1.
          5    1    1    2  501    0  0.56542510338E+01 -0.23838381500E+01  0.81038630310E+03  0.81042316322E+03  0.47000000000E+01 0. -1.
         -5    1    1    2    0  502 -0.56542510338E+01  0.23838381500E+01  0.17198250227E+04  0.17198423916E+04  0.47000000000E+01 0.  1.
<mgrwt>
<rscale>  2 0.77293751E+01</rscale>
<asrwt>0</asrwt>
<pdfrwt beam="1">  1       21 0.38907843E+00 0.77293751E+01</pdfrwt>
<pdfrwt beam="2">  1       21 0.41734900E-05 0.77293751E+01</pdfrwt>
<totfact> 0.13651338E+08</totfact>
</mgrwt>
</event>
<event>
 4    1  0.4039863E+006  0.7717696E+01  0.7546771E-02  0.2234196E+00
         21   -1    0    0  503  502  0.00000000000E+00  0.00000000000E+00  0.64954870212E+02  0.64954870212E+02  0.00000000000E+00 0.  1.
         21   -1    0    0  501  503 -0.00000000000E+00 -0.00000000000E+00 -0.19230755912E+01  0.19230755912E+01  0.00000000000E+00 0. -1.
          5    1    1    2  501    0 -0.49732097005E+01  0.35693157030E+01  0.73294170725E+01  0.10643457330E+02  0.47000000000E+01 0. -1.
         -5    1    1    2    0  502  0.49732097005E+01 -0.35693157030E+01  0.55702377549E+02  0.56234488474E+02  0.47000000000E+01 0.  1.
<mgrwt>
<rscale>  2 0.77176959E+01</rscale>
<asrwt>0</asrwt>
<pdfrwt beam="1">  1       21 0.99930553E-02 0.77176959E+01</pdfrwt>
<pdfrwt beam="2">  1       21 0.29585783E-03 0.77176959E+01</pdfrwt>
<totfact> 0.70913245E+08</totfact>
</mgrwt>
</event>
<event>
 4    1  0.4039863E+006  0.5637379E+01  0.7546771E-02  0.2465152E+00
         21   -1    0    0  503  502  0.00000000000E+00  0.00000000000E+00  0.23266511033E+00  0.23266511033E+00  0.00000000000E+00 0.  1.
         21   -1    0    0  501  503 -0.00000000000E+00 -0.00000000000E+00 -0.20668602582E+03  0.20668602582E+03  0.00000000000E+00 0. -1.
          5    1    1    2  501    0  0.30143517314E+01 -0.77699566804E+00 -0.16347663488E+03  0.16357380655E+03  0.47000000000E+01 0. -1.
         -5    1    1    2    0  502 -0.30143517314E+01  0.77699566804E+00 -0.42976725836E+02  0.43344884383E+02  0.47000000000E+01 0.  1.
<mgrwt>
<rscale>  2 0.56373787E+01</rscale>
<asrwt>0</asrwt>
<pdfrwt beam="1">  1       21 0.35794541E-04 0.56373787E+01</pdfrwt>
<pdfrwt beam="2">  1       21 0.31797931E-01 0.56373787E+01</pdfrwt>
<totfact> 0.15218910E+09</totfact>
</mgrwt>
</event>
<event>
 4    1  0.4039863E+006  0.5507919E+01  0.7546771E-02  0.2484237E+00
         21   -1    0    0  501  502  0.00000000000E+00  0.00000000000E+00  0.61191804103E+01  0.61191804103E+01  0.00000000000E+00 0. -1.
         21   -1    0    0  502  503 -0.00000000000E+00 -0.00000000000E+00 -0.14041955933E+02  0.14041955933E+02  0.00000000000E+00 0. -1.
          5    1    1    2  501    0 -0.27080064392E+01  0.95596591960E+00  0.41466444040E+01  0.68943331459E+01  0.47000000000E+01 0. -1.
         -5    1    1    2    0  503  0.27080064392E+01 -0.95596591960E+00 -0.12069419927E+02  0.13266803198E+02  0.47000000000E+01 0. -1.
<mgrwt>
<rscale>  2 0.55079188E+01</rscale>
<asrwt>0</asrwt>
<pdfrwt beam="1">  1       21 0.94141239E-03 0.55079188E+01</pdfrwt>
<pdfrwt beam="2">  1       21 0.21603009E-02 0.55079188E+01</pdfrwt>
<totfact> 0.10670945E+09</totfact>
</mgrwt>
</event>
<event>
 4    1  0.4039863E+006  0.6530613E+01  0.7546771E-02  0.2351088E+00
         21   -1    0    0  501  502  0.00000000000E+00  0.00000000000E+00  0.43878950760E+03  0.43878950760E+03  0.00000000000E+00 0.  1.
         21   -1    0    0  502  503 -0.00000000000E+00 -0.00000000000E+00 -0.13272081286E+00  0.13272081286E+00  0.00000000000E+00 0. -1.
          5    1    1    2  501    0  0.40296544146E+01  0.20786506336E+01  0.33286856084E+03  0.33293261735E+03  0.47000000000E+01 0.  1.
         -5    1    1    2    0  503 -0.40296544146E+01 -0.20786506336E+01  0.10578822595E+03  0.10598961106E+03  0.47000000000E+01 0. -1.
<mgrwt>
<rscale>  2 0.65306128E+01</rscale>
<asrwt>0</asrwt>
<pdfrwt beam="1">  1       21 0.67504917E-01 0.65306128E+01</pdfrwt>
<pdfrwt beam="2">  1       21 0.20418938E-04 0.65306128E+01</pdfrwt>
<totfact> 0.93507629E+08</totfact>
</mgrwt>
</event>
<event>
 4    1  0.4039863E+006  0.5059777E+01  0.7546771E-02  0.2556657E+00
         21   -1    0    0  501  502  0.00000000000E+00  0.00000000000E+00  0.11579282671E+02  0.11579282671E+02  0.00000000000E+00 0. -1.
         21   -1    0    0  502  503 -0.00000000000E+00 -0.00000000000E+00 -0.33188907521E+01  0.33188907521E+01  0.00000000000E+00 0.  1.
          5    1    1    2  501    0 -0.96105667152E+00 -0.16086386313E+01  0.84340998624E+01  0.98354150223E+01  0.47000000000E+01 0. -1.
         -5    1    1    2    0  503  0.96105667152E+00  0.16086386313E+01 -0.17370794390E+00  0.50627584005E+01  0.47000000000E+01 0.  1.
<mgrwt>
<rscale>  2 0.50597775E+01</rscale>
<asrwt>0</asrwt>
<pdfrwt beam="1">  1       21 0.17814281E-02 0.50597775E+01</pdfrwt>
<pdfrwt beam="2">  1       21 0.51059858E-03 0.50597775E+01</pdfrwt>
<totfact> 0.30266181E+09</totfact>
</mgrwt>
</event>
<event>
 4    1  0.4039863E+006  0.7971549E+01  0.7546771E-02  0.2212930E+00
         21   -1    0    0  503  502  0.00000000000E+00  0.00000000000E+00  0.29493094137E-01  0.29493094137E-01  0.00000000000E+00 0. -1.
         21   -1    0    0  501  503 -0.00000000000E+00 -0.00000000000E+00 -0.22291045063E+04  0.22291045063E+04  0.00000000000E+00 0.  1.
          5    1    1    2  501    0  0.12787226162E+01  0.63103450363E+01 -0.13183146268E+04  0.13183387277E+04  0.47000000000E+01 0. -1.
         -5    1    1    2    0  502 -0.12787226162E+01 -0.63103450363E+01 -0.91076038640E+03  0.91079527174E+03  0.47000000000E+01 0.  1.
<mgrwt>
<rscale>  2 0.79715485E+01</rscale>
<asrwt>0</asrwt>
<pdfrwt beam="1">  1       21 0.45371755E-05 0.79715485E+01</pdfrwt>
<pdfrwt beam="2">  1       21 0.34295606E+00 0.79715485E+01</pdfrwt>
<totfact> 0.19518216E+08</totfact>
</mgrwt>
</event>
<event>
 4    1  0.4039863E+006  0.8387209E+01  0.7546771E-02  0.2180367E+00
         21   -1    0    0  501  502  0.00000000000E+00  0.00000000000E+00  0.80239606662E+01  0.80239606662E+01  0.00000000000E+00 0.  1.
         21   -1    0    0  502  503 -0.00000000000E+00 -0.00000000000E+00 -0.88415572818E+01  0.88415572818E+01  0.00000000000E+00 0.  1.
          5    1    1    2  501    0  0.28561371998E+01  0.63322790031E+01 -0.11836801395E+01  0.84703232376E+01  0.47000000000E+01 0.  1.
         -5    1    1    2    0  503 -0.28561371998E+01 -0.63322790031E+01  0.36608352389E+00  0.83951947103E+01  0.47000000000E+01 0.  1.
<mgrwt>
<rscale>  2 0.83872091E+01</rscale>
<asrwt>0</asrwt>
<pdfrwt beam="1">  1       21 0.12344555E-02 0.83872091E+01</pdfrwt>
<pdfrwt beam="2">  1       21 0.13602396E-02 0.83872091E+01</pdfrwt>
<totfact> 0.19577426E+09</totfact>
</mgrwt>
</event>
<event>
 4    1  0.4039863E+006  0.5663100E+01  0.7546771E-02  0.2461449E+00
         21   -1    0    0  503  502  0.00000000000E+00  0.00000000000E+00  0.19278338966E+02  0.19278338966E+02  0.00000000000E+00 0.  1.
         21   -1    0    0  501  503 -0.00000000000E+00 -0.00000000000E+00 -0.27184812600E+01  0.27184812600E+01  0.00000000000E+00 0.  1.
          5    1    1    2  501    0  0.11779399972E+01  0.29314083749E+01  0.15131284357E+02  0.16156313440E+02  0.47000000000E+01 0.  1.
         -5    1    1    2    0  502 -0.11779399972E+01 -0.29314083749E+01  0.14285733490E+01  0.58405067855E+01  0.47000000000E+01 0.  1.
<mgrwt>
<rscale>  2 0.56630997E+01</rscale>
<asrwt>0</asrwt>
<pdfrwt beam="1">  1       21 0.29658982E-02 0.56630997E+01</pdfrwt>
<pdfrwt beam="2">  1       21 0.41822790E-03 0.56630997E+01</pdfrwt>
<totfact> 0.21403139E+09</totfact>
</mgrwt>
</event>
<event>
 4    1  0.4039863E+006  0.5659421E+01  0.7546771E-02  0.2461977E+00
         21   -1    0    0  501  502  0.00000000000E+00  0.00000000000E+00  0.25906415747E+01  0.25906415747E+01  0.00000000000E+00 0. -1.
         21   -1    0    0  502  503 -0.00000000000E+00 -0.00000000000E+00 -0.15806362268E+02  0.15806362268E+02  0.00000000000E+00 0. -1.
          5    1    1    2  501    0  0.45745331869E-01  0.31522929640E+01 -0.23147745348E+01  0.61145093600E+01  0.47000000000E+01 0. -1.
         -5    1    1    2    0  503 -0.45745331869E-01 -0.31522929640E+01 -0.10900946158E+02  0.12282494482E+02  0.47000000000E+01 0. -1.
<mgrwt>
<rscale>  2 0.56594208E+01</rscale>
<asrwt>0</asrwt>
<pdfrwt beam="1">  1       21 0.39856024E-03 0.56594208E+01</pdfrwt>
<pdfrwt beam="2">  1       21 0.24317480E-02 0.56594208E+01</pdfrwt>
<totfact> 0.30443796E+09</totfact>
</mgrwt>
</event>
<event>
 4    1  0.4039863E+006  0.7720271E+01  0.7546771E-02  0.2233975E+00
         21   -1    0    0  503  502  0.00000000000E+00  0.00000000000E+00  0.42958449632E+00  0.42958449632E+00  0.00000000000E+00 0.  1.
         21   -1    0    0  501  503 -0.00000000000E+00 -0.00000000000E+00 -0.28121194534E+03  0.28121194534E+03  0.00000000000E+00 0. -1.
          5    1    1    2  501    0 -0.60589770896E+01 -0.89520193549E+00 -0.24062338140E+03  0.24074719991E+03  0.47000000000E+01 0. -1.
         -5    1    1    2    0  502  0.60589770896E+01  0.89520193549E+00 -0.40158979450E+02  0.40894329929E+02  0.47000000000E+01 0.  1.
<mgrwt>
<rscale>  2 0.77202714E+01</rscale>
<asrwt>0</asrwt>
<pdfrwt beam="1">  1       21 0.66089821E-04 0.77202714E+01</pdfrwt>
<pdfrwt beam="2">  1       21 0.43263443E-01 0.77202714E+01</pdfrwt>
<totfact> 0.48624018E+08</totfact>
</mgrwt>
</event>
<event>
 4    1  0.4039863E+006  0.6073502E+01  0.7546771E-02  0.2405954E+00
         21   -1    0    0  503  502  0.00000000000E+00  0.00000000000E+00  0.47039659939E+01  0.47039659939E+01  0.00000000000E+00 0. -1.
         21   -1    0    0  501  503 -0.00000000000E+00 -0.00000000000E+00 -0.10920828002E+02  0.10920828002E+02  0.00000000000E+00 0. -1.
          5    1    1    2  501    0  0.20991114532E+01 -0.32235310493E+01 -0.72566858322E+01  0.94629229409E+01  0.47000000000E+01 0. -1.
         -5    1    1    2    0  502 -0.20991114532E+01  0.32235310493E+01  0.10398238236E+01  0.61618710554E+01  0.47000000000E+01 0. -1.
<mgrwt>
<rscale>  2 0.60735016E+01</rscale>
<asrwt>0</asrwt>
<pdfrwt beam="1">  1       21 0.72368708E-03 0.60735016E+01</pdfrwt>
<pdfrwt beam="2">  1       21 0.16801274E-02 0.60735016E+01</pdfrwt>
<totfact> 0.24056372E+09</totfact>
</mgrwt>
</event>
<event>
 4    1  0.4039863E+006  0.8256027E+01  0.7546771E-02  0.2190359E+00
         21   -1    0    0  503  502  0.00000000000E+00  0.00000000000E+00  0.41440300152E+00  0.41440300152E+00  0.00000000000E+00 0. -1.
         21   -1    0    0  501  503 -0.00000000000E+00 -0.00000000000E+00 -0.17935437901E+03  0.17935437901E+03  0.00000000000E+00 0.  1.
          5    1    1    2  501    0 -0.66155461654E+01  0.15187289921E+01 -0.11535289626E+03  0.11564796870E+03  0.47000000000E+01 0.  1.
         -5    1    1    2    0  502  0.66155461654E+01 -0.15187289921E+01 -0.63587079746E+02  0.64120813309E+02  0.47000000000E+01 0. -1.
<mgrwt>
<rscale>  2 0.82560274E+01</rscale>
<asrwt>0</asrwt>
<pdfrwt beam="1">  1       21 0.63754378E-04 0.82560274E+01</pdfrwt>
<pdfrwt beam="2">  1       21 0.27592951E-01 0.82560274E+01</pdfrwt>
<totfact> 0.11675232E+09</totfact>
</mgrwt>
</event>
<event>
 4    1  0.4039863E+006  0.7114932E+01  0.7546771E-02  0.2289561E+00
         21   -1    0    0  501  502  0.00000000000E+00  0.00000000000E+00  0.99352649611E+00  0.99352649611E+00  0.00000000000E+00 0. -1.
         21   -1    0    0  502  503 -0.00000000000E+00 -0.00000000000E+00 -0.52904137377E+02  0.52904137377E+02  0.00000000000E+00 0.  1.
          5    1    1    2  501    0 -0.52010815714E+01 -0.12169681535E+01 -0.31131841394E+02  0.31934523789E+02  0.47000000000E+01 0. -1.
         -5    1    1    2    0  503  0.52010815714E+01  0.12169681535E+01 -0.20778769487E+02  0.21963140085E+02  0.47000000000E+01 0.  1.
<mgrwt>
<rscale>  2 0.71149323E+01</rscale>
<asrwt>0</asrwt>
<pdfrwt beam="1">  1       21 0.15285021E-03 0.71149323E+01</pdfrwt>
<pdfrwt beam="2">  1       21 0.81390993E-02 0.71149323E+01</pdfrwt>
<totfact> 0.22880383E+09</totfact>
</mgrwt>
</event>
<event>
 4    1  0.4039863E+006  0.5465127E+01  0.7546771E-02  0.2490713E+00
         21   -1    0    0  501  502  0.00000000000E+00  0.00000000000E+00  0.50211256616E+01  0.50211256616E+01  0.00000000000E+00 0. -1.
         21   -1    0    0  502  503 -0.00000000000E+00 -0.00000000000E+00 -0.66672057871E+01  0.66672057871E+01  0.00000000000E+00 0.  1.
          5    1    1    2  501    0 -0.92758488301E+00 -0.26300572698E+01  0.10958907610E+01  0.55739206594E+01  0.47000000000E+01 0. -1.
         -5    1    1    2    0  503  0.92758488301E+00  0.26300572698E+01 -0.27419708865E+01  0.61144107893E+01  0.47000000000E+01 0.  1.
<mgrwt>
<rscale>  2 0.54651272E+01</rscale>
<asrwt>0</asrwt>
<pdfrwt beam="1">  1       21 0.77248087E-03 0.54651272E+01</pdfrwt>
<pdfrwt beam="2">  1       21 0.10257240E-02 0.54651272E+01</pdfrwt>
<totfact> 0.40131590E+09</totfact>
</mgrwt>
</event>
<event>
 4    1  0.4039863E+006  0.5057860E+01  0.7546771E-02  0.2556991E+00
         21   -1    0    0  501  502  0.00000000000E+00  0.00000000000E+00  0.18844484422E+02  0.18844484422E+02  0.00000000000E+00 0. -1.
         21   -1    0    0  502  503 -0.00000000000E+00 -0.00000000000E+00 -0.17749976859E+01  0.17749976859E+01  0.00000000000E+00 0. -1.
          5    1    1    2  501    0  0.49356682191E+00  0.18023149547E+01  0.13534633335E+02  0.14448814723E+02  0.47000000000E+01 0. -1.
         -5    1    1    2    0  503 -0.49356682191E+00 -0.18023149547E+01  0.35348534016E+01  0.61706673849E+01  0.47000000000E+01 0. -1.
<mgrwt>
<rscale>  2 0.50578600E+01</rscale>
<asrwt>0</asrwt>
<pdfrwt beam="1">  1       21 0.28991513E-02 0.50578600E+01</pdfrwt>
<pdfrwt beam="2">  1       21 0.27307658E-03 0.50578600E+01</pdfrwt>
<totfact> 0.35536267E+09</totfact>
</mgrwt>
</event>
<event>
 4    1  0.4039863E+006  0.4900245E+01  0.7546771E-02  0.2585160E+00
         21   -1    0    0  501  502  0.00000000000E+00  0.00000000000E+00  0.16735836509E+01  0.16735836509E+01  0.00000000000E+00 0. -1.
         21   -1    0    0  502  503 -0.00000000000E+00 -0.00000000000E+00 -0.14414293533E+02  0.14414293533E+02  0.00000000000E+00 0. -1.
          5    1    1    2  501    0  0.85857197317E-01 -0.13838461625E+01 -0.58244048487E+01  0.76115762823E+01  0.47000000000E+01 0.  1.
         -5    1    1    2    0  503 -0.85857197317E-01  0.13838461625E+01 -0.69163050338E+01  0.84763009019E+01  0.47000000000E+01 0.  1.
<mgrwt>
<rscale>  2 0.49002451E+01</rscale>
<asrwt>0</asrwt>
<pdfrwt beam="1">  1       21 0.25747440E-03 0.49002451E+01</pdfrwt>
<pdfrwt beam="2">  1       21 0.22175837E-02 0.49002451E+01</pdfrwt>
<totfact> 0.54563955E+09</totfact>
</mgrwt>
</event>
<event>
 4    1  0.4039863E+006  0.5018676E+01  0.7546771E-02  0.2563851E+00
         21   -1    0    0  503  502  0.00000000000E+00  0.00000000000E+00  0.27330084348E+01  0.27330084348E+01  0.00000000000E+00 0.  1.
         21   -1    0    0  501  503 -0.00000000000E+00 -0.00000000000E+00 -0.10738091939E+02  0.10738091939E+02  0.00000000000E+00 0.  1.
          5    1    1    2  501    0 -0.87424283599E-01  0.17576886102E+01 -0.65385185714E+01  0.82425322179E+01  0.47000000000E+01 0.  1.
         -5    1    1    2    0  502  0.87424283599E-01 -0.17576886102E+01 -0.14665649325E+01  0.52285681555E+01  0.47000000000E+01 0.  1.
<mgrwt>
<rscale>  2 0.50186763E+01</rscale>
<asrwt>0</asrwt>
<pdfrwt beam="1">  1       21 0.42046285E-03 0.50186763E+01</pdfrwt>
<pdfrwt beam="2">  1       21 0.16520141E-02 0.50186763E+01</pdfrwt>
<totfact> 0.43580388E+09</totfact>
</mgrwt>
</event>
<event>
 4    1  0.4039863E+006  0.1746479E+02  0.7546771E-02  0.1801016E+00
         21   -1    0    0  503  502  0.00000000000E+00  0.00000000000E+00  0.25706672933E+01  0.25706672933E+01  0.00000000000E+00 0. -1.
         21   -1    0    0  501  503 -0.00000000000E+00 -0.00000000000E+00 -0.19731133165E+03  0.19731133165E+03  0.00000000000E+00 0.  1.
          5    1    1    2  501    0 -0.16747045283E+02  0.15701700215E+01 -0.16047163855E+03  0.16141922357E+03  0.47000000000E+01 0.  1.
         -5    1    1    2    0  502  0.16747045283E+02 -0.15701700215E+01 -0.34269025816E+02  0.38462775380E+02  0.47000000000E+01 0. -1.
<mgrwt>
<rscale>  2 0.17464792E+02</rscale>
<asrwt>0</asrwt>
<pdfrwt beam="1">  1       21 0.39548720E-03 0.17464792E+02</pdfrwt>
<pdfrwt beam="2">  1       21 0.30355595E-01 0.17464792E+02</pdfrwt>
<totfact> 0.10704677E+08</totfact>
</mgrwt>
</event>
<event>
 4    1  0.4039863E+006  0.5572577E+01  0.7546771E-02  0.2474611E+00
         21   -1    0    0  501  502  0.00000000000E+00  0.00000000000E+00  0.43958126801E+01  0.43958126801E+01  0.00000000000E+00 0.  1.
         21   -1    0    0  502  503 -0.00000000000E+00 -0.00000000000E+00 -0.12441905880E+02  0.12441905880E+02  0.00000000000E+00 0. -1.
          5    1    1    2  501    0  0.23893345037E+01  0.18040780474E+01  0.15117508332E+01  0.57739940728E+01  0.47000000000E+01 0.  1.
         -5    1    1    2    0  503 -0.23893345037E+01 -0.18040780474E+01 -0.95578440330E+01  0.11063724487E+02  0.47000000000E+01 0. -1.
<mgrwt>
<rscale>  2 0.55725772E+01</rscale>
<asrwt>0</asrwt>
<pdfrwt beam="1">  1       21 0.67627889E-03 0.55725772E+01</pdfrwt>
<pdfrwt beam="2">  1       21 0.19141393E-02 0.55725772E+01</pdfrwt>
<totfact> 0.20342006E+09</totfact>
</mgrwt>
</event>
<event>
 4    1  0.4039863E+006  0.5603679E+01  0.7546771E-02  0.2470048E+00
         21   -1    0    0  501  502  0.00000000000E+00  0.00000000000E+00  0.43452252504E+01  0.43452252504E+01  0.00000000000E+00 0.  1.
         21   -1    0    0  502  503 -0.00000000000E+00 -0.00000000000E+00 -0.78397526731E+01  0.78397526731E+01  0.00000000000E+00 0.  1.
          5    1    1    2  501    0  0.24613770887E+01 -0.18035636368E+01 -0.43431877968E-01  0.56038473653E+01  0.47000000000E+01 0.  1.
         -5    1    1    2    0  503 -0.24613770887E+01  0.18035636368E+01 -0.34510955447E+01  0.65811305582E+01  0.47000000000E+01 0.  1.
<mgrwt>
<rscale>  2 0.56036791E+01</rscale>
<asrwt>0</asrwt>
<pdfrwt beam="1">  1       21 0.66849620E-03 0.56036791E+01</pdfrwt>
<pdfrwt beam="2">  1       21 0.12061158E-02 0.56036791E+01</pdfrwt>
<totfact> 0.40018088E+09</totfact>
</mgrwt>
</event>
<event>
 4    1  0.4039863E+006  0.7858375E+01  0.7546771E-02  0.2222274E+00
         21   -1    0    0  501  502  0.00000000000E+00  0.00000000000E+00  0.12029459308E+01  0.12029459308E+01  0.00000000000E+00 0. -1.
         21   -1    0    0  502  503 -0.00000000000E+00 -0.00000000000E+00 -0.60523159195E+02  0.60523159195E+02  0.00000000000E+00 0. -1.
          5    1    1    2  501    0  0.51386634574E+01  0.36411809196E+01 -0.17635357969E+02  0.19306991255E+02  0.47000000000E+01 0. -1.
         -5    1    1    2    0  503 -0.51386634574E+01 -0.36411809196E+01 -0.41684855295E+02  0.42419113871E+02  0.47000000000E+01 0. -1.
<mgrwt>
<rscale>  2 0.78583752E+01</rscale>
<asrwt>0</asrwt>
<pdfrwt beam="1">  1       21 0.18506856E-03 0.78583752E+01</pdfrwt>
<pdfrwt beam="2">  1       21 0.93112575E-02 0.78583752E+01</pdfrwt>
<totfact> 0.15354517E+09</totfact>
</mgrwt>
</event>
<event>
 4    1  0.4039863E+006  0.6137259E+01  0.7546771E-02  0.2397894E+00
         21   -1    0    0  501  502  0.00000000000E+00  0.00000000000E+00  0.37872731679E+00  0.37872731679E+00  0.00000000000E+00 0. -1.
         21   -1    0    0  502  503 -0.00000000000E+00 -0.00000000000E+00 -0.16913302535E+03  0.16913302535E+03  0.00000000000E+00 0.  1.
          5    1    1    2  501    0  0.31592980111E+01  0.23653287602E+01 -0.29976176429E+02  0.30597991721E+02  0.47000000000E+01 0. -1.
         -5    1    1    2    0  503 -0.31592980111E+01 -0.23653287602E+01 -0.13877812160E+03  0.13891376094E+03  0.47000000000E+01 0.  1.
<mgrwt>
<rscale>  2 0.61372587E+01</rscale>
<asrwt>0</asrwt>
<pdfrwt beam="1">  1       21 0.58265683E-04 0.61372587E+01</pdfrwt>
<pdfrwt beam="2">  1       21 0.26020491E-01 0.61372587E+01</pdfrwt>
<totfact> 0.11869693E+09</totfact>
</mgrwt>
</event>
<event>
 4    1  0.4039863E+006  0.5113176E+01  0.7546771E-02  0.2547460E+00
         21   -1    0    0  501  502  0.00000000000E+00  0.00000000000E+00  0.15714839712E+01  0.15714839712E+01  0.00000000000E+00 0.  1.
         21   -1    0    0  502  503 -0.00000000000E+00 -0.00000000000E+00 -0.17074309044E+02  0.17074309044E+02  0.00000000000E+00 0.  1.
          5    1    1    2  501    0 -0.20018786355E+01 -0.21691032860E+00 -0.62591677175E+01  0.80821871221E+01  0.47000000000E+01 0. -1.
         -5    1    1    2    0  503  0.20018786355E+01  0.21691032860E+00 -0.92436573554E+01  0.10563605893E+02  0.47000000000E+01 0. -1.
<mgrwt>
<rscale>  2 0.51131759E+01</rscale>
<asrwt>0</asrwt>
<pdfrwt beam="1">  1       21 0.24176675E-03 0.51131759E+01</pdfrwt>
<pdfrwt beam="2">  1       21 0.26268169E-02 0.51131759E+01</pdfrwt>
<totfact> 0.48820082E+09</totfact>
</mgrwt>
</event>
<event>
 4    1  0.4039863E+006  0.1067079E+02  0.7546771E-02  0.2038709E+00
         21   -1    0    0  503  502  0.00000000000E+00  0.00000000000E+00  0.15111242229E+02  0.15111242229E+02  0.00000000000E+00 0.  1.
         21   -1    0    0  501  503 -0.00000000000E+00 -0.00000000000E+00 -0.10614115219E+02  0.10614115219E+02  0.00000000000E+00 0. -1.
          5    1    1    2  501    0 -0.95215469073E+01 -0.10563334370E+01 -0.46791655334E+01  0.11651621601E+02  0.47000000000E+01 0. -1.
         -5    1    1    2    0  502  0.95215469073E+01  0.10563334370E+01  0.91762925442E+01  0.14073735847E+02  0.47000000000E+01 0.  1.
<mgrwt>
<rscale>  2 0.10670787E+02</rscale>
<asrwt>0</asrwt>
<pdfrwt beam="1">  1       21 0.23248065E-02 0.10670787E+02</pdfrwt>
<pdfrwt beam="2">  1       21 0.16329408E-02 0.10670787E+02</pdfrwt>
<totfact> 0.68620710E+08</totfact>
</mgrwt>
</event>
<event>
 4    1  0.4039863E+006  0.7627712E+01  0.7546771E-02  0.2242008E+00
         21   -1    0    0  501  502  0.00000000000E+00  0.00000000000E+00  0.14981318850E+03  0.14981318850E+03  0.00000000000E+00 0.  1.
         21   -1    0    0  502  503 -0.00000000000E+00 -0.00000000000E+00 -0.10077786860E+01  0.10077786860E+01  0.00000000000E+00 0. -1.
          5    1    1    2  501    0 -0.58489807201E+01  0.13716465794E+01  0.13352346776E+03  0.13374116207E+03  0.47000000000E+01 0.  1.
         -5    1    1    2    0  503  0.58489807201E+01 -0.13716465794E+01  0.15281942060E+02  0.17079805120E+02  0.47000000000E+01 0. -1.
<mgrwt>
<rscale>  2 0.76277120E+01</rscale>
<asrwt>0</asrwt>
<pdfrwt beam="1">  1       21 0.23048165E-01 0.76277120E+01</pdfrwt>
<pdfrwt beam="2">  1       21 0.15504299E-03 0.76277120E+01</pdfrwt>
<totfact> 0.44785929E+08</totfact>
</mgrwt>
</event>
<event>
 4    1  0.4039863E+006  0.4823588E+01  0.7546771E-02  0.2599434E+00
         21   -1    0    0  503  502  0.00000000000E+00  0.00000000000E+00  0.12799975524E+00  0.12799975524E+00  0.00000000000E+00 0.  1.
         21   -1    0    0  501  503 -0.00000000000E+00 -0.00000000000E+00 -0.23035349093E+03  0.23035349093E+03  0.00000000000E+00 0. -1.
          5    1    1    2  501    0  0.92191426966E+00 -0.57190371911E+00 -0.16803472839E+03  0.16810394684E+03  0.47000000000E+01 0. -1.
         -5    1    1    2    0  502 -0.92191426966E+00  0.57190371911E+00 -0.62190762789E+02  0.62377543844E+02  0.47000000000E+01 0.  1.
<mgrwt>
<rscale>  2 0.48235879E+01</rscale>
<asrwt>0</asrwt>
<pdfrwt beam="1">  1       21 0.19692199E-04 0.48235879E+01</pdfrwt>
<pdfrwt beam="2">  1       21 0.35439126E-01 0.48235879E+01</pdfrwt>
<totfact> 0.24441183E+09</totfact>
</mgrwt>
</event>
<event>
 4    1  0.4039863E+006  0.5862109E+01  0.7546771E-02  0.2433723E+00
         21   -1    0    0  503  502  0.00000000000E+00  0.00000000000E+00  0.77288756110E+01  0.77288756110E+01  0.00000000000E+00 0. -1.
         21   -1    0    0  501  503 -0.00000000000E+00 -0.00000000000E+00 -0.73337206647E+01  0.73337206647E+01  0.00000000000E+00 0.  1.
          5    1    1    2  501    0 -0.35006700502E+01 -0.14012437247E+00 -0.45281456532E+01  0.74073226402E+01  0.47000000000E+01 0.  1.
         -5    1    1    2    0  502  0.35006700502E+01  0.14012437247E+00  0.49233005995E+01  0.76552736354E+01  0.47000000000E+01 0. -1.
<mgrwt>
<rscale>  2 0.58621093E+01</rscale>
<asrwt>0</asrwt>
<pdfrwt beam="1">  1       21 0.11890578E-02 0.58621093E+01</pdfrwt>
<pdfrwt beam="2">  1       21 0.11282647E-02 0.58621093E+01</pdfrwt>
<totfact> 0.20415253E+09</totfact>
</mgrwt>
</event>
<event>
 4    1  0.4039863E+006  0.6480633E+01  0.7546771E-02  0.2356773E+00
         21   -1    0    0  501  502  0.00000000000E+00  0.00000000000E+00  0.44935349954E+03  0.44935349954E+03  0.00000000000E+00 0. -1.
         21   -1    0    0  502  503 -0.00000000000E+00 -0.00000000000E+00 -0.95725922161E-01  0.95725922161E-01  0.00000000000E+00 0.  1.
          5    1    1    2  501    0  0.19402946857E+01  0.40179427607E+01  0.19008866557E+03  0.19019910459E+03  0.47000000000E+01 0.  1.
         -5    1    1    2    0  503 -0.19402946857E+01 -0.40179427607E+01  0.25916910805E+03  0.25925012088E+03  0.47000000000E+01 0. -1.
<mgrwt>
<rscale>  2 0.64806333E+01</rscale>
<asrwt>0</asrwt>
<pdfrwt beam="1">  1       21 0.69129619E-01 0.64806333E+01</pdfrwt>
<pdfrwt beam="2">  1       21 0.14727425E-04 0.64806333E+01</pdfrwt>
<totfact> 0.13758243E+09</totfact>
</mgrwt>
</event>
<event>
 4    1  0.4039863E+006  0.5891275E+01  0.7546771E-02  0.2429793E+00
         21   -1    0    0  501  502  0.00000000000E+00  0.00000000000E+00  0.33391335416E+00  0.33391335416E+00  0.00000000000E+00 0. -1.
         21   -1    0    0  502  503 -0.00000000000E+00 -0.00000000000E+00 -0.11939300468E+03  0.11939300468E+03  0.00000000000E+00 0.  1.
          5    1    1    2  501    0  0.16315602991E+01  0.31551754104E+01 -0.37993209922E+02  0.38447251151E+02  0.47000000000E+01 0. -1.
         -5    1    1    2    0  503 -0.16315602991E+01 -0.31551754104E+01 -0.81065881408E+02  0.81279666887E+02  0.47000000000E+01 0.  1.
<mgrwt>
<rscale>  2 0.58912750E+01</rscale>
<asrwt>0</asrwt>
<pdfrwt beam="1">  1       21 0.51371286E-04 0.58912750E+01</pdfrwt>
<pdfrwt beam="2">  1       21 0.18368154E-01 0.58912750E+01</pdfrwt>
<totfact> 0.23982210E+09</totfact>
</mgrwt>
</event>
<event>
 4    1  0.4039863E+006  0.5742288E+01  0.7546771E-02  0.2450222E+00
         21   -1    0    0  501  502  0.00000000000E+00  0.00000000000E+00  0.71785497243E+00  0.71785497243E+00  0.00000000000E+00 0. -1.
         21   -1    0    0  502  503 -0.00000000000E+00 -0.00000000000E+00 -0.18432026880E+03  0.18432026880E+03  0.00000000000E+00 0.  1.
          5    1    1    2  501    0  0.32672735978E+01 -0.45694514979E+00 -0.11634999845E+02  0.12974864046E+02  0.47000000000E+01 0. -1.
         -5    1    1    2    0  503 -0.32672735978E+01  0.45694514979E+00 -0.17196741398E+03  0.17206325972E+03  0.47000000000E+01 0.  1.
<mgrwt>
<rscale>  2 0.57422884E+01</rscale>
<asrwt>0</asrwt>
<pdfrwt beam="1">  1       21 0.11043915E-03 0.57422884E+01</pdfrwt>
<pdfrwt beam="2">  1       21 0.28356985E-01 0.57422884E+01</pdfrwt>
<totfact> 0.41547822E+08</totfact>
</mgrwt>
</event>
<event>
 4    1  0.4039863E+006  0.6567432E+01  0.7546771E-02  0.2346946E+00
         21   -1    0    0  501  502  0.00000000000E+00  0.00000000000E+00  0.10160043933E+03  0.10160043933E+03  0.00000000000E+00 0.  1.
         21   -1    0    0  502  503 -0.00000000000E+00 -0.00000000000E+00 -0.47512942169E+00  0.47512942169E+00  0.00000000000E+00 0.  1.
          5    1    1    2  501    0  0.44986357261E+01 -0.89634724892E+00  0.67220253039E+02  0.67540310781E+02  0.47000000000E+01 0.  1.
         -5    1    1    2    0  503 -0.44986357261E+01  0.89634724892E+00  0.33905056874E+02  0.34535257975E+02  0.47000000000E+01 0.  1.
<mgrwt>
<rscale>  2 0.65674319E+01</rscale>
<asrwt>0</asrwt>
<pdfrwt beam="1">  1       21 0.15630820E-01 0.65674319E+01</pdfrwt>
<pdfrwt beam="2">  1       21 0.73096915E-04 0.65674319E+01</pdfrwt>
<totfact> 0.21108626E+09</totfact>
</mgrwt>
</event>
<event>
 4    1  0.4039863E+006  0.1060964E+02  0.7546771E-02  0.2041867E+00
         21   -1    0    0  503  502  0.00000000000E+00  0.00000000000E+00  0.27662471514E+01  0.27662471514E+01  0.00000000000E+00 0. -1.
         21   -1    0    0  501  503 -0.00000000000E+00 -0.00000000000E+00 -0.51462088142E+02  0.51462088142E+02  0.00000000000E+00 0.  1.
          5    1    1    2  501    0 -0.94930160844E+01 -0.59766439945E+00 -0.36751844130E+02  0.38252615650E+02  0.47000000000E+01 0.  1.
         -5    1    1    2    0  502  0.94930160844E+01  0.59766439945E+00 -0.11943996860E+02  0.15975719643E+02  0.47000000000E+01 0. -1.
<mgrwt>
<rscale>  2 0.10609645E+02</rscale>
<asrwt>0</asrwt>
<pdfrwt beam="1">  1       21 0.42557651E-03 0.10609645E+02</pdfrwt>
<pdfrwt beam="2">  1       21 0.79172439E-02 0.10609645E+02</pdfrwt>
<totfact> 0.73856339E+08</totfact>
</mgrwt>
</event>
<event>
 4    1  0.4039863E+006  0.4861402E+01  0.7546771E-02  0.2592344E+00
         21   -1    0    0  501  502  0.00000000000E+00  0.00000000000E+00  0.58892876078E+01  0.58892876078E+01  0.00000000000E+00 0. -1.
         21   -1    0    0  502  503 -0.00000000000E+00 -0.00000000000E+00 -0.10100537263E+02  0.10100537263E+02  0.00000000000E+00 0. -1.
          5    1    1    2  501    0 -0.12147836626E+01  0.25987223345E+00  0.41011385201E+01  0.63602334930E+01  0.47000000000E+01 0. -1.
         -5    1    1    2    0  503  0.12147836626E+01 -0.25987223345E+00 -0.83123881750E+01  0.96295913775E+01  0.47000000000E+01 0. -1.
<mgrwt>
<rscale>  2 0.48614024E+01</rscale>
<asrwt>0</asrwt>
<pdfrwt beam="1">  1       21 0.90604426E-03 0.48614024E+01</pdfrwt>
<pdfrwt beam="2">  1       21 0.15539288E-02 0.48614024E+01</pdfrwt>
<totfact> 0.15953318E+09</totfact>
</mgrwt>
</event>
<event>
 4    1  0.4039863E+006  0.9433485E+01  0.7546771E-02  0.2108739E+00
         21   -1    0    0  501  502  0.00000000000E+00  0.00000000000E+00  0.19327682293E+01  0.19327682293E+01  0.00000000000E+00 0.  1.
         21   -1    0    0  502  503 -0.00000000000E+00 -0.00000000000E+00 -0.15622390408E+03  0.15622390408E+03  0.00000000000E+00 0. -1.
          5    1    1    2  501    0  0.29472839104E+01  0.76298197363E+01 -0.10735066750E+02  0.14290986312E+02  0.47000000000E+01 0.  1.
         -5    1    1    2    0  503 -0.29472839104E+01 -0.76298197363E+01 -0.14355606910E+03  0.14386568600E+03  0.47000000000E+01 0. -1.
<mgrwt>
<rscale>  2 0.94334846E+01</rscale>
<asrwt>0</asrwt>
<pdfrwt beam="1">  1       21 0.29734899E-03 0.94334846E+01</pdfrwt>
<pdfrwt beam="2">  1       21 0.24034444E-01 0.94334846E+01</pdfrwt>
<totfact> 0.18982626E+08</totfact>
</mgrwt>
</event>
<event>
 4    1  0.4039863E+006  0.5855838E+01  0.7546771E-02  0.2434573E+00
         21   -1    0    0  501  502  0.00000000000E+00  0.00000000000E+00  0.35565028663E+02  0.35565028663E+02  0.00000000000E+00 0.  1.
         21   -1    0    0  502  503 -0.00000000000E+00 -0.00000000000E+00 -0.10266127890E+01  0.10266127890E+01  0.00000000000E+00 0. -1.
          5    1    1    2  501    0 -0.49257630305E+00 -0.34580634680E+01  0.21781319850E+02  0.22554749583E+02  0.47000000000E+01 0.  1.
         -5    1    1    2    0  503  0.49257630305E+00  0.34580634680E+01  0.12757096024E+02  0.14036891868E+02  0.47000000000E+01 0. -1.
<mgrwt>
<rscale>  2 0.58558376E+01</rscale>
<asrwt>0</asrwt>
<pdfrwt beam="1">  1       21 0.54715419E-02 0.58558376E+01</pdfrwt>
<pdfrwt beam="2">  1       21 0.15794046E-03 0.58558376E+01</pdfrwt>
<totfact> 0.33967003E+09</totfact>
</mgrwt>
</event>
<event>
 4    1  0.4039863E+006  0.5019429E+01  0.7546771E-02  0.2563719E+00
         21   -1    0    0  501  502  0.00000000000E+00  0.00000000000E+00  0.13243370849E+01  0.13243370849E+01  0.00000000000E+00 0.  1.
         21   -1    0    0  502  503 -0.00000000000E+00 -0.00000000000E+00 -0.29589666397E+02  0.29589666397E+02  0.00000000000E+00 0.  1.
          5    1    1    2  501    0 -0.17160323747E+01  0.39987735465E+00 -0.48964032792E+01  0.70120919904E+01  0.47000000000E+01 0.  1.
         -5    1    1    2    0  503  0.17160323747E+01 -0.39987735465E+00 -0.23368926032E+02  0.23901911491E+02  0.47000000000E+01 0.  1.
<mgrwt>
<rscale>  2 0.50194292E+01</rscale>
<asrwt>0</asrwt>
<pdfrwt beam="1">  1       21 0.20374417E-03 0.50194292E+01</pdfrwt>
<pdfrwt beam="2">  1       21 0.45522564E-02 0.50194292E+01</pdfrwt>
<totfact> 0.27287105E+09</totfact>
</mgrwt>
</event>
<event>
 4    1  0.4039863E+006  0.4852372E+01  0.7546771E-02  0.2594029E+00
         21   -1    0    0  501  502  0.00000000000E+00  0.00000000000E+00  0.66965796054E+02  0.66965796054E+02  0.00000000000E+00 0. -1.
         21   -1    0    0  502  503 -0.00000000000E+00 -0.00000000000E+00 -0.66540257015E+00  0.66540257015E+00  0.00000000000E+00 0. -1.
          5    1    1    2  501    0  0.36836434312E+00  0.11488337576E+01  0.56372196351E+02  0.56580650692E+02  0.47000000000E+01 0. -1.
         -5    1    1    2    0  503 -0.36836434312E+00 -0.11488337576E+01  0.99281971326E+01  0.11050547932E+02  0.47000000000E+01 0. -1.
<mgrwt>
<rscale>  2 0.48523717E+01</rscale>
<asrwt>0</asrwt>
<pdfrwt beam="1">  1       21 0.10302425E-01 0.48523717E+01</pdfrwt>
<pdfrwt beam="2">  1       21 0.10236968E-03 0.48523717E+01</pdfrwt>
<totfact> 0.19719778E+09</totfact>
</mgrwt>
</event>
<event>
 4    1  0.4039863E+006  0.5669964E+01  0.7546771E-02  0.2460465E+00
         21   -1    0    0  501  502  0.00000000000E+00  0.00000000000E+00  0.78654780109E+01  0.78654780109E+01  0.00000000000E+00 0. -1.
         21   -1    0    0  502  503 -0.00000000000E+00 -0.00000000000E+00 -0.41496642899E+01  0.41496642899E+01  0.00000000000E+00 0.  1.
          5    1    1    2  501    0  0.28996922842E+01  0.12846301543E+01  0.25944447457E+01  0.62353535196E+01  0.47000000000E+01 0. -1.
         -5    1    1    2    0  503 -0.28996922842E+01 -0.12846301543E+01  0.11213689753E+01  0.57797887812E+01  0.47000000000E+01 0. -1.
<mgrwt>
<rscale>  2 0.56699638E+01</rscale>
<asrwt>0</asrwt>
<pdfrwt beam="1">  1       21 0.12100735E-02 0.56699638E+01</pdfrwt>
<pdfrwt beam="2">  1       21 0.63840989E-03 0.56699638E+01</pdfrwt>
<totfact> 0.42942611E+09</totfact>
</mgrwt>
</event>
<event>
 4    1  0.4039863E+006  0.7624546E+01  0.7546771E-02  0.2242286E+00
         21   -1    0    0  501  502  0.00000000000E+00  0.00000000000E+00  0.11629451999E+01  0.11629451999E+01  0.00000000000E+00 0.  1.
         21   -1    0    0  502  503 -0.00000000000E+00 -0.00000000000E+00 -0.51461999006E+02  0.51461999006E+02  0.00000000000E+00 0. -1.
          5    1    1    2  501    0 -0.28724240176E+01  0.52718959924E+01 -0.20696903791E+02  0.22056643752E+02  0.47000000000E+01 0.  1.
         -5    1    1    2    0  503  0.28724240176E+01 -0.52718959924E+01 -0.29602150015E+02  0.30568300454E+02  0.47000000000E+01 0. -1.
<mgrwt>
<rscale>  2 0.76245464E+01</rscale>
<asrwt>0</asrwt>
<pdfrwt beam="1">  1       21 0.17891459E-03 0.76245464E+01</pdfrwt>
<pdfrwt beam="2">  1       21 0.79172329E-02 0.76245464E+01</pdfrwt>
<totfact> 0.20243508E+09</totfact>
</mgrwt>
</event>
<event>
 4    1  0.4039863E+006  0.7590008E+01  0.7546771E-02  0.2245326E+00
         21   -1    0    0  503  502  0.00000000000E+00  0.00000000000E+00  0.19493140657E+01  0.19493140657E+01  0.00000000000E+00 0. -1.
         21   -1    0    0  501  503 -0.00000000000E+00 -0.00000000000E+00 -0.31858949793E+02  0.31858949793E+02  0.00000000000E+00 0. -1.
          5    1    1    2  501    0 -0.55149246248E+01 -0.22591661864E+01 -0.10407084716E+02  0.12880824421E+02  0.47000000000E+01 0. -1.
         -5    1    1    2    0  502  0.55149246248E+01  0.22591661864E+01 -0.19502551011E+02  0.20927439437E+02  0.47000000000E+01 0. -1.
<mgrwt>
<rscale>  2 0.75900083E+01</rscale>
<asrwt>0</asrwt>
<pdfrwt beam="1">  1       21 0.29989449E-03 0.75900083E+01</pdfrwt>
<pdfrwt beam="2">  1       21 0.49013766E-02 0.75900083E+01</pdfrwt>
<totfact> 0.20483329E+09</totfact>
</mgrwt>
</event>
<event>
 4    1  0.4039863E+006  0.4979446E+01  0.7546771E-02  0.2570813E+00
         21   -1    0    0  501  502  0.00000000000E+00  0.00000000000E+00  0.20209862418E+01  0.20209862418E+01  0.00000000000E+00 0. -1.
         21   -1    0    0  502  503 -0.00000000000E+00 -0.00000000000E+00 -0.16007101953E+02  0.16007101953E+02  0.00000000000E+00 0. -1.
          5    1    1    2  501    0 -0.43909275937E+00 -0.15849544090E+01 -0.26368754071E+01  0.56345359030E+01  0.47000000000E+01 0. -1.
         -5    1    1    2    0  503  0.43909275937E+00  0.15849544090E+01 -0.11349240305E+02  0.12393552292E+02  0.47000000000E+01 0. -1.
<mgrwt>
<rscale>  2 0.49794460E+01</rscale>
<asrwt>0</asrwt>
<pdfrwt beam="1">  1       21 0.31092098E-03 0.49794460E+01</pdfrwt>
<pdfrwt beam="2">  1       21 0.24626309E-02 0.49794460E+01</pdfrwt>
<totfact> 0.37026295E+09</totfact>
</mgrwt>
</event>
<event>
 4    1  0.4039863E+006  0.4756938E+01  0.7546771E-02  0.2612168E+00
         21   -1    0    0  501  502  0.00000000000E+00  0.00000000000E+00  0.28153778019E+02  0.28153778019E+02  0.00000000000E+00 0. -1.
         21   -1    0    0  502  503 -0.00000000000E+00 -0.00000000000E+00 -0.13938314949E+01  0.13938314949E+01  0.00000000000E+00 0. -1.
          5    1    1    2  501    0 -0.69893485688E+00 -0.22348319099E+00  0.22992666954E+02  0.23479590889E+02  0.47000000000E+01 0. -1.
         -5    1    1    2    0  503  0.69893485688E+00  0.22348319099E+00  0.37672795705E+01  0.60680186250E+01  0.47000000000E+01 0. -1.
<mgrwt>
<rscale>  2 0.47569375E+01</rscale>
<asrwt>0</asrwt>
<pdfrwt beam="1">  1       21 0.43313500E-02 0.47569375E+01</pdfrwt>
<pdfrwt beam="2">  1       21 0.21443564E-03 0.47569375E+01</pdfrwt>
<totfact> 0.25920584E+09</totfact>
</mgrwt>
</event>
<event>
 4    1  0.4039863E+006  0.5333011E+01  0.7546771E-02  0.2511265E+00
         21   -1    0    0  503  502  0.00000000000E+00  0.00000000000E+00  0.19962639339E+03  0.19962639339E+03  0.00000000000E+00 0.  1.
         21   -1    0    0  501  503 -0.00000000000E+00 -0.00000000000E+00 -0.17345558186E+00  0.17345558186E+00  0.00000000000E+00 0. -1.
          5    1    1    2  501    0 -0.75006345961E+00 -0.24059110818E+01  0.57504086368E+02  0.57750852395E+02  0.47000000000E+01 0. -1.
         -5    1    1    2    0  502  0.75006345961E+00  0.24059110818E+01  0.14194885144E+03  0.14204899658E+03  0.47000000000E+01 0.  1.
<mgrwt>
<rscale>  2 0.53330107E+01</rscale>
<asrwt>0</asrwt>
<pdfrwt beam="1">  1       21 0.30711569E-01 0.53330107E+01</pdfrwt>
<pdfrwt beam="2">  1       21 0.26685634E-04 0.53330107E+01</pdfrwt>
<totfact> 0.22755811E+09</totfact>
</mgrwt>
</event>
<event>
 4    1  0.4039863E+006  0.7188634E+01  0.7546771E-02  0.2282387E+00
         21   -1    0    0  501  502  0.00000000000E+00  0.00000000000E+00  0.31388299284E+01  0.31388299284E+01  0.00000000000E+00 0.  1.
         21   -1    0    0  502  503 -0.00000000000E+00 -0.00000000000E+00 -0.20001277877E+02  0.20001277877E+02  0.00000000000E+00 0.  1.
          5    1    1    2  501    0 -0.46386708795E+01 -0.28406321424E+01 -0.35653002191E+01  0.80242023996E+01  0.47000000000E+01 0.  1.
         -5    1    1    2    0  503  0.46386708795E+01  0.28406321424E+01 -0.13297147729E+02  0.15115905406E+02  0.47000000000E+01 0.  1.
<mgrwt>
<rscale>  2 0.71886340E+01</rscale>
<asrwt>0</asrwt>
<pdfrwt beam="1">  1       21 0.48289692E-03 0.71886340E+01</pdfrwt>
<pdfrwt beam="2">  1       21 0.30771196E-02 0.71886340E+01</pdfrwt>
<totfact> 0.20214621E+09</totfact>
</mgrwt>
</event>
<event>
 4    1  0.4039863E+006  0.5577387E+01  0.7546771E-02  0.2473903E+00
         21   -1    0    0  501  502  0.00000000000E+00  0.00000000000E+00  0.12719454564E+02  0.12719454564E+02  0.00000000000E+00 0.  1.
         21   -1    0    0  502  503 -0.00000000000E+00 -0.00000000000E+00 -0.56527153118E+01  0.56527153118E+01  0.00000000000E+00 0.  1.
          5    1    1    2  501    0  0.19204848832E+01  0.23084586559E+01  0.10452575996E+02  0.11847514022E+02  0.47000000000E+01 0.  1.
         -5    1    1    2    0  503 -0.19204848832E+01 -0.23084586559E+01 -0.33858367438E+01  0.65246558536E+01  0.47000000000E+01 0.  1.
<mgrwt>
<rscale>  2 0.55773868E+01</rscale>
<asrwt>0</asrwt>
<pdfrwt beam="1">  1       21 0.19568392E-02 0.55773868E+01</pdfrwt>
<pdfrwt beam="2">  1       21 0.86964851E-03 0.55773868E+01</pdfrwt>
<totfact> 0.13885617E+09</totfact>
</mgrwt>
</event>
<event>
 4    1  0.4039863E+006  0.5177311E+01  0.7546771E-02  0.2536629E+00
         21   -1    0    0  503  502  0.00000000000E+00  0.00000000000E+00  0.24010636902E+03  0.24010636902E+03  0.00000000000E+00 0. -1.
         21   -1    0    0  501  503 -0.00000000000E+00 -0.00000000000E+00 -0.12716932530E+00  0.12716932530E+00  0.00000000000E+00 0.  1.
          5    1    1    2  501    0 -0.20366710187E+01  0.75267224073E+00  0.16196964937E+03  0.16205237382E+03  0.47000000000E+01 0. -1.
         -5    1    1    2    0  502  0.20366710187E+01 -0.75267224073E+00  0.78009550327E+02  0.78181164526E+02  0.47000000000E+01 0.  1.
<mgrwt>
<rscale>  2 0.51773105E+01</rscale>
<asrwt>0</asrwt>
<pdfrwt beam="1">  1       21 0.36939079E-01 0.51773105E+01</pdfrwt>
<pdfrwt beam="2">  1       21 0.19564704E-04 0.51773105E+01</pdfrwt>
<totfact> 0.24502657E+09</totfact>
</mgrwt>
</event>
<event>
 4    1  0.4039863E+006  0.5027495E+01  0.7546771E-02  0.2562299E+00
         21   -1    0    0  503  502  0.00000000000E+00  0.00000000000E+00  0.30430045494E-01  0.30430045494E-01  0.00000000000E+00 0. -1.
         21   -1    0    0  501  503 -0.00000000000E+00 -0.00000000000E+00 -0.16966844025E+04  0.16966844025E+04  0.00000000000E+00 0.  1.
          5    1    1    2  501    0 -0.14946902575E+01 -0.97550514888E+00 -0.14544408321E+04  0.14544495212E+04  0.47000000000E+01 0.  1.
         -5    1    1    2    0  502  0.14946902575E+01  0.97550514888E+00 -0.24221314034E+03  0.24226531131E+03  0.47000000000E+01 0. -1.
<mgrwt>
<rscale>  2 0.50274953E+01</rscale>
<asrwt>0</asrwt>
<pdfrwt beam="1">  1       21 0.46804871E-05 0.50274953E+01</pdfrwt>
<pdfrwt beam="2">  1       21 0.26108739E+00 0.50274953E+01</pdfrwt>
<totfact> 0.33153790E+08</totfact>
</mgrwt>
</event>
<event>
 4    1  0.4039863E+006  0.6531419E+01  0.7546771E-02  0.2350997E+00
         21   -1    0    0  503  502  0.00000000000E+00  0.00000000000E+00  0.11774549921E+02  0.11774549921E+02  0.00000000000E+00 0.  1.
         21   -1    0    0  501  503 -0.00000000000E+00 -0.00000000000E+00 -0.10300279865E+02  0.10300279865E+02  0.00000000000E+00 0. -1.
          5    1    1    2  501    0  0.37837563072E+01 -0.25005236483E+01 -0.81495951326E+01  0.10443913593E+02  0.47000000000E+01 0. -1.
         -5    1    1    2    0  502 -0.37837563072E+01  0.25005236483E+01  0.96238651894E+01  0.11630916193E+02  0.47000000000E+01 0.  1.
<mgrwt>
<rscale>  2 0.65314187E+01</rscale>
<asrwt>0</asrwt>
<pdfrwt beam="1">  1       21 0.18114692E-02 0.65314187E+01</pdfrwt>
<pdfrwt beam="2">  1       21 0.15846584E-02 0.65314187E+01</pdfrwt>
<totfact> 0.75441508E+08</totfact>
</mgrwt>
</event>
<event>
 4    1  0.4039863E+006  0.5357264E+01  0.7546771E-02  0.2507428E+00
         21   -1    0    0  503  502  0.00000000000E+00  0.00000000000E+00  0.70028091162E+01  0.70028091162E+01  0.00000000000E+00 0. -1.
         21   -1    0    0  501  503 -0.00000000000E+00 -0.00000000000E+00 -0.41052808744E+01  0.41052808744E+01  0.00000000000E+00 0. -1.
          5    1    1    2  501    0 -0.16303073664E+01 -0.19880573521E+01  0.12212888071E+01  0.54947084085E+01  0.47000000000E+01 0. -1.
         -5    1    1    2    0  502  0.16303073664E+01  0.19880573521E+01  0.16762394347E+01  0.56133815821E+01  0.47000000000E+01 0. -1.
<mgrwt>
<rscale>  2 0.53572637E+01</rscale>
<asrwt>0</asrwt>
<pdfrwt beam="1">  1       21 0.10773553E-02 0.53572637E+01</pdfrwt>
<pdfrwt beam="2">  1       21 0.63158167E-03 0.53572637E+01</pdfrwt>
<totfact> 0.48590216E+09</totfact>
</mgrwt>
</event>
<event>
 4    1  0.4039863E+006  0.6249480E+01  0.7546771E-02  0.2384042E+00
         21   -1    0    0  503  502  0.00000000000E+00  0.00000000000E+00  0.17864648025E+00  0.17864648025E+00  0.00000000000E+00 0. -1.
         21   -1    0    0  501  503 -0.00000000000E+00 -0.00000000000E+00 -0.34845310899E+03  0.34845310899E+03  0.00000000000E+00 0. -1.
          5    1    1    2  501    0 -0.41185612487E+01  0.58783113791E-01 -0.28054041269E+03  0.28061001257E+03  0.47000000000E+01 0. -1.
         -5    1    1    2    0  502  0.41185612487E+01 -0.58783113791E-01 -0.67734049820E+02  0.68021742900E+02  0.47000000000E+01 0. -1.
<mgrwt>
<rscale>  2 0.62494802E+01</rscale>
<asrwt>0</asrwt>
<pdfrwt beam="1">  1       21 0.27484239E-04 0.62494802E+01</pdfrwt>
<pdfrwt beam="2">  1       21 0.53607848E-01 0.62494802E+01</pdfrwt>
<totfact> 0.93697942E+08</totfact>
</mgrwt>
</event>
<event>
 4    1  0.4039863E+006  0.9351808E+01  0.7546771E-02  0.2113869E+00
         21   -1    0    0  503  502  0.00000000000E+00  0.00000000000E+00  0.40247652761E+01  0.40247652761E+01  0.00000000000E+00 0.  1.
         21   -1    0    0  501  503 -0.00000000000E+00 -0.00000000000E+00 -0.11666769303E+03  0.11666769303E+03  0.00000000000E+00 0. -1.
          5    1    1    2  501    0  0.77672490531E+01  0.22441358824E+01 -0.11075859362E+03  0.11115269842E+03  0.47000000000E+01 0. -1.
         -5    1    1    2    0  502 -0.77672490531E+01 -0.22441358824E+01 -0.18843341348E+01  0.95397598944E+01  0.47000000000E+01 0.  1.
<mgrwt>
<rscale>  2 0.93518075E+01</rscale>
<asrwt>0</asrwt>
<pdfrwt beam="1">  1       21 0.61919475E-03 0.93518075E+01</pdfrwt>
<pdfrwt beam="2">  1       21 0.17948873E-01 0.93518075E+01</pdfrwt>
<totfact> 0.10887521E+08</totfact>
</mgrwt>
</event>
<event>
 4    1  0.4039863E+006  0.7111371E+01  0.7546771E-02  0.2289910E+00
         21   -1    0    0  503  502  0.00000000000E+00  0.00000000000E+00  0.11973577797E+01  0.11973577797E+01  0.00000000000E+00 0. -1.
         21   -1    0    0  501  503 -0.00000000000E+00 -0.00000000000E+00 -0.44599903945E+02  0.44599903945E+02  0.00000000000E+00 0. -1.
          5    1    1    2  501    0 -0.16689159115E+01  0.50691534831E+01 -0.26973060804E+02  0.27894759481E+02  0.47000000000E+01 0. -1.
         -5    1    1    2    0  502  0.16689159115E+01 -0.50691534831E+01 -0.16429485362E+02  0.17902502244E+02  0.47000000000E+01 0. -1.
<mgrwt>
<rscale>  2 0.71113710E+01</rscale>
<asrwt>0</asrwt>
<pdfrwt beam="1">  1       21 0.18420888E-03 0.71113710E+01</pdfrwt>
<pdfrwt beam="2">  1       21 0.68615239E-02 0.71113710E+01</pdfrwt>
<totfact> 0.22998235E+09</totfact>
</mgrwt>
</event>
<event>
 4    1  0.4039863E+006  0.1426714E+02  0.7546771E-02  0.1891292E+00
         21   -1    0    0  503  502  0.00000000000E+00  0.00000000000E+00  0.44420963432E+02  0.44420963432E+02  0.00000000000E+00 0.  1.
         21   -1    0    0  501  503 -0.00000000000E+00 -0.00000000000E+00 -0.73621114747E+01  0.73621114747E+01  0.00000000000E+00 0. -1.
          5    1    1    2  501    0 -0.98555500622E+01 -0.91831125949E+01  0.26197208432E+01  0.14505666522E+02  0.47000000000E+01 0. -1.
         -5    1    1    2    0  502  0.98555500622E+01  0.91831125949E+01  0.34439131114E+02  0.37277408385E+02  0.47000000000E+01 0.  1.
<mgrwt>
<rscale>  2 0.14267145E+02</rscale>
<asrwt>0</asrwt>
<pdfrwt beam="1">  1       21 0.68339942E-02 0.14267145E+02</pdfrwt>
<pdfrwt beam="2">  1       21 0.11326326E-02 0.14267145E+02</pdfrwt>
<totfact> 0.25888374E+08</totfact>
</mgrwt>
</event>
<event>
 4    1  0.4039863E+006  0.1307655E+02  0.7546771E-02  0.1933149E+00
         21   -1    0    0  501  502  0.00000000000E+00  0.00000000000E+00  0.74542209753E+02  0.74542209753E+02  0.00000000000E+00 0. -1.
         21   -1    0    0  502  503 -0.00000000000E+00 -0.00000000000E+00 -0.36141326844E+01  0.36141326844E+01  0.00000000000E+00 0.  1.
          5    1    1    2  501    0 -0.12153073312E+02  0.10995139089E+01  0.59082366976E+02  0.60512165795E+02  0.47000000000E+01 0. -1.
         -5    1    1    2    0  503  0.12153073312E+02 -0.10995139089E+01  0.11845710092E+02  0.17644176642E+02  0.47000000000E+01 0.  1.
<mgrwt>
<rscale>  2 0.13076549E+02</rscale>
<asrwt>0</asrwt>
<pdfrwt beam="1">  1       21 0.11468031E-01 0.13076549E+02</pdfrwt>
<pdfrwt beam="2">  1       21 0.55602047E-03 0.13076549E+02</pdfrwt>
<totfact> 0.30801014E+08</totfact>
</mgrwt>
</event>
<event>
 4    1  0.4039863E+006  0.8330015E+01  0.7546771E-02  0.2184692E+00
         21   -1    0    0  503  502  0.00000000000E+00  0.00000000000E+00  0.31702921070E+03  0.31702921070E+03  0.00000000000E+00 0.  1.
         21   -1    0    0  501  503 -0.00000000000E+00 -0.00000000000E+00 -0.23318870384E+00  0.23318870384E+00  0.00000000000E+00 0.  1.
          5    1    1    2  501    0 -0.64629694462E+01  0.23514183912E+01  0.19770237928E+03  0.19787779036E+03  0.47000000000E+01 0.  1.
         -5    1    1    2    0  502  0.64629694462E+01 -0.23514183912E+01  0.11909364271E+03  0.11938460905E+03  0.47000000000E+01 0.  1.
<mgrwt>
<rscale>  2 0.83300146E+01</rscale>
<asrwt>0</asrwt>
<pdfrwt beam="1">  1       21 0.48773380E-01 0.83300146E+01</pdfrwt>
<pdfrwt beam="2">  1       21 0.35875439E-04 0.83300146E+01</pdfrwt>
<totfact> 0.93594000E+08</totfact>
</mgrwt>
</event>
<event>
 4    1  0.4039863E+006  0.4913952E+01  0.7546771E-02  0.2582649E+00
         21   -1    0    0  503  502  0.00000000000E+00  0.00000000000E+00  0.80653256515E+01  0.80653256515E+01  0.00000000000E+00 0. -1.
         21   -1    0    0  501  503 -0.00000000000E+00 -0.00000000000E+00 -0.29942065168E+01  0.29942065168E+01  0.00000000000E+00 0. -1.
          5    1    1    2  501    0  0.66931729611E+00  0.12684379561E+01  0.24812413630E+01  0.55048595979E+01  0.47000000000E+01 0.  1.
         -5    1    1    2    0  502 -0.66931729611E+00 -0.12684379561E+01  0.25898777718E+01  0.55546725704E+01  0.47000000000E+01 0.  1.
<mgrwt>
<rscale>  2 0.49139516E+01</rscale>
<asrwt>0</asrwt>
<pdfrwt beam="1">  1       21 0.12408193E-02 0.49139516E+01</pdfrwt>
<pdfrwt beam="2">  1       21 0.46064716E-03 0.49139516E+01</pdfrwt>
<totfact> 0.56229229E+09</totfact>
</mgrwt>
</event>
<event>
 4    1  0.4039863E+006  0.5316480E+01  0.7546771E-02  0.2513897E+00
         21   -1    0    0  501  502  0.00000000000E+00  0.00000000000E+00  0.13751556363E+00  0.13751556363E+00  0.00000000000E+00 0.  1.
         21   -1    0    0  502  503 -0.00000000000E+00 -0.00000000000E+00 -0.23131398538E+03  0.23131398538E+03  0.00000000000E+00 0. -1.
          5    1    1    2  501    0  0.20510604776E+01 -0.14028939930E+01 -0.76958730816E+02  0.77142149371E+02  0.47000000000E+01 0.  1.
         -5    1    1    2    0  503 -0.20510604776E+01  0.14028939930E+01 -0.15421773900E+03  0.15430935157E+03  0.47000000000E+01 0. -1.
<mgrwt>
<rscale>  2 0.53164801E+01</rscale>
<asrwt>0</asrwt>
<pdfrwt beam="1">  1       21 0.21156447E-04 0.53164801E+01</pdfrwt>
<pdfrwt beam="2">  1       21 0.35586420E-01 0.53164801E+01</pdfrwt>
<totfact> 0.24089683E+09</totfact>
</mgrwt>
</event>
<event>
 4    1  0.4039863E+006  0.4976371E+01  0.7546771E-02  0.2571363E+00
         21   -1    0    0  501  502  0.00000000000E+00  0.00000000000E+00  0.14076889604E-01  0.14076889604E-01  0.00000000000E+00 0.  1.
         21   -1    0    0  502  503 -0.00000000000E+00 -0.00000000000E+00 -0.19151645469E+04  0.19151645469E+04  0.00000000000E+00 0. -1.
          5    1    1    2  501    0  0.14292794110E+01  0.79462463882E+00 -0.12308308112E+04  0.12308408711E+04  0.47000000000E+01 0. -1.
         -5    1    1    2    0  503 -0.14292794110E+01 -0.79462463882E+00 -0.68431965882E+03  0.68433775266E+03  0.47000000000E+01 0.  1.
<mgrwt>
<rscale>  2 0.49763710E+01</rscale>
<asrwt>0</asrwt>
<pdfrwt beam="1">  1       21 0.21667522E-05 0.49763710E+01</pdfrwt>
<pdfrwt beam="2">  1       21 0.29449427E+00 0.49763710E+01</pdfrwt>
<totfact> 0.71307077E+08</totfact>
</mgrwt>
</event>
<event>
 4    1  0.4039863E+006  0.9525353E+01  0.7546771E-02  0.2103051E+00
         21   -1    0    0  501  502  0.00000000000E+00  0.00000000000E+00  0.11230458898E+01  0.11230458898E+01  0.00000000000E+00 0. -1.
         21   -1    0    0  502  503 -0.00000000000E+00 -0.00000000000E+00 -0.10414255666E+03  0.10414255666E+03  0.00000000000E+00 0.  1.
          5    1    1    2  501    0  0.39302266156E+01 -0.72935362907E+01 -0.76432586121E+02  0.77023844191E+02  0.47000000000E+01 0.  1.
         -5    1    1    2    0  503 -0.39302266156E+01  0.72935362907E+01 -0.26586924648E+02  0.28241758357E+02  0.47000000000E+01 0. -1.
<mgrwt>
<rscale>  2 0.95253532E+01</rscale>
<asrwt>0</asrwt>
<pdfrwt beam="1">  1       21 0.17277621E-03 0.95253532E+01</pdfrwt>
<pdfrwt beam="2">  1       21 0.16021940E-01 0.95253532E+01</pdfrwt>
<totfact> 0.80079511E+08</totfact>
</mgrwt>
</event>
<event>
 4    1  0.4039863E+006  0.1111473E+02  0.7546771E-02  0.2016596E+00
         21   -1    0    0  503  502  0.00000000000E+00  0.00000000000E+00  0.62822818048E+02  0.62822818048E+02  0.00000000000E+00 0.  1.
         21   -1    0    0  501  503 -0.00000000000E+00 -0.00000000000E+00 -0.21624205798E+01  0.21624205798E+01  0.00000000000E+00 0. -1.
          5    1    1    2  501    0 -0.10054448247E+02 -0.59612626035E+00  0.20548342655E+02  0.23361756825E+02  0.47000000000E+01 0.  1.
         -5    1    1    2    0  502  0.10054448247E+02  0.59612626035E+00  0.40112054813E+02  0.41623481803E+02  0.47000000000E+01 0. -1.
<mgrwt>
<rscale>  2 0.11114733E+02</rscale>
<asrwt>0</asrwt>
<pdfrwt beam="1">  1       21 0.96650475E-02 0.11114733E+02</pdfrwt>
<pdfrwt beam="2">  1       21 0.33268014E-03 0.11114733E+02</pdfrwt>
<totfact> 0.78394816E+08</totfact>
</mgrwt>
</event>
<event>
 4    1  0.4039863E+006  0.7184322E+01  0.7546771E-02  0.2282803E+00
         21   -1    0    0  503  502  0.00000000000E+00  0.00000000000E+00  0.26991545797E+01  0.26991545797E+01  0.00000000000E+00 0. -1.
         21   -1    0    0  501  503 -0.00000000000E+00 -0.00000000000E+00 -0.79980656474E+02  0.79980656474E+02  0.00000000000E+00 0.  1.
          5    1    1    2  501    0 -0.49170058421E+01  0.23124724799E+01 -0.74701648878E+02  0.75046324497E+02  0.47000000000E+01 0.  1.
         -5    1    1    2    0  502  0.49170058421E+01 -0.23124724799E+01 -0.25798530160E+01  0.76334865563E+01  0.47000000000E+01 0. -1.
<mgrwt>
<rscale>  2 0.71843215E+01</rscale>
<asrwt>0</asrwt>
<pdfrwt beam="1">  1       21 0.41525459E-03 0.71843215E+01</pdfrwt>
<pdfrwt beam="2">  1       21 0.12304715E-01 0.71843215E+01</pdfrwt>
<totfact> 0.30442991E+08</totfact>
</mgrwt>
</event>
<event>
 4    1  0.4039863E+006  0.4798883E+01  0.7546771E-02  0.2604118E+00
         21   -1    0    0  503  502  0.00000000000E+00  0.00000000000E+00  0.64421735243E+02  0.64421735243E+02  0.00000000000E+00 0. -1.
         21   -1    0    0  501  503 -0.00000000000E+00 -0.00000000000E+00 -0.40279600319E+00  0.40279600319E+00  0.00000000000E+00 0. -1.
          5    1    1    2  501    0  0.89210240039E+00 -0.37872664793E+00  0.21137516058E+02  0.21675420773E+02  0.47000000000E+01 0. -1.
         -5    1    1    2    0  502 -0.89210240039E+00  0.37872664793E+00  0.42881423181E+02  0.43149110473E+02  0.47000000000E+01 0. -1.
<mgrwt>
<rscale>  2 0.47988833E+01</rscale>
<asrwt>0</asrwt>
<pdfrwt beam="1">  1       21 0.99110280E-02 0.47988833E+01</pdfrwt>
<pdfrwt beam="2">  1       21 0.61968667E-04 0.47988833E+01</pdfrwt>
<totfact> 0.40175363E+09</totfact>
</mgrwt>
</event>
<event>
 4    1  0.4039863E+006  0.8227468E+01  0.7546771E-02  0.2192568E+00
         21   -1    0    0  501  502  0.00000000000E+00  0.00000000000E+00  0.25606058714E+03  0.25606058714E+03  0.00000000000E+00 0. -1.
         21   -1    0    0  502  503 -0.00000000000E+00 -0.00000000000E+00 -0.26655413971E+00  0.26655413971E+00  0.00000000000E+00 0. -1.
          5    1    1    2  501    0 -0.62021002588E+01 -0.26711758288E+01  0.13953480485E+03  0.13977715475E+03  0.47000000000E+01 0.  1.
         -5    1    1    2    0  503  0.62021002588E+01  0.26711758288E+01  0.11625922815E+03  0.11654998652E+03  0.47000000000E+01 0.  1.
<mgrwt>
<rscale>  2 0.82274679E+01</rscale>
<asrwt>0</asrwt>
<pdfrwt beam="1">  1       21 0.39393740E-01 0.82274679E+01</pdfrwt>
<pdfrwt beam="2">  1       21 0.41008534E-04 0.82274679E+01</pdfrwt>
<totfact> 0.11403842E+09</totfact>
</mgrwt>
</event>
<event>
 4    1  0.4039863E+006  0.5106096E+01  0.7546771E-02  0.2548670E+00
         21   -1    0    0  501  502  0.00000000000E+00  0.00000000000E+00  0.14010084730E+01  0.14010084730E+01  0.00000000000E+00 0.  1.
         21   -1    0    0  502  503 -0.00000000000E+00 -0.00000000000E+00 -0.23565480496E+02  0.23565480496E+02  0.00000000000E+00 0.  1.
          5    1    1    2  501    0 -0.97648266462E+00  0.17403158785E+01 -0.53575797858E+01  0.74010728218E+01  0.47000000000E+01 0.  1.
         -5    1    1    2    0  503  0.97648266462E+00 -0.17403158785E+01 -0.16806892237E+02  0.17565416147E+02  0.47000000000E+01 0.  1.
<mgrwt>
<rscale>  2 0.51060961E+01</rscale>
<asrwt>0</asrwt>
<pdfrwt beam="1">  1       21 0.21553978E-03 0.51060961E+01</pdfrwt>
<pdfrwt beam="2">  1       21 0.36254584E-02 0.51060961E+01</pdfrwt>
<totfact> 0.35813131E+09</totfact>
</mgrwt>
</event>
<event>
 4    1  0.4039863E+006  0.6297901E+01  0.7546771E-02  0.2378192E+00
         21   -1    0    0  503  502  0.00000000000E+00  0.00000000000E+00  0.28501229199E+02  0.28501229199E+02  0.00000000000E+00 0.  1.
         21   -1    0    0  501  503 -0.00000000000E+00 -0.00000000000E+00 -0.31223982525E+01  0.31223982525E+01  0.00000000000E+00 0.  1.
          5    1    1    2  501    0 -0.49905192995E+00  0.41622721060E+01  0.91727983628E+00  0.63643510440E+01  0.47000000000E+01 0.  1.
         -5    1    1    2    0  502  0.49905192995E+00 -0.41622721060E+01  0.24461551110E+02  0.25259276407E+02  0.47000000000E+01 0.  1.
<mgrwt>
<rscale>  2 0.62979014E+01</rscale>
<asrwt>0</asrwt>
<pdfrwt beam="1">  1       21 0.43848043E-02 0.62979014E+01</pdfrwt>
<pdfrwt beam="2">  1       21 0.48036898E-03 0.62979014E+01</pdfrwt>
<totfact> 0.10902751E+09</totfact>
</mgrwt>
</event>
<event>
 4    1  0.4039863E+006  0.4846420E+01  0.7546771E-02  0.2595142E+00
         21   -1    0    0  501  502  0.00000000000E+00  0.00000000000E+00  0.53898197061E+01  0.53898197061E+01  0.00000000000E+00 0. -1.
         21   -1    0    0  502  503 -0.00000000000E+00 -0.00000000000E+00 -0.17502062755E+02  0.17502062755E+02  0.00000000000E+00 0. -1.
          5    1    1    2  501    0  0.30777839067E+00 -0.11415152298E+01  0.38630390957E+01  0.61976492005E+01  0.47000000000E+01 0. -1.
         -5    1    1    2    0  503 -0.30777839067E+00  0.11415152298E+01 -0.15975282144E+02  0.16694233260E+02  0.47000000000E+01 0. -1.
<mgrwt>
<rscale>  2 0.48464198E+01</rscale>
<asrwt>0</asrwt>
<pdfrwt beam="1">  1       21 0.82920303E-03 0.48464198E+01</pdfrwt>
<pdfrwt beam="2">  1       21 0.26926250E-02 0.48464198E+01</pdfrwt>
<totfact> 0.82576898E+08</totfact>
</mgrwt>
</event>
<event>
 4    1  0.4039863E+006  0.4810108E+01  0.7546771E-02  0.2601984E+00
         21   -1    0    0  501  502  0.00000000000E+00  0.00000000000E+00  0.19291245222E-01  0.19291245222E-01  0.00000000000E+00 0. -1.
         21   -1    0    0  502  503 -0.00000000000E+00 -0.00000000000E+00 -0.18355314986E+04  0.18355314986E+04  0.00000000000E+00 0. -1.
          5    1    1    2  501    0  0.98664958276E+00  0.27141026283E+00 -0.37744646336E+03  0.37747711168E+03  0.47000000000E+01 0. -1.
         -5    1    1    2    0  503 -0.98664958276E+00 -0.27141026283E+00 -0.14580657440E+04  0.14580736781E+04  0.47000000000E+01 0. -1.
<mgrwt>
<rscale>  2 0.48101082E+01</rscale>
<asrwt>0</asrwt>
<pdfrwt beam="1">  1       21 0.29668126E-05 0.48101082E+01</pdfrwt>
<pdfrwt beam="2">  1       21 0.28249142E+00 0.48101082E+01</pdfrwt>
<totfact> 0.50203375E+08</totfact>
</mgrwt>
</event>
<event>
 4    1  0.4039863E+006  0.4899462E+01  0.7546771E-02  0.2585304E+00
         21   -1    0    0  501  502  0.00000000000E+00  0.00000000000E+00  0.17424136072E+02  0.17424136072E+02  0.00000000000E+00 0. -1.
         21   -1    0    0  502  503 -0.00000000000E+00 -0.00000000000E+00 -0.25610194183E+01  0.25610194183E+01  0.00000000000E+00 0. -1.
          5    1    1    2  501    0 -0.13836842412E+01 -0.11882373753E-01  0.14224024065E+02  0.15044187710E+02  0.47000000000E+01 0. -1.
         -5    1    1    2    0  503  0.13836842412E+01  0.11882373753E-01  0.63909258963E+00  0.49409677805E+01  0.47000000000E+01 0. -1.
<mgrwt>
<rscale>  2 0.48994615E+01</rscale>
<asrwt>0</asrwt>
<pdfrwt beam="1">  1       21 0.26806363E-02 0.48994615E+01</pdfrwt>
<pdfrwt beam="2">  1       21 0.39400300E-03 0.48994615E+01</pdfrwt>
<totfact> 0.23370458E+09</totfact>
</mgrwt>
</event>
<event>
 4    1  0.4039863E+006  0.1375759E+02  0.7546771E-02  0.1908531E+00
         21   -1    0    0  503  502  0.00000000000E+00  0.00000000000E+00  0.30793721190E+01  0.30793721190E+01  0.00000000000E+00 0.  1.
         21   -1    0    0  501  503 -0.00000000000E+00 -0.00000000000E+00 -0.11404021659E+03  0.11404021659E+03  0.00000000000E+00 0. -1.
          5    1    1    2  501    0 -0.12756013621E+02 -0.21131620075E+01 -0.95242045515E+02  0.96230549053E+02  0.47000000000E+01 0. -1.
         -5    1    1    2    0  502  0.12756013621E+02  0.21131620075E+01 -0.15718798960E+02  0.20889039660E+02  0.47000000000E+01 0.  1.
<mgrwt>
<rscale>  2 0.13757592E+02</rscale>
<asrwt>0</asrwt>
<pdfrwt beam="1">  1       21 0.47374961E-03 0.13757592E+02</pdfrwt>
<pdfrwt beam="2">  1       21 0.17544647E-01 0.13757592E+02</pdfrwt>
<totfact> 0.19640623E+08</totfact>
</mgrwt>
</event>
<event>
 4    1  0.4039863E+006  0.6529700E+01  0.7546771E-02  0.2351191E+00
         21   -1    0    0  501  502  0.00000000000E+00  0.00000000000E+00  0.28883353705E+02  0.28883353705E+02  0.00000000000E+00 0.  1.
         21   -1    0    0  502  503 -0.00000000000E+00 -0.00000000000E+00 -0.17132217415E+01  0.17132217415E+01  0.00000000000E+00 0. -1.
          5    1    1    2  501    0  0.17761462428E+01 -0.41704054687E+01  0.19275561614E+02  0.20351517211E+02  0.47000000000E+01 0.  1.
         -5    1    1    2    0  503 -0.17761462428E+01  0.41704054687E+01  0.78945703497E+01  0.10245058236E+02  0.47000000000E+01 0. -1.
<mgrwt>
<rscale>  2 0.65296996E+01</rscale>
<asrwt>0</asrwt>
<pdfrwt beam="1">  1       21 0.44435925E-02 0.65296996E+01</pdfrwt>
<pdfrwt beam="2">  1       21 0.26357260E-03 0.65296996E+01</pdfrwt>
<totfact> 0.25263136E+09</totfact>
</mgrwt>
</event>
<event>
 4    1  0.4039863E+006  0.5371460E+01  0.7546771E-02  0.2505195E+00
         21   -1    0    0  501  502  0.00000000000E+00  0.00000000000E+00  0.10352482687E+01  0.10352482687E+01  0.00000000000E+00 0. -1.
         21   -1    0    0  502  503 -0.00000000000E+00 -0.00000000000E+00 -0.29717161216E+02  0.29717161216E+02  0.00000000000E+00 0. -1.
          5    1    1    2  501    0 -0.98560564571E+00 -0.24064828593E+01 -0.18174268399E+02  0.18951427653E+02  0.47000000000E+01 0. -1.
         -5    1    1    2    0  503  0.98560564571E+00  0.24064828593E+01 -0.10507644548E+02  0.11800981832E+02  0.47000000000E+01 0. -1.
<mgrwt>
<rscale>  2 0.53714596E+01</rscale>
<asrwt>0</asrwt>
<pdfrwt beam="1">  1       21 0.15926897E-03 0.53714596E+01</pdfrwt>
<pdfrwt beam="2">  1       21 0.45718707E-02 0.53714596E+01</pdfrwt>
<totfact> 0.40412368E+09</totfact>
</mgrwt>
</event>
<event>
 4    1  0.4039863E+006  0.5832335E+01  0.7546771E-02  0.2437770E+00
         21   -1    0    0  503  502  0.00000000000E+00  0.00000000000E+00  0.20324784306E+02  0.20324784306E+02  0.00000000000E+00 0.  1.
         21   -1    0    0  501  503 -0.00000000000E+00 -0.00000000000E+00 -0.23813249867E+01  0.23813249867E+01  0.00000000000E+00 0. -1.
          5    1    1    2  501    0 -0.21853859823E+01  0.26739900502E+01  0.27826372415E+01  0.64621362333E+01  0.47000000000E+01 0. -1.
         -5    1    1    2    0  502  0.21853859823E+01 -0.26739900502E+01  0.15160822078E+02  0.16243973060E+02  0.47000000000E+01 0.  1.
<mgrwt>
<rscale>  2 0.58323353E+01</rscale>
<asrwt>0</asrwt>
<pdfrwt beam="1">  1       21 0.31268898E-02 0.58323353E+01</pdfrwt>
<pdfrwt beam="2">  1       21 0.36635770E-03 0.58323353E+01</pdfrwt>
<totfact> 0.24420043E+09</totfact>
</mgrwt>
</event>
<event>
 4    1  0.4039863E+006  0.6469763E+01  0.7546771E-02  0.2358019E+00
         21   -1    0    0  503  502  0.00000000000E+00  0.00000000000E+00  0.37155381270E+01  0.37155381270E+01  0.00000000000E+00 0. -1.
         21   -1    0    0  501  503 -0.00000000000E+00 -0.00000000000E+00 -0.59640558703E+02  0.59640558703E+02  0.00000000000E+00 0.  1.
          5    1    1    2  501    0  0.29256415064E+01  0.33479039475E+01 -0.56492248223E+02  0.56861515530E+02  0.47000000000E+01 0.  1.
         -5    1    1    2    0  502 -0.29256415064E+01 -0.33479039475E+01  0.56722764660E+00  0.64945813005E+01  0.47000000000E+01 0. -1.
<mgrwt>
<rscale>  2 0.64697634E+01</rscale>
<asrwt>0</asrwt>
<pdfrwt beam="1">  1       21 0.57162131E-03 0.64697634E+01</pdfrwt>
<pdfrwt beam="2">  1       21 0.91754695E-02 0.64697634E+01</pdfrwt>
<totfact> 0.28707091E+08</totfact>
</mgrwt>
</event>
<event>
 4    1  0.4039863E+006  0.5198428E+01  0.7546771E-02  0.2533113E+00
         21   -1    0    0  501  502  0.00000000000E+00  0.00000000000E+00  0.58462546008E+02  0.58462546008E+02  0.00000000000E+00 0. -1.
         21   -1    0    0  502  503 -0.00000000000E+00 -0.00000000000E+00 -0.30860756185E+01  0.30860756185E+01  0.00000000000E+00 0.  1.
          5    1    1    2  501    0 -0.17969268281E+01 -0.13056447839E+01  0.56064385046E+02  0.56304874789E+02  0.47000000000E+01 0. -1.
         -5    1    1    2    0  503  0.17969268281E+01  0.13056447839E+01 -0.68791465676E+00  0.52437468381E+01  0.47000000000E+01 0.  1.
<mgrwt>
<rscale>  2 0.51984281E+01</rscale>
<asrwt>0</asrwt>
<pdfrwt beam="1">  1       21 0.89942370E-02 0.51984281E+01</pdfrwt>
<pdfrwt beam="2">  1       21 0.47478091E-03 0.51984281E+01</pdfrwt>
<totfact> 0.32504483E+08</totfact>
</mgrwt>
</event>
<event>
 4    1  0.4039863E+006  0.1007446E+02  0.7546771E-02  0.2070775E+00
         21   -1    0    0  503  502  0.00000000000E+00  0.00000000000E+00  0.46714696118E+01  0.46714696118E+01  0.00000000000E+00 0.  1.
         21   -1    0    0  501  503 -0.00000000000E+00 -0.00000000000E+00 -0.27650745429E+02  0.27650745429E+02  0.00000000000E+00 0. -1.
          5    1    1    2  501    0  0.81750517969E+01 -0.35458749190E+01 -0.18970197568E+02  0.21479364436E+02  0.47000000000E+01 0. -1.
         -5    1    1    2    0  502 -0.81750517969E+01  0.35458749190E+01 -0.40090782493E+01  0.10842850605E+02  0.47000000000E+01 0.  1.
<mgrwt>
<rscale>  2 0.10074458E+02</rscale>
<asrwt>0</asrwt>
<pdfrwt beam="1">  1       21 0.71868763E-03 0.10074458E+02</pdfrwt>
<pdfrwt beam="2">  1       21 0.42539609E-02 0.10074458E+02</pdfrwt>
<totfact> 0.88459601E+08</totfact>
</mgrwt>
</event>
<event>
 4    1  0.4039863E+006  0.5552205E+01  0.7546771E-02  0.2477624E+00
         21   -1    0    0  501  502  0.00000000000E+00  0.00000000000E+00  0.51302600466E+02  0.51302600466E+02  0.00000000000E+00 0.  1.
         21   -1    0    0  502  503 -0.00000000000E+00 -0.00000000000E+00 -0.28099018427E+01  0.28099018427E+01  0.00000000000E+00 0.  1.
          5    1    1    2  501    0  0.29558131621E+01  0.12100192218E-01  0.48235867877E+02  0.48554360542E+02  0.47000000000E+01 0.  1.
         -5    1    1    2    0  503 -0.29558131621E+01 -0.12100192218E-01  0.25683074673E+00  0.55581417665E+01  0.47000000000E+01 0.  1.
<mgrwt>
<rscale>  2 0.55522048E+01</rscale>
<asrwt>0</asrwt>
<pdfrwt beam="1">  1       21 0.78927071E-02 0.55522048E+01</pdfrwt>
<pdfrwt beam="2">  1       21 0.43229263E-03 0.55522048E+01</pdfrwt>
<totfact> 0.47517782E+08</totfact>
</mgrwt>
</event>
<event>
 4    1  0.4039863E+006  0.6226859E+01  0.7546771E-02  0.2386801E+00
         21   -1    0    0  501  502  0.00000000000E+00  0.00000000000E+00  0.37512591227E+00  0.37512591227E+00  0.00000000000E+00 0. -1.
         21   -1    0    0  502  503 -0.00000000000E+00 -0.00000000000E+00 -0.23024092219E+03  0.23024092219E+03  0.00000000000E+00 0.  1.
          5    1    1    2  501    0 -0.27341418048E+01  0.30345081650E+01 -0.29335023407E+02  0.29988620667E+02  0.47000000000E+01 0. -1.
         -5    1    1    2    0  503  0.27341418048E+01 -0.30345081650E+01 -0.20053077287E+03  0.20062742744E+03  0.47000000000E+01 0.  1.
<mgrwt>
<rscale>  2 0.62268589E+01</rscale>
<asrwt>0</asrwt>
<pdfrwt beam="1">  1       21 0.57711743E-04 0.62268589E+01</pdfrwt>
<pdfrwt beam="2">  1       21 0.35421641E-01 0.62268589E+01</pdfrwt>
<totfact> 0.72149754E+08</totfact>
</mgrwt>
</event>
<event>
 4    1  0.4039863E+006  0.7428911E+01  0.7546771E-02  0.2259809E+00
         21   -1    0    0  503  502  0.00000000000E+00  0.00000000000E+00  0.43218728558E+02  0.43218728558E+02  0.00000000000E+00 0. -1.
         21   -1    0    0  501  503 -0.00000000000E+00 -0.00000000000E+00 -0.83248020438E+01  0.83248020438E+01  0.00000000000E+00 0. -1.
          5    1    1    2  501    0 -0.20861573766E+01  0.53615914788E+01 -0.62659656763E+01  0.97185925752E+01  0.47000000000E+01 0. -1.
         -5    1    1    2    0  502  0.20861573766E+01 -0.53615914788E+01  0.41159892191E+02  0.41824938027E+02  0.47000000000E+01 0. -1.
<mgrwt>
<rscale>  2 0.74289108E+01</rscale>
<asrwt>0</asrwt>
<pdfrwt beam="1">  1       21 0.66490350E-02 0.74289108E+01</pdfrwt>
<pdfrwt beam="2">  1       21 0.12807388E-02 0.74289108E+01</pdfrwt>
<totfact> 0.16335780E+08</totfact>
</mgrwt>
</event>
<event>
 4    1  0.4039863E+006  0.4921044E+01  0.7546771E-02  0.2581354E+00
         21   -1    0    0  503  502  0.00000000000E+00  0.00000000000E+00  0.14176846451E+00  0.14176846451E+00  0.00000000000E+00 0. -1.
         21   -1    0    0  501  503 -0.00000000000E+00 -0.00000000000E+00 -0.99052494524E+03  0.99052494524E+03  0.00000000000E+00 0. -1.
          5    1    1    2  501    0 -0.63177520685E+00  0.13143572249E+01 -0.94579455300E+03  0.94580735520E+03  0.47000000000E+01 0. -1.
         -5    1    1    2    0  502  0.63177520685E+00 -0.13143572249E+01 -0.44588623782E+02  0.44859358506E+02  0.47000000000E+01 0. -1.
<mgrwt>
<rscale>  2 0.49210441E+01</rscale>
<asrwt>0</asrwt>
<pdfrwt beam="1">  1       21 0.21811118E-04 0.49210441E+01</pdfrwt>
<pdfrwt beam="2">  1       21 0.15238436E+00 0.49210441E+01</pdfrwt>
<totfact> 0.13697020E+08</totfact>
</mgrwt>
</event>
<event>
 4    1  0.4039863E+006  0.6823816E+01  0.7546771E-02  0.2319131E+00
         21   -1    0    0  501  502  0.00000000000E+00  0.00000000000E+00  0.49059688118E+02  0.49059688118E+02  0.00000000000E+00 0. -1.
         21   -1    0    0  502  503 -0.00000000000E+00 -0.00000000000E+00 -0.13516809588E+01  0.13516809588E+01  0.00000000000E+00 0. -1.
          5    1    1    2  501    0  0.14141495090E+01 -0.47407434172E+01  0.37609204427E+02  0.38223248483E+02  0.47000000000E+01 0. -1.
         -5    1    1    2    0  503 -0.14141495090E+01  0.47407434172E+01  0.10098802732E+02  0.12188120594E+02  0.47000000000E+01 0. -1.
<mgrwt>
<rscale>  2 0.68238162E+01</rscale>
<asrwt>0</asrwt>
<pdfrwt beam="1">  1       21 0.75476430E-02 0.68238162E+01</pdfrwt>
<pdfrwt beam="2">  1       21 0.20795095E-03 0.68238162E+01</pdfrwt>
<totfact> 0.16326436E+09</totfact>
</mgrwt>
</event>
<event>
 4    1  0.4039863E+006  0.8476811E+01  0.7546771E-02  0.2173684E+00
         21   -1    0    0  503  502  0.00000000000E+00  0.00000000000E+00  0.84368066889E+00  0.84368066889E+00  0.00000000000E+00 0.  1.
         21   -1    0    0  501  503 -0.00000000000E+00 -0.00000000000E+00 -0.39416144347E+03  0.39416144347E+03  0.00000000000E+00 0. -1.
          5    1    1    2  501    0  0.35861091752E+01 -0.60750423273E+01 -0.37152628461E+03  0.37162297624E+03  0.47000000000E+01 0. -1.
         -5    1    1    2    0  502 -0.35861091752E+01  0.60750423273E+01 -0.21791478189E+02  0.23382147890E+02  0.47000000000E+01 0.  1.
<mgrwt>
<rscale>  2 0.84768106E+01</rscale>
<asrwt>0</asrwt>
<pdfrwt beam="1">  1       21 0.12979705E-03 0.84768106E+01</pdfrwt>
<pdfrwt beam="2">  1       21 0.60640209E-01 0.84768106E+01</pdfrwt>
<totfact> 0.10905519E+08</totfact>
</mgrwt>
</event>
<event>
 4    1  0.4039863E+006  0.5751313E+01  0.7546771E-02  0.2448960E+00
         21   -1    0    0  501  502  0.00000000000E+00  0.00000000000E+00  0.12739712514E+03  0.12739712514E+03  0.00000000000E+00 0.  1.
         21   -1    0    0  502  503 -0.00000000000E+00 -0.00000000000E+00 -0.46682736612E+00  0.46682736612E+00  0.00000000000E+00 0. -1.
          5    1    1    2  501    0  0.87416820868E+00  0.31974102231E+01  0.10605634742E+03  0.10621217647E+03  0.47000000000E+01 0.  1.
         -5    1    1    2    0  503 -0.87416820868E+00 -0.31974102231E+01  0.20873950355E+02  0.21651776039E+02  0.47000000000E+01 0. -1.
<mgrwt>
<rscale>  2 0.57513131E+01</rscale>
<asrwt>0</asrwt>
<pdfrwt beam="1">  1       21 0.19599530E-01 0.57513131E+01</pdfrwt>
<pdfrwt beam="2">  1       21 0.71819696E-04 0.57513131E+01</pdfrwt>
<totfact> 0.13541920E+09</totfact>
</mgrwt>
</event>
<event>
 4    1  0.4039863E+006  0.7303444E+01  0.7546771E-02  0.2271448E+00
         21   -1    0    0  503  502  0.00000000000E+00  0.00000000000E+00  0.12642410743E+03  0.12642410743E+03  0.00000000000E+00 0. -1.
         21   -1    0    0  501  503 -0.00000000000E+00 -0.00000000000E+00 -0.36154450359E+01  0.36154450359E+01  0.00000000000E+00 0.  1.
          5    1    1    2  501    0 -0.39288348200E+01  0.39767506255E+01  0.29605141256E+00  0.73094414985E+01  0.47000000000E+01 0.  1.
         -5    1    1    2    0  502  0.39288348200E+01 -0.39767506255E+01  0.12251261099E+03  0.12273011097E+03  0.47000000000E+01 0. -1.
<mgrwt>
<rscale>  2 0.73034436E+01</rscale>
<asrwt>0</asrwt>
<pdfrwt beam="1">  1       21 0.19449859E-01 0.73034436E+01</pdfrwt>
<pdfrwt beam="2">  1       21 0.55622241E-03 0.73034436E+01</pdfrwt>
<totfact> 0.97888137E+07</totfact>
</mgrwt>
</event>
<event>
 4    1  0.4039863E+006  0.5310489E+01  0.7546771E-02  0.2514855E+00
         21   -1    0    0  501  502  0.00000000000E+00  0.00000000000E+00  0.20843629203E-01  0.20843629203E-01  0.00000000000E+00 0.  1.
         21   -1    0    0  502  503 -0.00000000000E+00 -0.00000000000E+00 -0.15400547579E+04  0.15400547579E+04  0.00000000000E+00 0.  1.
          5    1    1    2  501    0 -0.24681129142E+01  0.14038887363E+00 -0.10383882978E+04  0.10384018771E+04  0.47000000000E+01 0.  1.
         -5    1    1    2    0  503  0.24681129142E+01 -0.14038887363E+00 -0.50164561641E+03  0.50167372440E+03  0.47000000000E+01 0.  1.
<mgrwt>
<rscale>  2 0.53104887E+01</rscale>
<asrwt>0</asrwt>
<pdfrwt beam="1">  1       21 0.32068033E-05 0.53104887E+01</pdfrwt>
<pdfrwt beam="2">  1       21 0.23692477E+00 0.53104887E+01</pdfrwt>
<totfact> 0.71397020E+08</totfact>
</mgrwt>
</event>
<event>
 4    1  0.4039863E+006  0.5247197E+01  0.7546771E-02  0.2525085E+00
         21   -1    0    0  501  502  0.00000000000E+00  0.00000000000E+00  0.13513490879E+01  0.13513490879E+01  0.00000000000E+00 0. -1.
         21   -1    0    0  502  503 -0.00000000000E+00 -0.00000000000E+00 -0.20594113003E+02  0.20594113003E+02  0.00000000000E+00 0. -1.
          5    1    1    2  501    0  0.78107537155E+00  0.21984075999E+01 -0.84882958726E+01  0.99791904247E+01  0.47000000000E+01 0. -1.
         -5    1    1    2    0  503 -0.78107537155E+00 -0.21984075999E+01 -0.10754468043E+02  0.11966271666E+02  0.47000000000E+01 0. -1.
<mgrwt>
<rscale>  2 0.52471968E+01</rscale>
<asrwt>0</asrwt>
<pdfrwt beam="1">  1       21 0.20789986E-03 0.52471968E+01</pdfrwt>
<pdfrwt beam="2">  1       21 0.31683250E-02 0.52471968E+01</pdfrwt>
<totfact> 0.46969548E+09</totfact>
</mgrwt>
</event>
<event>
 4    1  0.4039863E+006  0.8174695E+01  0.7546771E-02  0.2196683E+00
         21   -1    0    0  503  502  0.00000000000E+00  0.00000000000E+00  0.44161691562E+01  0.44161691562E+01  0.00000000000E+00 0.  1.
         21   -1    0    0  501  503 -0.00000000000E+00 -0.00000000000E+00 -0.85234845584E+02  0.85234845584E+02  0.00000000000E+00 0.  1.
          5    1    1    2  501    0 -0.23466858298E+01  0.62632825920E+01 -0.81061563884E+02  0.81472711889E+02  0.47000000000E+01 0.  1.
         -5    1    1    2    0  502  0.23466858298E+01 -0.62632825920E+01  0.24288745626E+00  0.81783028513E+01  0.47000000000E+01 0.  1.
<mgrwt>
<rscale>  2 0.81746953E+01</rscale>
<asrwt>0</asrwt>
<pdfrwt beam="1">  1       21 0.67941071E-03 0.81746953E+01</pdfrwt>
<pdfrwt beam="2">  1       21 0.13113052E-01 0.81746953E+01</pdfrwt>
<totfact> 0.14826903E+08</totfact>
</mgrwt>
</event>
<event>
 4    1  0.4039863E+006  0.5885435E+01  0.7546771E-02  0.2430577E+00
         21   -1    0    0  503  502  0.00000000000E+00  0.00000000000E+00  0.14011707977E+03  0.14011707977E+03  0.00000000000E+00 0. -1.
         21   -1    0    0  501  503 -0.00000000000E+00 -0.00000000000E+00 -0.75282331727E+00  0.75282331727E+00  0.00000000000E+00 0. -1.
          5    1    1    2  501    0  0.35312543413E+01  0.28032995229E+00  0.11958855681E+02  0.13328637263E+02  0.47000000000E+01 0. -1.
         -5    1    1    2    0  502 -0.35312543413E+01 -0.28032995229E+00  0.12740540078E+03  0.12754126583E+03  0.47000000000E+01 0. -1.
<mgrwt>
<rscale>  2 0.58854347E+01</rscale>
<asrwt>0</asrwt>
<pdfrwt beam="1">  1       21 0.21556453E-01 0.58854347E+01</pdfrwt>
<pdfrwt beam="2">  1       21 0.11581908E-03 0.58854347E+01</pdfrwt>
<totfact> 0.62311557E+08</totfact>
</mgrwt>
</event>
<event>
 4    1  0.4039863E+006  0.5151989E+01  0.7546771E-02  0.2540877E+00
         21   -1    0    0  501  502  0.00000000000E+00  0.00000000000E+00  0.33464559219E+03  0.33464559219E+03  0.00000000000E+00 0.  1.
         21   -1    0    0  502  503 -0.00000000000E+00 -0.00000000000E+00 -0.16272129662E+00  0.16272129662E+00  0.00000000000E+00 0. -1.
          5    1    1    2  501    0 -0.16918434481E+01  0.12612107853E+01  0.28709170369E+03  0.28713792734E+03  0.47000000000E+01 0.  1.
         -5    1    1    2    0  503  0.16918434481E+01 -0.12612107853E+01  0.47391167203E+02  0.47670386151E+02  0.47000000000E+01 0. -1.
<mgrwt>
<rscale>  2 0.51519886E+01</rscale>
<asrwt>0</asrwt>
<pdfrwt beam="1">  1       21 0.51483386E-01 0.51519886E+01</pdfrwt>
<pdfrwt beam="2">  1       21 0.25034313E-04 0.51519886E+01</pdfrwt>
<totfact> 0.98576359E+08</totfact>
</mgrwt>
</event>
<event>
 4    1  0.4039863E+006  0.4871281E+01  0.7546771E-02  0.2590508E+00
         21   -1    0    0  503  502  0.00000000000E+00  0.00000000000E+00  0.33003188371E+00  0.33003188371E+00  0.00000000000E+00 0. -1.
         21   -1    0    0  501  503 -0.00000000000E+00 -0.00000000000E+00 -0.18506573934E+03  0.18506573934E+03  0.00000000000E+00 0. -1.
          5    1    1    2  501    0  0.84278009908E+00 -0.96389633409E+00 -0.16485547039E+03  0.16492742493E+03  0.47000000000E+01 0. -1.
         -5    1    1    2    0  502 -0.84278009908E+00  0.96389633409E+00 -0.19880237059E+02  0.20468346293E+02  0.47000000000E+01 0. -1.
<mgrwt>
<rscale>  2 0.48712806E+01</rscale>
<asrwt>0</asrwt>
<pdfrwt beam="1">  1       21 0.50773995E-04 0.48712806E+01</pdfrwt>
<pdfrwt beam="2">  1       21 0.28471731E-01 0.48712806E+01</pdfrwt>
<totfact> 0.10147388E+09</totfact>
</mgrwt>
</event>
<event>
 4    1  0.4039863E+006  0.5655365E+01  0.7546771E-02  0.2462560E+00
         21   -1    0    0  501  502  0.00000000000E+00  0.00000000000E+00  0.13339500959E+02  0.13339500959E+02  0.00000000000E+00 0. -1.
         21   -1    0    0  502  503 -0.00000000000E+00 -0.00000000000E+00 -0.25596185217E+01  0.25596185217E+01  0.00000000000E+00 0. -1.
          5    1    1    2  501    0  0.20969358789E+01  0.23443581162E+01  0.73898070265E+01  0.93055039061E+01  0.47000000000E+01 0. -1.
         -5    1    1    2    0  503 -0.20969358789E+01 -0.23443581162E+01  0.33900754111E+01  0.65936155749E+01  0.47000000000E+01 0. -1.
<mgrwt>
<rscale>  2 0.56553652E+01</rscale>
<asrwt>0</asrwt>
<pdfrwt beam="1">  1       21 0.20522309E-02 0.56553652E+01</pdfrwt>
<pdfrwt beam="2">  1       21 0.39378747E-03 0.56553652E+01</pdfrwt>
<totfact> 0.39461108E+09</totfact>
</mgrwt>
</event>
<event>
 4    1  0.4039863E+006  0.5067084E+01  0.7546771E-02  0.2555389E+00
         21   -1    0    0  503  502  0.00000000000E+00  0.00000000000E+00  0.10010307022E+01  0.10010307022E+01  0.00000000000E+00 0. -1.
         21   -1    0    0  501  503 -0.00000000000E+00 -0.00000000000E+00 -0.41525421611E+02  0.41525421611E+02  0.00000000000E+00 0. -1.
          5    1    1    2  501    0 -0.10728427350E+01  0.15602400251E+01 -0.33409894567E+02  0.33791957556E+02  0.47000000000E+01 0. -1.
         -5    1    1    2    0  502  0.10728427350E+01 -0.15602400251E+01 -0.71144963417E+01  0.87344947574E+01  0.47000000000E+01 0. -1.
<mgrwt>
<rscale>  2 0.50670840E+01</rscale>
<asrwt>0</asrwt>
<pdfrwt beam="1">  1       21 0.15400472E-03 0.50670840E+01</pdfrwt>
<pdfrwt beam="2">  1       21 0.63885265E-02 0.50670840E+01</pdfrwt>
<totfact> 0.24391281E+09</totfact>
</mgrwt>
</event>
<event>
 4    1  0.4039863E+006  0.1140909E+02  0.7546771E-02  0.2002676E+00
         21   -1    0    0  501  502  0.00000000000E+00  0.00000000000E+00  0.15144337909E+03  0.15144337909E+03  0.00000000000E+00 0. -1.
         21   -1    0    0  502  503 -0.00000000000E+00 -0.00000000000E+00 -0.99313567222E+00  0.99313567222E+00  0.00000000000E+00 0.  1.
          5    1    1    2  501    0 -0.67632137674E+01 -0.78953315342E+01  0.47267688472E+02  0.48625113820E+02  0.47000000000E+01 0. -1.
         -5    1    1    2    0  503  0.67632137674E+01  0.78953315342E+01  0.10318255495E+03  0.10381140094E+03  0.47000000000E+01 0.  1.
<mgrwt>
<rscale>  2 0.11409089E+02</rscale>
<asrwt>0</asrwt>
<pdfrwt beam="1">  1       21 0.23298963E-01 0.11409089E+02</pdfrwt>
<pdfrwt beam="2">  1       21 0.15279022E-03 0.11409089E+02</pdfrwt>
<totfact> 0.55839003E+08</totfact>
</mgrwt>
</event>
<event>
 4    1  0.4039863E+006  0.6575934E+01  0.7546771E-02  0.2345995E+00
         21   -1    0    0  501  502  0.00000000000E+00  0.00000000000E+00  0.14872958767E+03  0.14872958767E+03  0.00000000000E+00 0.  1.
         21   -1    0    0  502  503 -0.00000000000E+00 -0.00000000000E+00 -0.79219929859E+00  0.79219929859E+00  0.00000000000E+00 0. -1.
          5    1    1    2  501    0 -0.42356747435E+01 -0.17921968692E+01  0.13344875496E+03  0.13361067738E+03  0.47000000000E+01 0.  1.
         -5    1    1    2    0  503  0.42356747435E+01  0.17921968692E+01  0.14488633415E+02  0.15911109590E+02  0.47000000000E+01 0. -1.
<mgrwt>
<rscale>  2 0.65759342E+01</rscale>
<asrwt>0</asrwt>
<pdfrwt beam="1">  1       21 0.22881453E-01 0.65759342E+01</pdfrwt>
<pdfrwt beam="2">  1       21 0.12187693E-03 0.65759342E+01</pdfrwt>
<totfact> 0.57171032E+08</totfact>
</mgrwt>
</event>
<event>
 4    1  0.4039863E+006  0.6231373E+01  0.7546771E-02  0.2386249E+00
         21   -1    0    0  503  502  0.00000000000E+00  0.00000000000E+00  0.57214427390E+03  0.57214427390E+03  0.00000000000E+00 0.  1.
         21   -1    0    0  501  503 -0.00000000000E+00 -0.00000000000E+00 -0.11699884907E+00  0.11699884907E+00  0.00000000000E+00 0.  1.
          5    1    1    2  501    0  0.23028961749E+01 -0.33818164422E+01  0.10059524143E+03  0.10078805788E+03  0.47000000000E+01 0.  1.
         -5    1    1    2    0  502 -0.23028961749E+01  0.33818164422E+01  0.47143203362E+03  0.47147321487E+03  0.47000000000E+01 0.  1.
<mgrwt>
<rscale>  2 0.62313733E+01</rscale>
<asrwt>0</asrwt>
<pdfrwt beam="1">  1       21 0.88019955E-01 0.62313733E+01</pdfrwt>
<pdfrwt beam="2">  1       21 0.18000281E-04 0.62313733E+01</pdfrwt>
<totfact> 0.64112165E+08</totfact>
</mgrwt>
</event>
<event>
 4    1  0.4039863E+006  0.6606349E+01  0.7546771E-02  0.2342609E+00
         21   -1    0    0  501  502  0.00000000000E+00  0.00000000000E+00  0.81167225577E+00  0.81167225577E+00  0.00000000000E+00 0. -1.
         21   -1    0    0  502  503 -0.00000000000E+00 -0.00000000000E+00 -0.57593207907E+02  0.57593207907E+02  0.00000000000E+00 0.  1.
          5    1    1    2  501    0 -0.46305875362E+01 -0.33391990390E+00 -0.20867065005E+02  0.21887856116E+02  0.47000000000E+01 0. -1.
         -5    1    1    2    0  503  0.46305875362E+01  0.33391990390E+00 -0.35914470646E+02  0.36517024046E+02  0.47000000000E+01 0. -1.
<mgrwt>
<rscale>  2 0.66063487E+01</rscale>
<asrwt>0</asrwt>
<pdfrwt beam="1">  1       21 0.12487266E-03 0.66063487E+01</pdfrwt>
<pdfrwt beam="2">  1       21 0.88604930E-02 0.66063487E+01</pdfrwt>
<totfact> 0.24979417E+09</totfact>
</mgrwt>
</event>
<event>
 4    1  0.4039863E+006  0.1114535E+02  0.7546771E-02  0.2015122E+00
         21   -1    0    0  503  502  0.00000000000E+00  0.00000000000E+00  0.13740126929E+02  0.13740126929E+02  0.00000000000E+00 0. -1.
         21   -1    0    0  501  503 -0.00000000000E+00 -0.00000000000E+00 -0.97554179416E+01  0.97554179416E+01  0.00000000000E+00 0.  1.
          5    1    1    2  501    0 -0.97993332113E+00 -0.10058256341E+02 -0.11877014787E+01  0.11208453271E+02  0.47000000000E+01 0. -1.
         -5    1    1    2    0  502  0.97993332113E+00  0.10058256341E+02  0.51724104660E+01  0.12287091599E+02  0.47000000000E+01 0. -1.
<mgrwt>
<rscale>  2 0.11145348E+02</rscale>
<asrwt>0</asrwt>
<pdfrwt beam="1">  1       21 0.21138657E-02 0.11145348E+02</pdfrwt>
<pdfrwt beam="2">  1       21 0.15008335E-02 0.11145348E+02</pdfrwt>
<totfact> 0.91731040E+08</totfact>
</mgrwt>
</event>
<event>
 4    1  0.4039863E+006  0.6880285E+01  0.7546771E-02  0.2313235E+00
         21   -1    0    0  503  502  0.00000000000E+00  0.00000000000E+00  0.69746967070E-01  0.69746967070E-01  0.00000000000E+00 0. -1.
         21   -1    0    0  501  503 -0.00000000000E+00 -0.00000000000E+00 -0.72918365450E+03  0.72918365450E+03  0.00000000000E+00 0. -1.
          5    1    1    2  501    0  0.38927797187E+01 -0.31771973863E+01 -0.46048389494E+03  0.46053529269E+03  0.47000000000E+01 0. -1.
         -5    1    1    2    0  502 -0.38927797187E+01  0.31771973863E+01 -0.26863001260E+03  0.26871810878E+03  0.47000000000E+01 0. -1.
<mgrwt>
<rscale>  2 0.68802847E+01</rscale>
<asrwt>0</asrwt>
<pdfrwt beam="1">  1       21 0.10730274E-04 0.68802847E+01</pdfrwt>
<pdfrwt beam="2">  1       21 0.11218240E+00 0.68802847E+01</pdfrwt>
<totfact> 0.83190331E+08</totfact>
</mgrwt>
</event>
<event>
 4    1  0.4039863E+006  0.1026256E+02  0.7546771E-02  0.2060346E+00
         21   -1    0    0  501  502  0.00000000000E+00  0.00000000000E+00  0.10968333811E+04  0.10968333811E+04  0.00000000000E+00 0. -1.
         21   -1    0    0  502  503 -0.00000000000E+00 -0.00000000000E+00 -0.26390571304E+00  0.26390571304E+00  0.00000000000E+00 0.  1.
          5    1    1    2  501    0 -0.90690072690E+01 -0.99154210717E+00  0.98580194080E+03  0.98585535781E+03  0.47000000000E+01 0. -1.
         -5    1    1    2    0  503  0.90690072690E+01  0.99154210717E+00  0.11076753458E+03  0.11124192899E+03  0.47000000000E+01 0.  1.
<mgrwt>
<rscale>  2 0.10262556E+02</rscale>
<asrwt>0</asrwt>
<pdfrwt beam="1">  1       21 0.16873995E+00 0.10262556E+02</pdfrwt>
<pdfrwt beam="2">  1       21 0.40601757E-04 0.10262556E+02</pdfrwt>
<totfact> 0.68448911E+07</totfact>
</mgrwt>
</event>
<event>
 4    1  0.4039863E+006  0.9101926E+01  0.7546771E-02  0.2130016E+00
         21   -1    0    0  501  502  0.00000000000E+00  0.00000000000E+00  0.12551729137E+00  0.12551729137E+00  0.00000000000E+00 0. -1.
         21   -1    0    0  502  503 -0.00000000000E+00 -0.00000000000E+00 -0.68566028841E+03  0.68566028841E+03  0.00000000000E+00 0.  1.
          5    1    1    2  501    0  0.77613097505E+01 -0.71912072548E+00 -0.27647121396E+03  0.27662099923E+03  0.47000000000E+01 0.  1.
         -5    1    1    2    0  503 -0.77613097505E+01  0.71912072548E+00 -0.40906355716E+03  0.40916480648E+03  0.47000000000E+01 0. -1.
<mgrwt>
<rscale>  2 0.91019264E+01</rscale>
<asrwt>0</asrwt>
<pdfrwt beam="1">  1       21 0.19310410E-04 0.91019264E+01</pdfrwt>
<pdfrwt beam="2">  1       21 0.10548588E+00 0.91019264E+01</pdfrwt>
<totfact> 0.50064877E+08</totfact>
</mgrwt>
</event>
<event>
 4    1  0.4039863E+006  0.5314413E+01  0.7546771E-02  0.2514228E+00
         21   -1    0    0  503  502  0.00000000000E+00  0.00000000000E+00  0.19305961676E+02  0.19305961676E+02  0.00000000000E+00 0. -1.
         21   -1    0    0  501  503 -0.00000000000E+00 -0.00000000000E+00 -0.16307135646E+01  0.16307135646E+01  0.00000000000E+00 0. -1.
          5    1    1    2  501    0  0.21054837364E+01 -0.13114569570E+01  0.54796063090E+01  0.76334177415E+01  0.47000000000E+01 0. -1.
         -5    1    1    2    0  502 -0.21054837364E+01  0.13114569570E+01  0.12195641802E+02  0.13303257499E+02  0.47000000000E+01 0. -1.
<mgrwt>
<rscale>  2 0.53144126E+01</rscale>
<asrwt>0</asrwt>
<pdfrwt beam="1">  1       21 0.29701478E-02 0.53144126E+01</pdfrwt>
<pdfrwt beam="2">  1       21 0.25087902E-03 0.53144126E+01</pdfrwt>
<totfact> 0.40489419E+09</totfact>
</mgrwt>
</event>
<event>
 4    1  0.4039863E+006  0.6065288E+01  0.7546771E-02  0.2407003E+00
         21   -1    0    0  501  502  0.00000000000E+00  0.00000000000E+00  0.75587833820E+01  0.75587833820E+01  0.00000000000E+00 0. -1.
         21   -1    0    0  502  503 -0.00000000000E+00 -0.00000000000E+00 -0.55749617414E+01  0.55749617414E+01  0.00000000000E+00 0.  1.
          5    1    1    2  501    0 -0.24671704937E+01 -0.29344135065E+01  0.33322482594E+01  0.69203750863E+01  0.47000000000E+01 0. -1.
         -5    1    1    2    0  503  0.24671704937E+01  0.29344135065E+01 -0.13484266189E+01  0.62133700372E+01  0.47000000000E+01 0. -1.
<mgrwt>
<rscale>  2 0.60652875E+01</rscale>
<asrwt>0</asrwt>
<pdfrwt beam="1">  1       21 0.11628898E-02 0.60652875E+01</pdfrwt>
<pdfrwt beam="2">  1       21 0.85768642E-03 0.60652875E+01</pdfrwt>
<totfact> 0.31960996E+09</totfact>
</mgrwt>
</event>
<event>
 4    1  0.4039863E+006  0.7008083E+01  0.7546771E-02  0.2300180E+00
         21   -1    0    0  503  502  0.00000000000E+00  0.00000000000E+00  0.36038195238E+01  0.36038195238E+01  0.00000000000E+00 0.  1.
         21   -1    0    0  501  503 -0.00000000000E+00 -0.00000000000E+00 -0.15220061210E+02  0.15220061210E+02  0.00000000000E+00 0.  1.
          5    1    1    2  501    0  0.10354045841E+01 -0.50942284916E+01 -0.88520650544E+01  0.11290362364E+02  0.47000000000E+01 0.  1.
         -5    1    1    2    0  502 -0.10354045841E+01  0.50942284916E+01 -0.27641766317E+01  0.75335183698E+01  0.47000000000E+01 0.  1.
<mgrwt>
<rscale>  2 0.70080829E+01</rscale>
<asrwt>0</asrwt>
<pdfrwt beam="1">  1       21 0.55443377E-03 0.70080829E+01</pdfrwt>
<pdfrwt beam="2">  1       21 0.23415479E-02 0.70080829E+01</pdfrwt>
<totfact> 0.24364276E+09</totfact>
</mgrwt>
</event>
<event>
 4    1  0.4039863E+006  0.5856488E+01  0.7546771E-02  0.2434485E+00
         21   -1    0    0  503  502  0.00000000000E+00  0.00000000000E+00  0.62543177486E+02  0.62543177486E+02  0.00000000000E+00 0.  1.
         21   -1    0    0  501  503 -0.00000000000E+00 -0.00000000000E+00 -0.79413247162E+00  0.79413247162E+00  0.00000000000E+00 0. -1.
          5    1    1    2  501    0  0.25505729153E+01 -0.23881006981E+01  0.13258101324E+02  0.14493988335E+02  0.47000000000E+01 0.  1.
         -5    1    1    2    0  502 -0.25505729153E+01  0.23881006981E+01  0.48490943690E+02  0.48843321622E+02  0.47000000000E+01 0.  1.
<mgrwt>
<rscale>  2 0.58564876E+01</rscale>
<asrwt>0</asrwt>
<pdfrwt beam="1">  1       21 0.96220234E-02 0.58564876E+01</pdfrwt>
<pdfrwt beam="2">  1       21 0.12217428E-03 0.58564876E+01</pdfrwt>
<totfact> 0.20528453E+09</totfact>
</mgrwt>
</event>
<event>
 4    1  0.4039863E+006  0.9666344E+01  0.7546771E-02  0.2094489E+00
         21   -1    0    0  503  502  0.00000000000E+00  0.00000000000E+00  0.45653687111E+00  0.45653687111E+00  0.00000000000E+00 0.  1.
         21   -1    0    0  501  503 -0.00000000000E+00 -0.00000000000E+00 -0.31730589071E+03  0.31730589071E+03  0.00000000000E+00 0. -1.
          5    1    1    2  501    0  0.69560183324E+01  0.47918694384E+01 -0.25308695199E+03  0.25327148176E+03  0.47000000000E+01 0. -1.
         -5    1    1    2    0  502 -0.69560183324E+01 -0.47918694384E+01 -0.63762401846E+02  0.64490945822E+02  0.47000000000E+01 0.  1.
<mgrwt>
<rscale>  2 0.96663439E+01</rscale>
<asrwt>0</asrwt>
<pdfrwt beam="1">  1       21 0.70236193E-04 0.96663439E+01</pdfrwt>
<pdfrwt beam="2">  1       21 0.48816464E-01 0.96663439E+01</pdfrwt>
<totfact> 0.40567581E+08</totfact>
</mgrwt>
</event>
<event>
 4    1  0.4039863E+006  0.4917463E+01  0.7546771E-02  0.2582007E+00
         21   -1    0    0  501  502  0.00000000000E+00  0.00000000000E+00  0.99674723959E+02  0.99674723959E+02  0.00000000000E+00 0. -1.
         21   -1    0    0  502  503 -0.00000000000E+00 -0.00000000000E+00 -0.21423216964E+01  0.21423216964E+01  0.00000000000E+00 0. -1.
          5    1    1    2  501    0  0.12074541490E+01  0.79592717130E+00  0.96705616555E+02  0.96830561905E+02  0.47000000000E+01 0. -1.
         -5    1    1    2    0  503 -0.12074541490E+01 -0.79592717130E+00  0.82678570754E+00  0.49864837501E+01  0.47000000000E+01 0. -1.
<mgrwt>
<rscale>  2 0.49174633E+01</rscale>
<asrwt>0</asrwt>
<pdfrwt beam="1">  1       21 0.15334569E-01 0.49174633E+01</pdfrwt>
<pdfrwt beam="2">  1       21 0.32958803E-03 0.49174633E+01</pdfrwt>
<totfact> 0.22604980E+08</totfact>
</mgrwt>
</event>
<event>
 4    1  0.4039863E+006  0.1717801E+02  0.7546771E-02  0.1808071E+00
         21   -1    0    0  501  502  0.00000000000E+00  0.00000000000E+00  0.95803432626E+02  0.95803432626E+02  0.00000000000E+00 0.  1.
         21   -1    0    0  502  503 -0.00000000000E+00 -0.00000000000E+00 -0.31421850179E+01  0.31421850179E+01  0.00000000000E+00 0. -1.
          5    1    1    2  501    0 -0.19141512982E+01 -0.16411274284E+02  0.39376324635E+02  0.42960200658E+02  0.47000000000E+01 0. -1.
         -5    1    1    2    0  503  0.19141512982E+01  0.16411274284E+02  0.53284922973E+02  0.55985416986E+02  0.47000000000E+01 0.  1.
<mgrwt>
<rscale>  2 0.17178006E+02</rscale>
<asrwt>0</asrwt>
<pdfrwt beam="1">  1       21 0.14738987E-01 0.17178006E+02</pdfrwt>
<pdfrwt beam="2">  1       21 0.48341315E-03 0.17178006E+02</pdfrwt>
<totfact> 0.27814495E+08</totfact>
</mgrwt>
</event>
<event>
 4    1  0.4039863E+006  0.5468758E+01  0.7546771E-02  0.2490161E+00
         21   -1    0    0  501  502  0.00000000000E+00  0.00000000000E+00  0.56491812265E+01  0.56491812265E+01  0.00000000000E+00 0. -1.
         21   -1    0    0  502  503 -0.00000000000E+00 -0.00000000000E+00 -0.25114032076E+02  0.25114032076E+02  0.00000000000E+00 0. -1.
          5    1    1    2  501    0 -0.95700630421E+00 -0.26270610791E+01  0.39321013899E+01  0.67356315458E+01  0.47000000000E+01 0. -1.
         -5    1    1    2    0  503  0.95700630421E+00  0.26270610791E+01 -0.23396952240E+02  0.24027581757E+02  0.47000000000E+01 0. -1.
<mgrwt>
<rscale>  2 0.54687577E+01</rscale>
<asrwt>0</asrwt>
<pdfrwt beam="1">  1       21 0.86910481E-03 0.54687577E+01</pdfrwt>
<pdfrwt beam="2">  1       21 0.38636972E-02 0.54687577E+01</pdfrwt>
<totfact> 0.51255871E+08</totfact>
</mgrwt>
</event>
<event>
 4    1  0.4039863E+006  0.6194686E+01  0.7546771E-02  0.2390753E+00
         21   -1    0    0  501  502  0.00000000000E+00  0.00000000000E+00  0.98441807510E+02  0.98441807510E+02  0.00000000000E+00 0.  1.
         21   -1    0    0  502  503 -0.00000000000E+00 -0.00000000000E+00 -0.41340898536E+00  0.41340898536E+00  0.00000000000E+00 0. -1.
          5    1    1    2  501    0  0.39733834514E+01 -0.70452349262E+00  0.60822214573E+02  0.61136862161E+02  0.47000000000E+01 0.  1.
         -5    1    1    2    0  503 -0.39733834514E+01  0.70452349262E+00  0.37206183952E+02  0.37718354334E+02  0.47000000000E+01 0.  1.
<mgrwt>
<rscale>  2 0.61946856E+01</rscale>
<asrwt>0</asrwt>
<pdfrwt beam="1">  1       21 0.15144875E-01 0.61946856E+01</pdfrwt>
<pdfrwt beam="2">  1       21 0.63601461E-04 0.61946856E+01</pdfrwt>
<totfact> 0.25535698E+09</totfact>
</mgrwt>
</event>
<event>
 4    1  0.4039863E+006  0.4818177E+01  0.7546771E-02  0.2600456E+00
         21   -1    0    0  501  502  0.00000000000E+00  0.00000000000E+00  0.37537946904E+03  0.37537946904E+03  0.00000000000E+00 0. -1.
         21   -1    0    0  502  503 -0.00000000000E+00 -0.00000000000E+00 -0.63812656968E-01  0.63812656968E-01  0.00000000000E+00 0. -1.
          5    1    1    2  501    0  0.84676483810E+00 -0.63860642136E+00  0.22063297983E+03  0.22068558316E+03  0.47000000000E+01 0. -1.
         -5    1    1    2    0  503 -0.84676483810E+00  0.63860642136E+00  0.15468267656E+03  0.15475769854E+03  0.47000000000E+01 0. -1.
<mgrwt>
<rscale>  2 0.48181769E+01</rscale>
<asrwt>0</asrwt>
<pdfrwt beam="1">  1       21 0.57748919E-01 0.48181769E+01</pdfrwt>
<pdfrwt beam="2">  1       21 0.98176324E-05 0.48181769E+01</pdfrwt>
<totfact> 0.26128526E+09</totfact>
</mgrwt>
</event>
<event>
 4    1  0.4039863E+006  0.5783471E+01  0.7546771E-02  0.2444487E+00
         21   -1    0    0  501  502  0.00000000000E+00  0.00000000000E+00  0.10402096292E+02  0.10402096292E+02  0.00000000000E+00 0. -1.
         21   -1    0    0  502  503 -0.00000000000E+00 -0.00000000000E+00 -0.36250052707E+01  0.36250052707E+01  0.00000000000E+00 0.  1.
          5    1    1    2  501    0  0.68253741272E+00  0.33004052876E+01  0.57456737159E+01  0.81523799489E+01  0.47000000000E+01 0. -1.
         -5    1    1    2    0  503 -0.68253741272E+00 -0.33004052876E+01  0.10314173055E+01  0.58747216138E+01  0.47000000000E+01 0. -1.
<mgrwt>
<rscale>  2 0.57834706E+01</rscale>
<asrwt>0</asrwt>
<pdfrwt beam="1">  1       21 0.16003225E-02 0.57834706E+01</pdfrwt>
<pdfrwt beam="2">  1       21 0.55769312E-03 0.57834706E+01</pdfrwt>
<totfact> 0.35509604E+09</totfact>
</mgrwt>
</event>
<event>
 4    1  0.4039863E+006  0.6184405E+01  0.7546771E-02  0.2392024E+00
         21   -1    0    0  501  502  0.00000000000E+00  0.00000000000E+00  0.30138367588E+01  0.30138367588E+01  0.00000000000E+00 0.  1.
         21   -1    0    0  502  503 -0.00000000000E+00 -0.00000000000E+00 -0.18159232242E+02  0.18159232242E+02  0.00000000000E+00 0.  1.
          5    1    1    2  501    0 -0.33718213981E+01 -0.21880767947E+01 -0.17630271012E+01  0.64307949866E+01  0.47000000000E+01 0.  1.
         -5    1    1    2    0  503  0.33718213981E+01  0.21880767947E+01 -0.13382368382E+02  0.14742274015E+02  0.47000000000E+01 0.  1.
<mgrwt>
<rscale>  2 0.61844045E+01</rscale>
<asrwt>0</asrwt>
<pdfrwt beam="1">  1       21 0.46366721E-03 0.61844045E+01</pdfrwt>
<pdfrwt beam="2">  1       21 0.27937280E-02 0.61844045E+01</pdfrwt>
<totfact> 0.21847828E+09</totfact>
</mgrwt>
</event>
<event>
 4    1  0.4039863E+006  0.5290989E+01  0.7546771E-02  0.2517985E+00
         21   -1    0    0  501  502  0.00000000000E+00  0.00000000000E+00  0.34682067669E+02  0.34682067669E+02  0.00000000000E+00 0. -1.
         21   -1    0    0  502  503 -0.00000000000E+00 -0.00000000000E+00 -0.17337919924E+01  0.17337919924E+01  0.00000000000E+00 0. -1.
          5    1    1    2  501    0  0.82669032783E+00  0.22849825680E+01  0.31631045216E+01  0.61643971683E+01  0.47000000000E+01 0. -1.
         -5    1    1    2    0  503 -0.82669032783E+00 -0.22849825680E+01  0.29785171155E+02  0.30251462493E+02  0.47000000000E+01 0. -1.
<mgrwt>
<rscale>  2 0.52909888E+01</rscale>
<asrwt>0</asrwt>
<pdfrwt beam="1">  1       21 0.53357022E-02 0.52909888E+01</pdfrwt>
<pdfrwt beam="2">  1       21 0.26673726E-03 0.52909888E+01</pdfrwt>
<totfact> 0.15808853E+09</totfact>
</mgrwt>
</event>
<event>
 4    1  0.4039863E+006  0.6893060E+01  0.7546771E-02  0.2311912E+00
         21   -1    0    0  501  502  0.00000000000E+00  0.00000000000E+00  0.17612796912E+01  0.17612796912E+01  0.00000000000E+00 0.  1.
         21   -1    0    0  502  503 -0.00000000000E+00 -0.00000000000E+00 -0.74837088653E+02  0.74837088653E+02  0.00000000000E+00 0.  1.
          5    1    1    2  501    0 -0.40161148780E+01 -0.30487867584E+01 -0.59100045602E+01  0.90797815675E+01  0.47000000000E+01 0.  1.
         -5    1    1    2    0  503  0.40161148780E+01  0.30487867584E+01 -0.67165804402E+02  0.67518586777E+02  0.47000000000E+01 0.  1.
<mgrwt>
<rscale>  2 0.68930602E+01</rscale>
<asrwt>0</asrwt>
<pdfrwt beam="1">  1       21 0.27096620E-03 0.68930602E+01</pdfrwt>
<pdfrwt beam="2">  1       21 0.11513394E-01 0.68930602E+01</pdfrwt>
<totfact> 0.59513813E+08</totfact>
</mgrwt>
</event>
<event>
 4    1  0.4039863E+006  0.4749931E+01  0.7546771E-02  0.2613524E+00
         21   -1    0    0  503  502  0.00000000000E+00  0.00000000000E+00  0.40876605486E+00  0.40876605486E+00  0.00000000000E+00 0.  1.
         21   -1    0    0  501  503 -0.00000000000E+00 -0.00000000000E+00 -0.12694766863E+03  0.12694766863E+03  0.00000000000E+00 0.  1.
          5    1    1    2  501    0  0.40065233945E+00  0.55796450388E+00 -0.11114321031E+03  0.11124466299E+03  0.47000000000E+01 0.  1.
         -5    1    1    2    0  502 -0.40065233945E+00 -0.55796450388E+00 -0.15395692263E+02  0.16111771688E+02  0.47000000000E+01 0.  1.
<mgrwt>
<rscale>  2 0.47499312E+01</rscale>
<asrwt>0</asrwt>
<pdfrwt beam="1">  1       21 0.62887004E-04 0.47499312E+01</pdfrwt>
<pdfrwt beam="2">  1       21 0.19530436E-01 0.47499312E+01</pdfrwt>
<totfact> 0.13713722E+09</totfact>
</mgrwt>
</event>
<event>
 4    1  0.4039863E+006  0.4742178E+01  0.7546771E-02  0.2615029E+00
         21   -1    0    0  503  502  0.00000000000E+00  0.00000000000E+00  0.23671615239E+03  0.23671615239E+03  0.00000000000E+00 0. -1.
         21   -1    0    0  501  503 -0.00000000000E+00 -0.00000000000E+00 -0.21249834002E+00  0.21249834002E+00  0.00000000000E+00 0. -1.
          5    1    1    2  501    0  0.21517395436E+00  0.59325934977E+00  0.30162367191E+02  0.30532878198E+02  0.47000000000E+01 0. -1.
         -5    1    1    2    0  502 -0.21517395436E+00 -0.59325934977E+00  0.20634128685E+03  0.20639577253E+03  0.47000000000E+01 0. -1.
<mgrwt>
<rscale>  2 0.47421785E+01</rscale>
<asrwt>0</asrwt>
<pdfrwt beam="1">  1       21 0.36417659E-01 0.47421785E+01</pdfrwt>
<pdfrwt beam="2">  1       21 0.32692242E-04 0.47421785E+01</pdfrwt>
<totfact> 0.11758431E+09</totfact>
</mgrwt>
</event>
<event>
 4    1  0.4039863E+006  0.6759104E+01  0.7546771E-02  0.2325987E+00
         21   -1    0    0  503  502  0.00000000000E+00  0.00000000000E+00  0.21543447970E+01  0.21543447970E+01  0.00000000000E+00 0. -1.
         21   -1    0    0  501  503 -0.00000000000E+00 -0.00000000000E+00 -0.43016072138E+02  0.43016072138E+02  0.00000000000E+00 0.  1.
          5    1    1    2  501    0  0.46369095259E+01  0.14472592663E+01 -0.36512683140E+02  0.37133024646E+02  0.47000000000E+01 0.  1.
         -5    1    1    2    0  502 -0.46369095259E+01 -0.14472592663E+01 -0.43490442015E+01  0.80373922886E+01  0.47000000000E+01 0.  1.
<mgrwt>
<rscale>  2 0.67591042E+01</rscale>
<asrwt>0</asrwt>
<pdfrwt beam="1">  1       21 0.33143766E-03 0.67591042E+01</pdfrwt>
<pdfrwt beam="2">  1       21 0.66178572E-02 0.67591042E+01</pdfrwt>
<totfact> 0.10408755E+09</totfact>
</mgrwt>
</event>
<event>
 4    1  0.4039863E+006  0.7107515E+01  0.7546771E-02  0.2290289E+00
         21   -1    0    0  503  502  0.00000000000E+00  0.00000000000E+00  0.17252954686E+01  0.17252954686E+01  0.00000000000E+00 0. -1.
         21   -1    0    0  501  503 -0.00000000000E+00 -0.00000000000E+00 -0.85402775329E+02  0.85402775329E+02  0.00000000000E+00 0.  1.
          5    1    1    2  501    0  0.19796569142E+01  0.49505276477E+01 -0.77153919895E+02  0.77480604804E+02  0.47000000000E+01 0.  1.
         -5    1    1    2    0  502 -0.19796569142E+01 -0.49505276477E+01 -0.65235599650E+01  0.96474659940E+01  0.47000000000E+01 0. -1.
<mgrwt>
<rscale>  2 0.71075147E+01</rscale>
<asrwt>0</asrwt>
<pdfrwt beam="1">  1       21 0.26543014E-03 0.71075147E+01</pdfrwt>
<pdfrwt beam="2">  1       21 0.13138885E-01 0.71075147E+01</pdfrwt>
<totfact> 0.50782683E+08</totfact>
</mgrwt>
</event>
<event>
 4    1  0.4039863E+006  0.6825333E+01  0.7546771E-02  0.2318971E+00
         21   -1    0    0  503  502  0.00000000000E+00  0.00000000000E+00  0.29544849577E+02  0.29544849577E+02  0.00000000000E+00 0. -1.
         21   -1    0    0  501  503 -0.00000000000E+00 -0.00000000000E+00 -0.28087285550E+01  0.28087285550E+01  0.00000000000E+00 0. -1.
          5    1    1    2  501    0 -0.34061003009E+01 -0.35907725892E+01  0.26544199908E+01  0.73233266030E+01  0.47000000000E+01 0. -1.
         -5    1    1    2    0  502  0.34061003009E+01  0.35907725892E+01  0.24081701031E+02  0.25030251529E+02  0.47000000000E+01 0. -1.
<mgrwt>
<rscale>  2 0.68253327E+01</rscale>
<asrwt>0</asrwt>
<pdfrwt beam="1">  1       21 0.45453613E-02 0.68253327E+01</pdfrwt>
<pdfrwt beam="2">  1       21 0.43211211E-03 0.68253327E+01</pdfrwt>
<totfact> 0.12744410E+09</totfact>
</mgrwt>
</event>
<event>
 4    1  0.4039863E+006  0.7957610E+01  0.7546771E-02  0.2214069E+00
         21   -1    0    0  503  502  0.00000000000E+00  0.00000000000E+00  0.26660020974E+00  0.26660020974E+00  0.00000000000E+00 0.  1.
         21   -1    0    0  501  503 -0.00000000000E+00 -0.00000000000E+00 -0.12365190291E+04  0.12365190291E+04  0.00000000000E+00 0. -1.
          5    1    1    2  501    0 -0.38701351643E+01 -0.51240232483E+01 -0.11739613709E+04  0.11739883407E+04  0.47000000000E+01 0. -1.
         -5    1    1    2    0  502  0.38701351643E+01  0.51240232483E+01 -0.62291057950E+02  0.62797288643E+02  0.47000000000E+01 0.  1.
<mgrwt>
<rscale>  2 0.79576102E+01</rscale>
<asrwt>0</asrwt>
<pdfrwt beam="1">  1       21 0.41014690E-04 0.79576102E+01</pdfrwt>
<pdfrwt beam="2">  1       21 0.19023707E+00 0.79576102E+01</pdfrwt>
<totfact> 0.46637019E+07</totfact>
</mgrwt>
</event>
<event>
 4    1  0.4039863E+006  0.5989602E+01  0.7546771E-02  0.2416779E+00
         21   -1    0    0  501  502  0.00000000000E+00  0.00000000000E+00  0.25550887666E+02  0.25550887666E+02  0.00000000000E+00 0.  1.
         21   -1    0    0  502  503 -0.00000000000E+00 -0.00000000000E+00 -0.14842984922E+01  0.14842984922E+01  0.00000000000E+00 0.  1.
          5    1    1    2  501    0 -0.18085156080E+01  0.32426226417E+01  0.15175922393E+02  0.16315144829E+02  0.47000000000E+01 0.  1.
         -5    1    1    2    0  503  0.18085156080E+01 -0.32426226417E+01  0.88906667805E+01  0.10720041329E+02  0.47000000000E+01 0.  1.
<mgrwt>
<rscale>  2 0.59896018E+01</rscale>
<asrwt>0</asrwt>
<pdfrwt beam="1">  1       21 0.39309055E-02 0.59896018E+01</pdfrwt>
<pdfrwt beam="2">  1       21 0.22835363E-03 0.59896018E+01</pdfrwt>
<totfact> 0.34222687E+09</totfact>
</mgrwt>
</event>
<event>
 4    1  0.4039863E+006  0.6279912E+01  0.7546771E-02  0.2380357E+00
         21   -1    0    0  501  502  0.00000000000E+00  0.00000000000E+00  0.34185817514E+00  0.34185817514E+00  0.00000000000E+00 0. -1.
         21   -1    0    0  502  503 -0.00000000000E+00 -0.00000000000E+00 -0.17849442233E+03  0.17849442233E+03  0.00000000000E+00 0. -1.
          5    1    1    2  501    0 -0.37819762551E+01  0.17446922466E+01 -0.35897177863E+02  0.36442347262E+02  0.47000000000E+01 0. -1.
         -5    1    1    2    0  503  0.37819762551E+01 -0.17446922466E+01 -0.14225538629E+03  0.14239393324E+03  0.47000000000E+01 0. -1.
<mgrwt>
<rscale>  2 0.62799121E+01</rscale>
<asrwt>0</asrwt>
<pdfrwt beam="1">  1       21 0.52593527E-04 0.62799121E+01</pdfrwt>
<pdfrwt beam="2">  1       21 0.27460700E-01 0.62799121E+01</pdfrwt>
<totfact> 0.12664522E+09</totfact>
</mgrwt>
</event>
<event>
 4    1  0.4039863E+006  0.6284379E+01  0.7546771E-02  0.2379818E+00
         21   -1    0    0  501  502  0.00000000000E+00  0.00000000000E+00  0.32636631095E+02  0.32636631095E+02  0.00000000000E+00 0.  1.
         21   -1    0    0  502  503 -0.00000000000E+00 -0.00000000000E+00 -0.22444639007E+01  0.22444639007E+01  0.00000000000E+00 0. -1.
          5    1    1    2  501    0  0.13828814057E+01 -0.39358686882E+01  0.27035806392E+02  0.27756589319E+02  0.47000000000E+01 0.  1.
         -5    1    1    2    0  503 -0.13828814057E+01  0.39358686882E+01  0.33563608021E+01  0.71245056774E+01  0.47000000000E+01 0. -1.
<mgrwt>
<rscale>  2 0.62843793E+01</rscale>
<asrwt>0</asrwt>
<pdfrwt beam="1">  1       21 0.50210198E-02 0.62843793E+01</pdfrwt>
<pdfrwt beam="2">  1       21 0.34530216E-03 0.62843793E+01</pdfrwt>
<totfact> 0.14070479E+09</totfact>
</mgrwt>
</event>
<event>
 4    1  0.4039863E+006  0.5655785E+01  0.7546771E-02  0.2462499E+00
         21   -1    0    0  503  502  0.00000000000E+00  0.00000000000E+00  0.37167834775E+01  0.37167834775E+01  0.00000000000E+00 0. -1.
         21   -1    0    0  501  503 -0.00000000000E+00 -0.00000000000E+00 -0.22320789814E+02  0.22320789814E+02  0.00000000000E+00 0. -1.
          5    1    1    2  501    0  0.31409420779E+01  0.17996697606E+00 -0.19506812932E+02  0.20310186016E+02  0.47000000000E+01 0. -1.
         -5    1    1    2    0  502 -0.31409420779E+01 -0.17996697606E+00  0.90280659569E+00  0.57273872751E+01  0.47000000000E+01 0. -1.
<mgrwt>
<rscale>  2 0.56557851E+01</rscale>
<asrwt>0</asrwt>
<pdfrwt beam="1">  1       21 0.57181284E-03 0.56557851E+01</pdfrwt>
<pdfrwt beam="2">  1       21 0.34339677E-02 0.56557851E+01</pdfrwt>
<totfact> 0.11212345E+09</totfact>
</mgrwt>
</event>
<event>
 4    1  0.4039863E+006  0.5856468E+01  0.7546771E-02  0.2434487E+00
         21   -1    0    0  503  502  0.00000000000E+00  0.00000000000E+00  0.19145969505E+02  0.19145969505E+02  0.00000000000E+00 0. -1.
         21   -1    0    0  501  503 -0.00000000000E+00 -0.00000000000E+00 -0.33149356209E+01  0.33149356209E+01  0.00000000000E+00 0. -1.
          5    1    1    2  501    0 -0.14630964000E+01  0.31729436924E+01  0.30200514644E+00  0.58642501532E+01  0.47000000000E+01 0. -1.
         -5    1    1    2    0  502  0.14630964000E+01 -0.31729436924E+01  0.15529028738E+02  0.16596654973E+02  0.47000000000E+01 0. -1.
<mgrwt>
<rscale>  2 0.58564685E+01</rscale>
<asrwt>0</asrwt>
<pdfrwt beam="1">  1       21 0.29455337E-02 0.58564685E+01</pdfrwt>
<pdfrwt beam="2">  1       21 0.50999011E-03 0.58564685E+01</pdfrwt>
<totfact> 0.16919289E+09</totfact>
</mgrwt>
</event>
<event>
 4    1  0.4039863E+006  0.5612742E+01  0.7546771E-02  0.2468727E+00
         21   -1    0    0  503  502  0.00000000000E+00  0.00000000000E+00  0.18811896508E+00  0.18811896508E+00  0.00000000000E+00 0. -1.
         21   -1    0    0  501  503 -0.00000000000E+00 -0.00000000000E+00 -0.17106634682E+03  0.17106634682E+03  0.00000000000E+00 0. -1.
          5    1    1    2  501    0  0.30136377522E+01 -0.57520276620E+00 -0.97867457496E+02  0.98028271980E+02  0.47000000000E+01 0. -1.
         -5    1    1    2    0  502 -0.30136377522E+01  0.57520276620E+00 -0.73010770363E+02  0.73226193809E+02  0.47000000000E+01 0. -1.
<mgrwt>
<rscale>  2 0.56127418E+01</rscale>
<asrwt>0</asrwt>
<pdfrwt beam="1">  1       21 0.28941365E-04 0.56127418E+01</pdfrwt>
<pdfrwt beam="2">  1       21 0.26317913E-01 0.56127418E+01</pdfrwt>
<totfact> 0.27589483E+09</totfact>
</mgrwt>
</event>
<event>
 4    1  0.4039863E+006  0.4797569E+01  0.7546771E-02  0.2604368E+00
         21   -1    0    0  503  502  0.00000000000E+00  0.00000000000E+00  0.21043300040E+02  0.21043300040E+02  0.00000000000E+00 0. -1.
         21   -1    0    0  501  503 -0.00000000000E+00 -0.00000000000E+00 -0.39464152798E+02  0.39464152798E+02  0.00000000000E+00 0. -1.
          5    1    1    2  501    0  0.95975473687E+00 -0.74436795898E-01 -0.39041955257E+02  0.39335619231E+02  0.47000000000E+01 0. -1.
         -5    1    1    2    0  502 -0.95975473687E+00  0.74436795898E-01  0.20621102500E+02  0.21171833607E+02  0.47000000000E+01 0. -1.
<mgrwt>
<rscale>  2 0.47975692E+01</rscale>
<asrwt>0</asrwt>
<pdfrwt beam="1">  1       21 0.32374308E-02 0.47975692E+01</pdfrwt>
<pdfrwt beam="2">  1       21 0.60714081E-02 0.47975692E+01</pdfrwt>
<totfact> 0.37113053E+07</totfact>
</mgrwt>
</event>
<event>
 4    1  0.4039863E+006  0.5081598E+01  0.7546771E-02  0.2552879E+00
         21   -1    0    0  501  502  0.00000000000E+00  0.00000000000E+00  0.40107130552E+00  0.40107130552E+00  0.00000000000E+00 0. -1.
         21   -1    0    0  502  503 -0.00000000000E+00 -0.00000000000E+00 -0.53842392416E+03  0.53842392416E+03  0.00000000000E+00 0. -1.
          5    1    1    2  501    0  0.14560238416E+01 -0.12698966466E+01 -0.16219647479E+02  0.16997047016E+02  0.47000000000E+01 0. -1.
         -5    1    1    2    0  503 -0.14560238416E+01  0.12698966466E+01 -0.52180320538E+03  0.52182794845E+03  0.47000000000E+01 0. -1.
<mgrwt>
<rscale>  2 0.50815985E+01</rscale>
<asrwt>0</asrwt>
<pdfrwt beam="1">  1       21 0.61703062E-04 0.50815985E+01</pdfrwt>
<pdfrwt beam="2">  1       21 0.82834739E-01 0.50815985E+01</pdfrwt>
<totfact> 0.12192085E+08</totfact>
</mgrwt>
</event>
<event>
 4    1  0.4039863E+006  0.5882976E+01  0.7546771E-02  0.2430908E+00
         21   -1    0    0  501  502  0.00000000000E+00  0.00000000000E+00  0.13824593423E+03  0.13824593423E+03  0.00000000000E+00 0.  1.
         21   -1    0    0  502  503 -0.00000000000E+00 -0.00000000000E+00 -0.39524144544E+00  0.39524144544E+00  0.00000000000E+00 0.  1.
          5    1    1    2  501    0  0.34690009880E+01  0.69673189364E+00  0.11089713014E+03  0.11105306333E+03  0.47000000000E+01 0.  1.
         -5    1    1    2    0  503 -0.34690009880E+01 -0.69673189364E+00  0.26953562651E+02  0.27588112345E+02  0.47000000000E+01 0.  1.
<mgrwt>
<rscale>  2 0.58829757E+01</rscale>
<asrwt>0</asrwt>
<pdfrwt beam="1">  1       21 0.21268567E-01 0.58829757E+01</pdfrwt>
<pdfrwt beam="2">  1       21 0.60806486E-04 0.58829757E+01</pdfrwt>
<totfact> 0.15098595E+09</totfact>
</mgrwt>
</event>
<event>
 4    1  0.4039863E+006  0.5749885E+01  0.7546771E-02  0.2449159E+00
         21   -1    0    0  503  502  0.00000000000E+00  0.00000000000E+00  0.28868285116E+04  0.28868285116E+04  0.00000000000E+00 0. -1.
         21   -1    0    0  501  503 -0.00000000000E+00 -0.00000000000E+00 -0.14261397097E-01  0.14261397097E-01  0.00000000000E+00 0. -1.
          5    1    1    2  501    0  0.24365843843E+01 -0.22437104148E+01  0.20840057513E+04  0.20840136834E+04  0.47000000000E+01 0. -1.
         -5    1    1    2    0  502 -0.24365843843E+01  0.22437104148E+01  0.80280849897E+03  0.80282908965E+03  0.47000000000E+01 0. -1.
<mgrwt>
<rscale>  2 0.57498852E+01</rscale>
<asrwt>0</asrwt>
<pdfrwt beam="1">  1       21 0.44365992E+00 0.57498852E+01</pdfrwt>
<pdfrwt beam="2">  1       21 0.21963733E-05 0.57498852E+01</pdfrwt>
<totfact> 0.17430188E+08</totfact>
</mgrwt>
</event>
<event>
 4    1  0.4039863E+006  0.9569591E+01  0.7546771E-02  0.2100343E+00
         21   -1    0    0  501  502  0.00000000000E+00  0.00000000000E+00  0.54575478785E+03  0.54575478785E+03  0.00000000000E+00 0. -1.
         21   -1    0    0  502  503 -0.00000000000E+00 -0.00000000000E+00 -0.27385017770E+00  0.27385017770E+00  0.00000000000E+00 0. -1.
          5    1    1    2  501    0  0.43284011516E+01 -0.71240448570E+01  0.44263789311E+03  0.44274132571E+03  0.47000000000E+01 0. -1.
         -5    1    1    2    0  503 -0.43284011516E+01  0.71240448570E+01  0.10284304456E+03  0.10328731232E+03  0.47000000000E+01 0. -1.
<mgrwt>
<rscale>  2 0.95695910E+01</rscale>
<asrwt>0</asrwt>
<pdfrwt beam="1">  1       21 0.83961405E-01 0.95695910E+01</pdfrwt>
<pdfrwt beam="2">  1       21 0.42131233E-04 0.95695910E+01</pdfrwt>
<totfact> 0.28441898E+08</totfact>
</mgrwt>
</event>
<event>
 4    1  0.4039863E+006  0.5839953E+01  0.7546771E-02  0.2436731E+00
         21   -1    0    0  503  502  0.00000000000E+00  0.00000000000E+00  0.44980113072E+01  0.44980113072E+01  0.00000000000E+00 0. -1.
         21   -1    0    0  501  503 -0.00000000000E+00 -0.00000000000E+00 -0.95830215423E+01  0.95830215423E+01  0.00000000000E+00 0.  1.
          5    1    1    2  501    0 -0.15640024273E+01 -0.30933723845E+01 -0.57595105307E+01  0.82022568757E+01  0.47000000000E+01 0.  1.
         -5    1    1    2    0  502  0.15640024273E+01  0.30933723845E+01  0.67450029553E+00  0.58787759738E+01  0.47000000000E+01 0. -1.
<mgrwt>
<rscale>  2 0.58399535E+01</rscale>
<asrwt>0</asrwt>
<pdfrwt beam="1">  1       21 0.69200174E-03 0.58399535E+01</pdfrwt>
<pdfrwt beam="2">  1       21 0.14743110E-02 0.58399535E+01</pdfrwt>
<totfact> 0.29806378E+09</totfact>
</mgrwt>
</event>
<event>
 4    1  0.4039863E+006  0.7551213E+01  0.7546771E-02  0.2248768E+00
         21   -1    0    0  501  502  0.00000000000E+00  0.00000000000E+00  0.57090638804E+02  0.57090638804E+02  0.00000000000E+00 0.  1.
         21   -1    0    0  502  503 -0.00000000000E+00 -0.00000000000E+00 -0.10379640349E+01  0.10379640349E+01  0.00000000000E+00 0.  1.
          5    1    1    2  501    0 -0.17307665074E+01 -0.56511292235E+01  0.22379045892E+02  0.23618689829E+02  0.47000000000E+01 0.  1.
         -5    1    1    2    0  503  0.17307665074E+01  0.56511292235E+01  0.33673628877E+02  0.34509913009E+02  0.47000000000E+01 0.  1.
<mgrwt>
<rscale>  2 0.75512128E+01</rscale>
<asrwt>0</asrwt>
<pdfrwt beam="1">  1       21 0.87831727E-02 0.75512128E+01</pdfrwt>
<pdfrwt beam="2">  1       21 0.15968682E-03 0.75512128E+01</pdfrwt>
<totfact> 0.20021188E+09</totfact>
</mgrwt>
</event>
<event>
 4    1  0.4039863E+006  0.5108478E+01  0.7546771E-02  0.2548262E+00
         21   -1    0    0  501  502  0.00000000000E+00  0.00000000000E+00  0.15083305272E+01  0.15083305272E+01  0.00000000000E+00 0. -1.
         21   -1    0    0  502  503 -0.00000000000E+00 -0.00000000000E+00 -0.17306954411E+02  0.17306954411E+02  0.00000000000E+00 0. -1.
          5    1    1    2  501    0 -0.56803044241E+00  0.19193457913E+01 -0.80646267857E+01  0.95464523276E+01  0.47000000000E+01 0. -1.
         -5    1    1    2    0  503  0.56803044241E+00 -0.19193457913E+01 -0.77339970985E+01  0.92688326109E+01  0.47000000000E+01 0. -1.
<mgrwt>
<rscale>  2 0.51084779E+01</rscale>
<asrwt>0</asrwt>
<pdfrwt beam="1">  1       21 0.23205085E-03 0.51084779E+01</pdfrwt>
<pdfrwt beam="2">  1       21 0.26626084E-02 0.51084779E+01</pdfrwt>
<totfact> 0.50566478E+09</totfact>
</mgrwt>
</event>
<event>
 4    1  0.4039863E+006  0.5639505E+01  0.7546771E-02  0.2464845E+00
         21   -1    0    0  503  502  0.00000000000E+00  0.00000000000E+00  0.60278921297E+00  0.60278921297E+00  0.00000000000E+00 0. -1.
         21   -1    0    0  501  503 -0.00000000000E+00 -0.00000000000E+00 -0.57276184487E+02  0.57276184487E+02  0.00000000000E+00 0. -1.
          5    1    1    2  501    0 -0.14049382879E+01  0.27821144486E+01 -0.20211732034E+02  0.20983758581E+02  0.47000000000E+01 0. -1.
         -5    1    1    2    0  502  0.14049382879E+01 -0.27821144486E+01 -0.36461663240E+02  0.36895215118E+02  0.47000000000E+01 0. -1.
<mgrwt>
<rscale>  2 0.56395046E+01</rscale>
<asrwt>0</asrwt>
<pdfrwt beam="1">  1       21 0.92736778E-04 0.56395046E+01</pdfrwt>
<pdfrwt beam="2">  1       21 0.88117229E-02 0.56395046E+01</pdfrwt>
<totfact> 0.32874481E+09</totfact>
</mgrwt>
</event>
<event>
 4    1  0.4039863E+006  0.5020274E+01  0.7546771E-02  0.2563570E+00
         21   -1    0    0  501  502  0.00000000000E+00  0.00000000000E+00  0.15802230113E+01  0.15802230113E+01  0.00000000000E+00 0.  1.
         21   -1    0    0  502  503 -0.00000000000E+00 -0.00000000000E+00 -0.16983272578E+02  0.16983272578E+02  0.00000000000E+00 0. -1.
          5    1    1    2  501    0  0.15629660913E+01  0.81871108917E+00 -0.54111136091E+01  0.73812804676E+01  0.47000000000E+01 0.  1.
         -5    1    1    2    0  503 -0.15629660913E+01 -0.81871108917E+00 -0.99919359573E+01  0.11182215122E+02  0.47000000000E+01 0. -1.
<mgrwt>
<rscale>  2 0.50202740E+01</rscale>
<asrwt>0</asrwt>
<pdfrwt beam="1">  1       21 0.24311123E-03 0.50202740E+01</pdfrwt>
<pdfrwt beam="2">  1       21 0.26128112E-02 0.50202740E+01</pdfrwt>
<totfact> 0.47899021E+09</totfact>
</mgrwt>
</event>
<event>
 4    1  0.4039863E+006  0.5331548E+01  0.7546771E-02  0.2511497E+00
         21   -1    0    0  503  502  0.00000000000E+00  0.00000000000E+00  0.33282358775E-01  0.33282358775E-01  0.00000000000E+00 0. -1.
         21   -1    0    0  501  503 -0.00000000000E+00 -0.00000000000E+00 -0.19377889226E+04  0.19377889226E+04  0.00000000000E+00 0. -1.
          5    1    1    2  501    0  0.83441004618E+00  0.23746928474E+01 -0.16934628795E+04  0.16934712722E+04  0.47000000000E+01 0. -1.
         -5    1    1    2    0  502 -0.83441004618E+00 -0.23746928474E+01 -0.24429276067E+03  0.24435093272E+03  0.47000000000E+01 0. -1.
<mgrwt>
<rscale>  2 0.53315482E+01</rscale>
<asrwt>0</asrwt>
<pdfrwt beam="1">  1       21 0.51196736E-05 0.53315482E+01</pdfrwt>
<pdfrwt beam="2">  1       21 0.29816151E+00 0.53315482E+01</pdfrwt>
<totfact> 0.21883985E+08</totfact>
</mgrwt>
</event>
<event>
 4    1  0.4039863E+006  0.8603466E+01  0.7546771E-02  0.2164429E+00
         21   -1    0    0  503  502  0.00000000000E+00  0.00000000000E+00  0.19724433074E+02  0.19724433074E+02  0.00000000000E+00 0.  1.
         21   -1    0    0  501  503 -0.00000000000E+00 -0.00000000000E+00 -0.55822935481E+01  0.55822935481E+01  0.00000000000E+00 0. -1.
          5    1    1    2  501    0 -0.56353600953E+01  0.44913625298E+01  0.14315070947E+02  0.16701523193E+02  0.47000000000E+01 0.  1.
         -5    1    1    2    0  502  0.56353600953E+01 -0.44913625298E+01 -0.17293142031E+00  0.86052034290E+01  0.47000000000E+01 0. -1.
<mgrwt>
<rscale>  2 0.86034656E+01</rscale>
<asrwt>0</asrwt>
<pdfrwt beam="1">  1       21 0.30345281E-02 0.86034656E+01</pdfrwt>
<pdfrwt beam="2">  1       21 0.85881440E-03 0.86034656E+01</pdfrwt>
<totfact> 0.10340203E+09</totfact>
</mgrwt>
</event>
<event>
 4    1  0.4039863E+006  0.2916768E+02  0.7546771E-02  0.1607475E+00
         21   -1    0    0  503  502  0.00000000000E+00  0.00000000000E+00  0.28754413711E+03  0.28754413711E+03  0.00000000000E+00 0.  1.
         21   -1    0    0  501  503 -0.00000000000E+00 -0.00000000000E+00 -0.37011530925E+01  0.37011530925E+01  0.00000000000E+00 0. -1.
          5    1    1    2  501    0  0.17173378111E+01 -0.28735249853E+02  0.20714406952E+03  0.20918752202E+03  0.47000000000E+01 0.  1.
         -5    1    1    2    0  502 -0.17173378111E+01  0.28735249853E+02  0.76698914493E+02  0.82057768174E+02  0.47000000000E+01 0. -1.
<mgrwt>
<rscale>  2 0.29167685E+02</rscale>
<asrwt>0</asrwt>
<pdfrwt beam="1">  1       21 0.44237542E-01 0.29167685E+02</pdfrwt>
<pdfrwt beam="2">  1       21 0.56940840E-03 0.29167685E+02</pdfrwt>
<totfact> 0.35329458E+07</totfact>
</mgrwt>
</event>
<event>
 4    1  0.4039863E+006  0.5692571E+01  0.7546771E-02  0.2457240E+00
         21   -1    0    0  503  502  0.00000000000E+00  0.00000000000E+00  0.12148853262E+04  0.12148853262E+04  0.00000000000E+00 0. -1.
         21   -1    0    0  501  503 -0.00000000000E+00 -0.00000000000E+00 -0.34529555236E+00  0.34529555236E+00  0.00000000000E+00 0.  1.
          5    1    1    2  501    0  0.30981239571E+01 -0.84675292840E+00  0.23595051133E+02  0.24272037421E+02  0.47000000000E+01 0.  1.
         -5    1    1    2    0  502 -0.30981239571E+01  0.84675292840E+00  0.11909449795E+04  0.11909585843E+04  0.47000000000E+01 0. -1.
<mgrwt>
<rscale>  2 0.56925708E+01</rscale>
<asrwt>0</asrwt>
<pdfrwt beam="1">  1       21 0.18690201E+00 0.56925708E+01</pdfrwt>
<pdfrwt beam="2">  1       21 0.53123365E-04 0.56925708E+01</pdfrwt>
<totfact> 0.29532646E+07</totfact>
</mgrwt>
</event>
<event>
 4    1  0.4039863E+006  0.5739368E+01  0.7546771E-02  0.2450632E+00
         21   -1    0    0  501  502  0.00000000000E+00  0.00000000000E+00  0.20521047927E+02  0.20521047927E+02  0.00000000000E+00 0.  1.
         21   -1    0    0  502  503 -0.00000000000E+00 -0.00000000000E+00 -0.29334594643E+01  0.29334594643E+01  0.00000000000E+00 0. -1.
          5    1    1    2  501    0  0.14747196037E+01  0.29454278768E+01  0.16685085536E+02  0.17644614551E+02  0.47000000000E+01 0.  1.
         -5    1    1    2    0  503 -0.14747196037E+01 -0.29454278768E+01  0.90250292636E+00  0.58098928406E+01  0.47000000000E+01 0. -1.
<mgrwt>
<rscale>  2 0.57393678E+01</rscale>
<asrwt>0</asrwt>
<pdfrwt beam="1">  1       21 0.31570842E-02 0.57393678E+01</pdfrwt>
<pdfrwt beam="2">  1       21 0.45130147E-03 0.57393678E+01</pdfrwt>
<totfact> 0.17808009E+09</totfact>
</mgrwt>
</event>
<event>
 4    1  0.4039863E+006  0.6501890E+01  0.7546771E-02  0.2354346E+00
         21   -1    0    0  503  502  0.00000000000E+00  0.00000000000E+00  0.65812006793E+02  0.65812006793E+02  0.00000000000E+00 0.  1.
         21   -1    0    0  501  503 -0.00000000000E+00 -0.00000000000E+00 -0.67216047046E+00  0.67216047046E+00  0.00000000000E+00 0.  1.
          5    1    1    2  501    0 -0.39621570772E+01 -0.21179917049E+01  0.39570118455E+02  0.40100733810E+02  0.47000000000E+01 0.  1.
         -5    1    1    2    0  502  0.39621570772E+01  0.21179917049E+01  0.25569727867E+02  0.26383433453E+02  0.47000000000E+01 0.  1.
<mgrwt>
<rscale>  2 0.65018903E+01</rscale>
<asrwt>0</asrwt>
<pdfrwt beam="1">  1       21 0.10124919E-01 0.65018903E+01</pdfrwt>
<pdfrwt beam="2">  1       21 0.10340936E-03 0.65018903E+01</pdfrwt>
<totfact> 0.25922184E+09</totfact>
</mgrwt>
</event>
<event>
 4    1  0.4039863E+006  0.7741239E+01  0.7546771E-02  0.2232176E+00
         21   -1    0    0  503  502  0.00000000000E+00  0.00000000000E+00  0.88684552698E+00  0.88684552698E+00  0.00000000000E+00 0. -1.
         21   -1    0    0  501  503 -0.00000000000E+00 -0.00000000000E+00 -0.67587772685E+02  0.67587772685E+02  0.00000000000E+00 0.  1.
          5    1    1    2  501    0 -0.42817820918E+01  0.44162341691E+01 -0.32843702635E+02  0.33743674739E+02  0.47000000000E+01 0.  1.
         -5    1    1    2    0  502  0.42817820918E+01 -0.44162341691E+01 -0.33857224523E+02  0.34730943473E+02  0.47000000000E+01 0. -1.
<mgrwt>
<rscale>  2 0.77412391E+01</rscale>
<asrwt>0</asrwt>
<pdfrwt beam="1">  1       21 0.13643782E-03 0.77412391E+01</pdfrwt>
<pdfrwt beam="2">  1       21 0.10398115E-01 0.77412391E+01</pdfrwt>
<totfact> 0.19441045E+09</totfact>
</mgrwt>
</event>
<event>
 4    1  0.4039863E+006  0.5391452E+01  0.7546771E-02  0.2502068E+00
         21   -1    0    0  503  502  0.00000000000E+00  0.00000000000E+00  0.91658223396E+02  0.91658223396E+02  0.00000000000E+00 0. -1.
         21   -1    0    0  501  503 -0.00000000000E+00 -0.00000000000E+00 -0.10026168761E+01  0.10026168761E+01  0.00000000000E+00 0.  1.
          5    1    1    2  501    0  0.23998820380E+01 -0.11037763741E+01  0.70190806638E+01  0.88507202784E+01  0.47000000000E+01 0.  1.
         -5    1    1    2    0  502 -0.23998820380E+01  0.11037763741E+01  0.83636525856E+02  0.83810119993E+02  0.47000000000E+01 0. -1.
<mgrwt>
<rscale>  2 0.53914521E+01</rscale>
<asrwt>0</asrwt>
<pdfrwt beam="1">  1       21 0.14101259E-01 0.53914521E+01</pdfrwt>
<pdfrwt beam="2">  1       21 0.15424882E-03 0.53914521E+01</pdfrwt>
<totfact> 0.77642913E+08</totfact>
</mgrwt>
</event>
<event>
 4    1  0.4039863E+006  0.4880376E+01  0.7546771E-02  0.2588823E+00
         21   -1    0    0  501  502  0.00000000000E+00  0.00000000000E+00  0.31254376659E+00  0.31254376659E+00  0.00000000000E+00 0. -1.
         21   -1    0    0  502  503 -0.00000000000E+00 -0.00000000000E+00 -0.10734520940E+03  0.10734520940E+03  0.00000000000E+00 0.  1.
          5    1    1    2  501    0 -0.26389344722E+00 -0.12877986238E+01 -0.24524888119E+02  0.25005763381E+02  0.47000000000E+01 0. -1.
         -5    1    1    2    0  503  0.26389344722E+00  0.12877986238E+01 -0.82507777511E+02  0.82651989781E+02  0.47000000000E+01 0.  1.
<mgrwt>
<rscale>  2 0.48803755E+01</rscale>
<asrwt>0</asrwt>
<pdfrwt beam="1">  1       21 0.48083603E-04 0.48803755E+01</pdfrwt>
<pdfrwt beam="2">  1       21 0.16514666E-01 0.48803755E+01</pdfrwt>
<totfact> 0.26127017E+09</totfact>
</mgrwt>
</event>
<event>
 4    1  0.4039863E+006  0.6256137E+01  0.7546771E-02  0.2383233E+00
         21   -1    0    0  503  502  0.00000000000E+00  0.00000000000E+00  0.14588491455E+01  0.14588491455E+01  0.00000000000E+00 0. -1.
         21   -1    0    0  501  503 -0.00000000000E+00 -0.00000000000E+00 -0.39016851864E+02  0.39016851864E+02  0.00000000000E+00 0.  1.
          5    1    1    2  501    0  0.10398782137E+01 -0.39959852703E+01 -0.30090093133E+02  0.30733580165E+02  0.47000000000E+01 0.  1.
         -5    1    1    2    0  502 -0.10398782137E+01  0.39959852703E+01 -0.74679095858E+01  0.97421208452E+01  0.47000000000E+01 0. -1.
<mgrwt>
<rscale>  2 0.62561366E+01</rscale>
<asrwt>0</asrwt>
<pdfrwt beam="1">  1       21 0.22443834E-03 0.62561366E+01</pdfrwt>
<pdfrwt beam="2">  1       21 0.60025923E-02 0.62561366E+01</pdfrwt>
<totfact> 0.19415105E+09</totfact>
</mgrwt>
</event>
<event>
 4    1  0.4039863E+006  0.5946056E+01  0.7546771E-02  0.2422498E+00
         21   -1    0    0  501  502  0.00000000000E+00  0.00000000000E+00  0.52195822622E+01  0.52195822622E+01  0.00000000000E+00 0.  1.
         21   -1    0    0  502  503 -0.00000000000E+00 -0.00000000000E+00 -0.11436579628E+02  0.11436579628E+02  0.00000000000E+00 0.  1.
          5    1    1    2  501    0  0.28212245578E+01 -0.23035344118E+01  0.22092362667E+01  0.63432092567E+01  0.47000000000E+01 0.  1.
         -5    1    1    2    0  503 -0.28212245578E+01  0.23035344118E+01 -0.84262336327E+01  0.10312952634E+02  0.47000000000E+01 0.  1.
<mgrwt>
<rscale>  2 0.59460557E+01</rscale>
<asrwt>0</asrwt>
<pdfrwt beam="1">  1       21 0.80301266E-03 0.59460557E+01</pdfrwt>
<pdfrwt beam="2">  1       21 0.17594738E-02 0.59460557E+01</pdfrwt>
<totfact> 0.19108332E+09</totfact>
</mgrwt>
</event>
<event>
 4    1  0.4039863E+006  0.5585944E+01  0.7546771E-02  0.2472645E+00
         21   -1    0    0  503  502  0.00000000000E+00  0.00000000000E+00  0.15606248021E+02  0.15606248021E+02  0.00000000000E+00 0. -1.
         21   -1    0    0  501  503 -0.00000000000E+00 -0.00000000000E+00 -0.21877340471E+01  0.21877340471E+01  0.00000000000E+00 0. -1.
          5    1    1    2  501    0  0.29609218337E+01 -0.58797382660E+00  0.93198368045E+01  0.10865639852E+02  0.47000000000E+01 0. -1.
         -5    1    1    2    0  502 -0.29609218337E+01  0.58797382660E+00  0.40986771692E+01  0.69283422161E+01  0.47000000000E+01 0. -1.
<mgrwt>
<rscale>  2 0.55859441E+01</rscale>
<asrwt>0</asrwt>
<pdfrwt beam="1">  1       21 0.24009612E-02 0.55859441E+01</pdfrwt>
<pdfrwt beam="2">  1       21 0.33657448E-03 0.55859441E+01</pdfrwt>
<totfact> 0.38644490E+09</totfact>
</mgrwt>
</event>
<event>
 4    1  0.4039863E+006  0.4923903E+01  0.7546771E-02  0.2580833E+00
         21   -1    0    0  503  502  0.00000000000E+00  0.00000000000E+00  0.64192154777E+01  0.64192154777E+01  0.00000000000E+00 0.  1.
         21   -1    0    0  501  503 -0.00000000000E+00 -0.00000000000E+00 -0.37950367794E+01  0.37950367794E+01  0.00000000000E+00 0. -1.
          5    1    1    2  501    0 -0.91439438388E+00  0.11483467212E+01  0.16650246000E+01  0.51977999384E+01  0.47000000000E+01 0.  1.
         -5    1    1    2    0  502  0.91439438388E+00 -0.11483467212E+01  0.95915409819E+00  0.50164523187E+01  0.47000000000E+01 0. -1.
<mgrwt>
<rscale>  2 0.49239026E+01</rscale>
<asrwt>0</asrwt>
<pdfrwt beam="1">  1       21 0.98757161E-03 0.49239026E+01</pdfrwt>
<pdfrwt beam="2">  1       21 0.58385181E-03 0.49239026E+01</pdfrwt>
<totfact> 0.55975841E+09</totfact>
</mgrwt>
</event>
<event>
 4    1  0.4039863E+006  0.5930414E+01  0.7546771E-02  0.2424569E+00
         21   -1    0    0  501  502  0.00000000000E+00  0.00000000000E+00  0.34561279942E+01  0.34561279942E+01  0.00000000000E+00 0. -1.
         21   -1    0    0  502  503 -0.00000000000E+00 -0.00000000000E+00 -0.14581730248E+02  0.14581730248E+02  0.00000000000E+00 0. -1.
          5    1    1    2  501    0 -0.35381559125E+01  0.74917769135E+00 -0.60538078528E+00  0.59612331249E+01  0.47000000000E+01 0. -1.
         -5    1    1    2    0  503  0.35381559125E+01 -0.74917769135E+00 -0.10520221468E+02  0.12076625117E+02  0.47000000000E+01 0. -1.
<mgrwt>
<rscale>  2 0.59304144E+01</rscale>
<asrwt>0</asrwt>
<pdfrwt beam="1">  1       21 0.53171200E-03 0.59304144E+01</pdfrwt>
<pdfrwt beam="2">  1       21 0.22433431E-02 0.59304144E+01</pdfrwt>
<totfact> 0.23926294E+09</totfact>
</mgrwt>
</event>
<event>
 4    1  0.4039863E+006  0.7906291E+01  0.7546771E-02  0.2218291E+00
         21   -1    0    0  501  502  0.00000000000E+00  0.00000000000E+00  0.10087091540E+03  0.10087091540E+03  0.00000000000E+00 0. -1.
         21   -1    0    0  502  503 -0.00000000000E+00 -0.00000000000E+00 -0.10923425299E+01  0.10923425299E+01  0.00000000000E+00 0.  1.
          5    1    1    2  501    0 -0.50192165317E+01 -0.39021664369E+01  0.83424564342E+02  0.83798373332E+02  0.47000000000E+01 0. -1.
         -5    1    1    2    0  503  0.50192165317E+01  0.39021664369E+01  0.16354008525E+02  0.18164884595E+02  0.47000000000E+01 0.  1.
<mgrwt>
<rscale>  2 0.79062910E+01</rscale>
<asrwt>0</asrwt>
<pdfrwt beam="1">  1       21 0.15518595E-01 0.79062910E+01</pdfrwt>
<pdfrwt beam="2">  1       21 0.16805278E-03 0.79062910E+01</pdfrwt>
<totfact> 0.78398163E+08</totfact>
</mgrwt>
</event>
<event>
 4    1  0.4039863E+006  0.8146787E+01  0.7546771E-02  0.2198876E+00
         21   -1    0    0  501  502  0.00000000000E+00  0.00000000000E+00  0.10551957177E+04  0.10551957177E+04  0.00000000000E+00 0.  1.
         21   -1    0    0  502  503 -0.00000000000E+00 -0.00000000000E+00 -0.10669921448E+00  0.10669921448E+00  0.00000000000E+00 0. -1.
          5    1    1    2  501    0  0.65127759064E+01  0.13652409187E+01  0.86561508259E+03  0.86565341872E+03  0.47000000000E+01 0.  1.
         -5    1    1    2    0  503 -0.65127759064E+01 -0.13652409187E+01  0.18947393589E+03  0.18964899819E+03  0.47000000000E+01 0. -1.
<mgrwt>
<rscale>  2 0.81467867E+01</rscale>
<asrwt>0</asrwt>
<pdfrwt beam="1">  1       21 0.16232945E+00 0.81467867E+01</pdfrwt>
<pdfrwt beam="2">  1       21 0.16416109E-04 0.81467867E+01</pdfrwt>
<totfact> 0.23216464E+08</totfact>
</mgrwt>
</event>
<event>
 4    1  0.4039863E+006  0.5836953E+01  0.7546771E-02  0.2437140E+00
         21   -1    0    0  501  502  0.00000000000E+00  0.00000000000E+00  0.24228248938E+00  0.24228248938E+00  0.00000000000E+00 0.  1.
         21   -1    0    0  502  503 -0.00000000000E+00 -0.00000000000E+00 -0.16106238759E+03  0.16106238759E+03  0.00000000000E+00 0.  1.
          5    1    1    2  501    0 -0.12512808474E+01 -0.32271222505E+01 -0.51677489316E+02  0.52006085449E+02  0.47000000000E+01 0.  1.
         -5    1    1    2    0  503  0.12512808474E+01  0.32271222505E+01 -0.10914261579E+03  0.10929858463E+03  0.47000000000E+01 0.  1.
<mgrwt>
<rscale>  2 0.58369531E+01</rscale>
<asrwt>0</asrwt>
<pdfrwt beam="1">  1       21 0.37274131E-04 0.58369531E+01</pdfrwt>
<pdfrwt beam="2">  1       21 0.24778894E-01 0.58369531E+01</pdfrwt>
<totfact> 0.22471309E+09</totfact>
</mgrwt>
</event>
<event>
 4    1  0.4039863E+006  0.6218419E+01  0.7546771E-02  0.2387834E+00
         21   -1    0    0  501  502  0.00000000000E+00  0.00000000000E+00  0.38765901401E-01  0.38765901401E-01  0.00000000000E+00 0.  1.
         21   -1    0    0  502  503 -0.00000000000E+00 -0.00000000000E+00 -0.99751266370E+03  0.99751266370E+03  0.00000000000E+00 0.  1.
          5    1    1    2  501    0  0.39437112211E+01 -0.10128553098E+01 -0.49654989305E+03  0.49658882893E+03  0.47000000000E+01 0.  1.
         -5    1    1    2    0  503 -0.39437112211E+01  0.10128553098E+01 -0.50092400475E+03  0.50096260067E+03  0.47000000000E+01 0.  1.
<mgrwt>
<rscale>  2 0.62184189E+01</rscale>
<asrwt>0</asrwt>
<pdfrwt beam="1">  1       21 0.59633319E-05 0.62184189E+01</pdfrwt>
<pdfrwt beam="2">  1       21 0.15348029E+00 0.62184189E+01</pdfrwt>
<totfact> 0.88222371E+08</totfact>
</mgrwt>
</event>
<event>
 4    1  0.4039863E+006  0.1193106E+02  0.7546771E-02  0.1979310E+00
         21   -1    0    0  501  502  0.00000000000E+00  0.00000000000E+00  0.21762193928E+02  0.21762193928E+02  0.00000000000E+00 0. -1.
         21   -1    0    0  502  503 -0.00000000000E+00 -0.00000000000E+00 -0.29818502914E+02  0.29818502914E+02  0.00000000000E+00 0.  1.
          5    1    1    2  501    0 -0.53438151572E+01 -0.95762161682E+01  0.18758515999E+02  0.22231333722E+02  0.47000000000E+01 0. -1.
         -5    1    1    2    0  503  0.53438151572E+01  0.95762161682E+01 -0.26814824986E+02  0.29349363120E+02  0.47000000000E+01 0.  1.
<mgrwt>
<rscale>  2 0.11931064E+02</rscale>
<asrwt>0</asrwt>
<pdfrwt beam="1">  1       21 0.33480299E-02 0.11931064E+02</pdfrwt>
<pdfrwt beam="2">  1       21 0.45874620E-02 0.11931064E+02</pdfrwt>
<totfact> 0.88309499E+07</totfact>
</mgrwt>
</event>
<event>
 4    1  0.4039863E+006  0.4930526E+01  0.7546771E-02  0.2579628E+00
         21   -1    0    0  501  502  0.00000000000E+00  0.00000000000E+00  0.15469705159E-01  0.15469705159E-01  0.00000000000E+00 0. -1.
         21   -1    0    0  502  503 -0.00000000000E+00 -0.00000000000E+00 -0.17429349763E+04  0.17429349763E+04  0.00000000000E+00 0. -1.
          5    1    1    2  501    0  0.51331731336E+00  0.13987815044E+01 -0.59811559718E+03  0.59813591907E+03  0.47000000000E+01 0. -1.
         -5    1    1    2    0  503 -0.51331731336E+00 -0.13987815044E+01 -0.11448039094E+04  0.11448145269E+04  0.47000000000E+01 0. -1.
<mgrwt>
<rscale>  2 0.49305258E+01</rscale>
<asrwt>0</asrwt>
<pdfrwt beam="1">  1       21 0.23804440E-05 0.49305258E+01</pdfrwt>
<pdfrwt beam="2">  1       21 0.26808872E+00 0.49305258E+01</pdfrwt>
<totfact> 0.78105462E+08</totfact>
</mgrwt>
</event>
<event>
 4    1  0.4039863E+006  0.8529349E+01  0.7546771E-02  0.2169819E+00
         21   -1    0    0  503  502  0.00000000000E+00  0.00000000000E+00  0.41048654683E+00  0.41048654683E+00  0.00000000000E+00 0. -1.
         21   -1    0    0  501  503 -0.00000000000E+00 -0.00000000000E+00 -0.17855602210E+03  0.17855602210E+03  0.00000000000E+00 0. -1.
          5    1    1    2  501    0 -0.53104760142E+01 -0.47390552776E+01 -0.81356255730E+02  0.81802140234E+02  0.47000000000E+01 0. -1.
         -5    1    1    2    0  502  0.53104760142E+01  0.47390552776E+01 -0.96789279823E+02  0.97164368413E+02  0.47000000000E+01 0. -1.
<mgrwt>
<rscale>  2 0.85293494E+01</rscale>
<asrwt>0</asrwt>
<pdfrwt beam="1">  1       21 0.63151678E-04 0.85293494E+01</pdfrwt>
<pdfrwt beam="2">  1       21 0.27470200E-01 0.85293494E+01</pdfrwt>
<totfact> 0.12157961E+09</totfact>
</mgrwt>
</event>
<event>
 4    1  0.4039863E+006  0.5788877E+01  0.7546771E-02  0.2443739E+00
         21   -1    0    0  503  502  0.00000000000E+00  0.00000000000E+00  0.24841507981E+01  0.24841507981E+01  0.00000000000E+00 0.  1.
         21   -1    0    0  501  503 -0.00000000000E+00 -0.00000000000E+00 -0.13497998879E+02  0.13497998879E+02  0.00000000000E+00 0.  1.
          5    1    1    2  501    0 -0.70915182151E-01  0.33787670140E+01 -0.57019362209E+01  0.81254644277E+01  0.47000000000E+01 0.  1.
         -5    1    1    2    0  502  0.70915182151E-01 -0.33787670140E+01 -0.53119118596E+01  0.78566852490E+01  0.47000000000E+01 0.  1.
<mgrwt>
<rscale>  2 0.57888769E+01</rscale>
<asrwt>0</asrwt>
<pdfrwt beam="1">  1       21 0.38217705E-03 0.57888769E+01</pdfrwt>
<pdfrwt beam="2">  1       21 0.20766152E-02 0.57888769E+01</pdfrwt>
<totfact> 0.41315822E+09</totfact>
</mgrwt>
</event>
<event>
 4    1  0.4039863E+006  0.7229224E+01  0.7546771E-02  0.2278487E+00
         21   -1    0    0  501  502  0.00000000000E+00  0.00000000000E+00  0.40886313065E+01  0.40886313065E+01  0.00000000000E+00 0.  1.
         21   -1    0    0  502  503 -0.00000000000E+00 -0.00000000000E+00 -0.13024679770E+02  0.13024679770E+02  0.00000000000E+00 0.  1.
          5    1    1    2  501    0  0.51818406761E+01 -0.18221419039E+01 -0.33005033209E+01  0.79470117706E+01  0.47000000000E+01 0.  1.
         -5    1    1    2    0  503 -0.51818406761E+01  0.18221419039E+01 -0.56355451427E+01  0.91662993059E+01  0.47000000000E+01 0.  1.
<mgrwt>
<rscale>  2 0.72292236E+01</rscale>
<asrwt>0</asrwt>
<pdfrwt beam="1">  1       21 0.62902019E-03 0.72292236E+01</pdfrwt>
<pdfrwt beam="2">  1       21 0.20037969E-02 0.72292236E+01</pdfrwt>
<totfact> 0.26212994E+09</totfact>
</mgrwt>
</event>
<event>
 4    1  0.4039863E+006  0.5992284E+01  0.7546771E-02  0.2416429E+00
         21   -1    0    0  503  502  0.00000000000E+00  0.00000000000E+00  0.23093976459E+02  0.23093976459E+02  0.00000000000E+00 0.  1.
         21   -1    0    0  501  503 -0.00000000000E+00 -0.00000000000E+00 -0.18126983234E+01  0.18126983234E+01  0.00000000000E+00 0.  1.
          5    1    1    2  501    0  0.18359711877E+01 -0.32321322095E+01  0.59437267352E+01  0.84401040471E+01  0.47000000000E+01 0.  1.
         -5    1    1    2    0  502 -0.18359711877E+01  0.32321322095E+01  0.15337551400E+02  0.16466570735E+02  0.47000000000E+01 0.  1.
<mgrwt>
<rscale>  2 0.59922841E+01</rscale>
<asrwt>0</asrwt>
<pdfrwt beam="1">  1       21 0.35529193E-02 0.59922841E+01</pdfrwt>
<pdfrwt beam="2">  1       21 0.27887668E-03 0.59922841E+01</pdfrwt>
<totfact> 0.30203856E+09</totfact>
</mgrwt>
</event>
<event>
 4    1  0.4039863E+006  0.5945258E+01  0.7546771E-02  0.2422603E+00
         21   -1    0    0  503  502  0.00000000000E+00  0.00000000000E+00  0.80059830663E+02  0.80059830663E+02  0.00000000000E+00 0. -1.
         21   -1    0    0  501  503 -0.00000000000E+00 -0.00000000000E+00 -0.11934427703E+01  0.11934427703E+01  0.00000000000E+00 0. -1.
          5    1    1    2  501    0  0.31770611732E+01  0.17783061113E+01  0.71851306381E+01  0.93258883014E+01  0.47000000000E+01 0. -1.
         -5    1    1    2    0  502 -0.31770611732E+01 -0.17783061113E+01  0.71681257254E+02  0.71927385132E+02  0.47000000000E+01 0. -1.
<mgrwt>
<rscale>  2 0.59452578E+01</rscale>
<asrwt>0</asrwt>
<pdfrwt beam="1">  1       21 0.12316893E-01 0.59452578E+01</pdfrwt>
<pdfrwt beam="2">  1       21 0.18360664E-03 0.59452578E+01</pdfrwt>
<totfact> 0.81900522E+08</totfact>
</mgrwt>
</event>
<event>
 4    1  0.4039863E+006  0.5457189E+01  0.7546771E-02  0.2491924E+00
         21   -1    0    0  503  502  0.00000000000E+00  0.00000000000E+00  0.17359623344E+02  0.17359623344E+02  0.00000000000E+00 0. -1.
         21   -1    0    0  501  503 -0.00000000000E+00 -0.00000000000E+00 -0.17187594704E+01  0.17187594704E+01  0.00000000000E+00 0.  1.
          5    1    1    2  501    0  0.22262290837E+01 -0.16537287317E+01  0.82340737955E+01  0.98783037978E+01  0.47000000000E+01 0.  1.
         -5    1    1    2    0  502 -0.22262290837E+01  0.16537287317E+01  0.74067900785E+01  0.92000790169E+01  0.47000000000E+01 0.  1.
<mgrwt>
<rscale>  2 0.54571893E+01</rscale>
<asrwt>0</asrwt>
<pdfrwt beam="1">  1       21 0.26707111E-02 0.54571893E+01</pdfrwt>
<pdfrwt beam="2">  1       21 0.26442455E-03 0.54571893E+01</pdfrwt>
<totfact> 0.45100100E+09</totfact>
</mgrwt>
</event>
<event>
 4    1  0.4039863E+006  0.6518808E+01  0.7546771E-02  0.2352424E+00
         21   -1    0    0  503  502  0.00000000000E+00  0.00000000000E+00  0.12856850201E+04  0.12856850201E+04  0.00000000000E+00 0. -1.
         21   -1    0    0  501  503 -0.00000000000E+00 -0.00000000000E+00 -0.40488767477E-01  0.40488767477E-01  0.00000000000E+00 0. -1.
          5    1    1    2  501    0 -0.41088757843E+01  0.18766995015E+01  0.36731439862E+03  0.36737223942E+03  0.47000000000E+01 0. -1.
         -5    1    1    2    0  502  0.41088757843E+01 -0.18766995015E+01  0.91833013272E+03  0.91835326945E+03  0.47000000000E+01 0. -1.
<mgrwt>
<rscale>  2 0.65188083E+01</rscale>
<asrwt>0</asrwt>
<pdfrwt beam="1">  1       21 0.19776500E+00 0.65188083E+01</pdfrwt>
<pdfrwt beam="2">  1       21 0.62300709E-05 0.65188083E+01</pdfrwt>
<totfact> 0.48836384E+08</totfact>
</mgrwt>
</event>
<event>
 4    1  0.4039863E+006  0.5060774E+01  0.7546771E-02  0.2556484E+00
         21   -1    0    0  503  502  0.00000000000E+00  0.00000000000E+00  0.26720737711E+03  0.26720737711E+03  0.00000000000E+00 0. -1.
         21   -1    0    0  501  503 -0.00000000000E+00 -0.00000000000E+00 -0.17333368470E+00  0.17333368470E+00  0.00000000000E+00 0. -1.
          5    1    1    2  501    0  0.17853207351E+01 -0.57798615739E+00  0.44131371165E+02  0.44420596113E+02  0.47000000000E+01 0. -1.
         -5    1    1    2    0  502 -0.17853207351E+01  0.57798615739E+00  0.22290267226E+03  0.22296011469E+03  0.47000000000E+01 0. -1.
<mgrwt>
<rscale>  2 0.50607745E+01</rscale>
<asrwt>0</asrwt>
<pdfrwt beam="1">  1       21 0.41108498E-01 0.50607745E+01</pdfrwt>
<pdfrwt beam="2">  1       21 0.26666935E-04 0.50607745E+01</pdfrwt>
<totfact> 0.13261802E+09</totfact>
</mgrwt>
</event>
<event>
 4    1  0.4039863E+006  0.5648238E+01  0.7546771E-02  0.2463585E+00
         21   -1    0    0  503  502  0.00000000000E+00  0.00000000000E+00  0.16206898012E+01  0.16206898012E+01  0.00000000000E+00 0.  1.
         21   -1    0    0  501  503 -0.00000000000E+00 -0.00000000000E+00 -0.19685853602E+02  0.19685853602E+02  0.00000000000E+00 0. -1.
          5    1    1    2  501    0 -0.12303504388E+01  0.28807682190E+01 -0.89466795815E+01  0.10580437764E+02  0.47000000000E+01 0.  1.
         -5    1    1    2    0  502  0.12303504388E+01 -0.28807682190E+01 -0.91184842194E+01  0.10726105640E+02  0.47000000000E+01 0.  1.
<mgrwt>
<rscale>  2 0.56482376E+01</rscale>
<asrwt>0</asrwt>
<pdfrwt beam="1">  1       21 0.24933690E-03 0.56482376E+01</pdfrwt>
<pdfrwt beam="2">  1       21 0.30285927E-02 0.56482376E+01</pdfrwt>
<totfact> 0.42091896E+09</totfact>
</mgrwt>
</event>
<event>
 4    1  0.4039863E+006  0.1140761E+02  0.7546771E-02  0.2002745E+00
         21   -1    0    0  501  502  0.00000000000E+00  0.00000000000E+00  0.14552722398E+01  0.14552722398E+01  0.00000000000E+00 0. -1.
         21   -1    0    0  502  503 -0.00000000000E+00 -0.00000000000E+00 -0.10273401932E+03  0.10273401932E+03  0.00000000000E+00 0.  1.
          5    1    1    2  501    0  0.89105911059E+01  0.53521030071E+01 -0.31887066261E+02  0.33866187196E+02  0.47000000000E+01 0. -1.
         -5    1    1    2    0  503 -0.89105911059E+01 -0.53521030071E+01 -0.69391680823E+02  0.70323104368E+02  0.47000000000E+01 0.  1.
<mgrwt>
<rscale>  2 0.11407613E+02</rscale>
<asrwt>0</asrwt>
<pdfrwt beam="1">  1       21 0.22388801E-03 0.11407613E+02</pdfrwt>
<pdfrwt beam="2">  1       21 0.15805236E-01 0.11407613E+02</pdfrwt>
<totfact> 0.62677375E+08</totfact>
</mgrwt>
</event>
<event>
 4    1  0.4039863E+006  0.1067230E+02  0.7546771E-02  0.2038631E+00
         21   -1    0    0  501  502  0.00000000000E+00  0.00000000000E+00  0.18574487963E+02  0.18574487963E+02  0.00000000000E+00 0.  1.
         21   -1    0    0  502  503 -0.00000000000E+00 -0.00000000000E+00 -0.13096740459E+02  0.13096740459E+02  0.00000000000E+00 0.  1.
          5    1    1    2  501    0 -0.75197399617E+01 -0.59381412320E+01  0.14286880513E+02  0.17832918022E+02  0.47000000000E+01 0.  1.
         -5    1    1    2    0  503  0.75197399617E+01  0.59381412320E+01 -0.88091330084E+01  0.13838310401E+02  0.47000000000E+01 0.  1.
<mgrwt>
<rscale>  2 0.10672301E+02</rscale>
<asrwt>0</asrwt>
<pdfrwt beam="1">  1       21 0.28576135E-02 0.10672301E+02</pdfrwt>
<pdfrwt beam="2">  1       21 0.20148831E-02 0.10672301E+02</pdfrwt>
<totfact> 0.36919203E+08</totfact>
</mgrwt>
</event>
<event>
 4    1  0.4039863E+006  0.6250913E+01  0.7546771E-02  0.2383868E+00
         21   -1    0    0  501  502  0.00000000000E+00  0.00000000000E+00  0.77145289863E-01  0.77145289863E-01  0.00000000000E+00 0. -1.
         21   -1    0    0  502  503 -0.00000000000E+00 -0.00000000000E+00 -0.85853579861E+03  0.85853579861E+03  0.00000000000E+00 0. -1.
          5    1    1    2  501    0  0.24669605430E+01  0.33012141073E+01 -0.15432404211E+03  0.15445058719E+03  0.47000000000E+01 0. -1.
         -5    1    1    2    0  503 -0.24669605430E+01 -0.33012141073E+01 -0.70413461120E+03  0.70416235671E+03  0.47000000000E+01 0. -1.
<mgrwt>
<rscale>  2 0.62509126E+01</rscale>
<asrwt>0</asrwt>
<pdfrwt beam="1">  1       21 0.11869088E-04 0.62509126E+01</pdfrwt>
<pdfrwt beam="2">  1       21 0.13207596E+00 0.62509126E+01</pdfrwt>
<totfact> 0.48621458E+08</totfact>
</mgrwt>
</event>
<event>
 4    1  0.4039863E+006  0.6911986E+01  0.7546771E-02  0.2309959E+00
         21   -1    0    0  503  502  0.00000000000E+00  0.00000000000E+00  0.25084104245E+01  0.25084104245E+01  0.00000000000E+00 0.  1.
         21   -1    0    0  501  503 -0.00000000000E+00 -0.00000000000E+00 -0.32591249473E+02  0.32591249473E+02  0.00000000000E+00 0.  1.
          5    1    1    2  501    0 -0.90616390546E-01  0.50672807291E+01 -0.26355352674E+02  0.27246654104E+02  0.47000000000E+01 0.  1.
         -5    1    1    2    0  502  0.90616390546E-01 -0.50672807291E+01 -0.37274863752E+01  0.78530057936E+01  0.47000000000E+01 0.  1.
<mgrwt>
<rscale>  2 0.69119856E+01</rscale>
<asrwt>0</asrwt>
<pdfrwt beam="1">  1       21 0.38590934E-03 0.69119856E+01</pdfrwt>
<pdfrwt beam="2">  1       21 0.50140378E-02 0.69119856E+01</pdfrwt>
<totfact> 0.13007213E+09</totfact>
</mgrwt>
</event>
<event>
 4    1  0.4039863E+006  0.5134005E+01  0.7546771E-02  0.2543917E+00
         21   -1    0    0  501  502  0.00000000000E+00  0.00000000000E+00  0.16326189393E+02  0.16326189393E+02  0.00000000000E+00 0.  1.
         21   -1    0    0  502  503 -0.00000000000E+00 -0.00000000000E+00 -0.35105032111E+01  0.35105032111E+01  0.00000000000E+00 0.  1.
          5    1    1    2  501    0 -0.20658564962E+01  0.15609368926E-01  0.13697020265E+02  0.14627589372E+02  0.47000000000E+01 0.  1.
         -5    1    1    2    0  503  0.20658564962E+01 -0.15609368926E-01 -0.88133408269E+00  0.52091032319E+01  0.47000000000E+01 0.  1.
<mgrwt>
<rscale>  2 0.51340049E+01</rscale>
<asrwt>0</asrwt>
<pdfrwt beam="1">  1       21 0.25117214E-02 0.51340049E+01</pdfrwt>
<pdfrwt beam="2">  1       21 0.54007743E-03 0.51340049E+01</pdfrwt>
<totfact> 0.17437937E+09</totfact>
</mgrwt>
</event>
<event>
 4    1  0.4039863E+006  0.6352967E+01  0.7546771E-02  0.2371630E+00
         21   -1    0    0  501  502  0.00000000000E+00  0.00000000000E+00  0.14316428780E+04  0.14316428780E+04  0.00000000000E+00 0. -1.
         21   -1    0    0  502  503 -0.00000000000E+00 -0.00000000000E+00 -0.39374373411E-01  0.39374373411E-01  0.00000000000E+00 0.  1.
          5    1    1    2  501    0  0.14852690545E+01 -0.40080118987E+01  0.10972944286E+04  0.10973128192E+04  0.47000000000E+01 0. -1.
         -5    1    1    2    0  503 -0.14852690545E+01  0.40080118987E+01  0.33430907506E+03  0.33436943319E+03  0.47000000000E+01 0.  1.
<mgrwt>
<rscale>  2 0.63529665E+01</rscale>
<asrwt>0</asrwt>
<pdfrwt beam="1">  1       21 0.22021107E+00 0.63529665E+01</pdfrwt>
<pdfrwt beam="2">  1       21 0.60587426E-05 0.63529665E+01</pdfrwt>
<totfact> 0.39168245E+08</totfact>
</mgrwt>
</event>
<event>
 4    1  0.4039863E+006  0.1269902E+02  0.7546771E-02  0.1947656E+00
         21   -1    0    0  503  502  0.00000000000E+00  0.00000000000E+00  0.24976586414E+00  0.24976586414E+00  0.00000000000E+00 0.  1.
         21   -1    0    0  501  503 -0.00000000000E+00 -0.00000000000E+00 -0.10927228263E+04  0.10927228263E+04  0.00000000000E+00 0. -1.
          5    1    1    2  501    0 -0.67893844319E+01  0.96477658577E+01 -0.89578388619E+03  0.89587389508E+03  0.47000000000E+01 0. -1.
         -5    1    1    2    0  502  0.67893844319E+01 -0.96477658577E+01 -0.19668917426E+03  0.19709869710E+03  0.47000000000E+01 0.  1.
<mgrwt>
<rscale>  2 0.12699021E+02</rscale>
<asrwt>0</asrwt>
<pdfrwt beam="1">  1       21 0.38425977E-04 0.12699021E+02</pdfrwt>
<pdfrwt beam="2">  1       21 0.16810919E+00 0.12699021E+02</pdfrwt>
<totfact> 0.79844106E+07</totfact>
</mgrwt>
</event>
<event>
 4    1  0.4039863E+006  0.2640750E+02  0.7546771E-02  0.1641571E+00
         21   -1    0    0  501  502  0.00000000000E+00  0.00000000000E+00  0.66863710592E+01  0.66863710592E+01  0.00000000000E+00 0.  1.
         21   -1    0    0  502  503 -0.00000000000E+00 -0.00000000000E+00 -0.10463918034E+03  0.10463918034E+03  0.00000000000E+00 0. -1.
          5    1    1    2  501    0 -0.17132009480E+02  0.19538683219E+02 -0.52168186735E+02  0.58471151844E+02  0.47000000000E+01 0.  1.
         -5    1    1    2    0  503  0.17132009480E+02 -0.19538683219E+02 -0.45784622551E+02  0.52854399560E+02  0.47000000000E+01 0. -1.
<mgrwt>
<rscale>  2 0.26407497E+02</rscale>
<asrwt>0</asrwt>
<pdfrwt beam="1">  1       21 0.10286726E-02 0.26407497E+02</pdfrwt>
<pdfrwt beam="2">  1       21 0.16098334E-01 0.26407497E+02</pdfrwt>
<totfact> 0.89059784E+07</totfact>
</mgrwt>
</event>
<event>
 4    1  0.4039863E+006  0.9672856E+01  0.7546771E-02  0.2094098E+00
         21   -1    0    0  503  502  0.00000000000E+00  0.00000000000E+00  0.67513307586E+00  0.67513307586E+00  0.00000000000E+00 0.  1.
         21   -1    0    0  501  503 -0.00000000000E+00 -0.00000000000E+00 -0.17666990236E+03  0.17666990236E+03  0.00000000000E+00 0. -1.
          5    1    1    2  501    0  0.54690932262E+01  0.64469495254E+01 -0.46827728477E+02  0.47816318273E+02  0.47000000000E+01 0.  1.
         -5    1    1    2    0  502 -0.54690932262E+01 -0.64469495254E+01 -0.12916704081E+03  0.12952871716E+03  0.47000000000E+01 0. -1.
<mgrwt>
<rscale>  2 0.96728558E+01</rscale>
<asrwt>0</asrwt>
<pdfrwt beam="1">  1       21 0.10386650E-03 0.96728558E+01</pdfrwt>
<pdfrwt beam="2">  1       21 0.27180019E-01 0.96728558E+01</pdfrwt>
<totfact> 0.67340303E+08</totfact>
</mgrwt>
</event>
<event>
 4    1  0.4039863E+006  0.6432204E+01  0.7546771E-02  0.2362351E+00
         21   -1    0    0  503  502  0.00000000000E+00  0.00000000000E+00  0.78338744461E+02  0.78338744461E+02  0.00000000000E+00 0.  1.
         21   -1    0    0  501  503 -0.00000000000E+00 -0.00000000000E+00 -0.62800558869E+00  0.62800558869E+00  0.00000000000E+00 0.  1.
          5    1    1    2  501    0 -0.37343366469E+01  0.23104055777E+01  0.54600873063E+02  0.54978437441E+02  0.47000000000E+01 0.  1.
         -5    1    1    2    0  502  0.37343366469E+01 -0.23104055777E+01  0.23109865809E+02  0.23988312609E+02  0.47000000000E+01 0.  1.
<mgrwt>
<rscale>  2 0.64322037E+01</rscale>
<asrwt>0</asrwt>
<pdfrwt beam="1">  1       21 0.12052107E-01 0.64322037E+01</pdfrwt>
<pdfrwt beam="2">  1       21 0.96616306E-04 0.64322037E+01</pdfrwt>
<totfact> 0.21487940E+09</totfact>
</mgrwt>
</event>
<event>
 4    1  0.4039863E+006  0.5280561E+01  0.7546771E-02  0.2519666E+00
         21   -1    0    0  501  502  0.00000000000E+00  0.00000000000E+00  0.25525104263E+02  0.25525104263E+02  0.00000000000E+00 0.  1.
         21   -1    0    0  502  503 -0.00000000000E+00 -0.00000000000E+00 -0.18944352200E+01  0.18944352200E+01  0.00000000000E+00 0.  1.
          5    1    1    2  501    0  0.21451956643E+01  0.10919987799E+01  0.20735636489E+02  0.21397451867E+02  0.47000000000E+01 0.  1.
         -5    1    1    2    0  503 -0.21451956643E+01 -0.10919987799E+01  0.28950325542E+01  0.60220876167E+01  0.47000000000E+01 0.  1.
<mgrwt>
<rscale>  2 0.52805611E+01</rscale>
<asrwt>0</asrwt>
<pdfrwt beam="1">  1       21 0.39269389E-02 0.52805611E+01</pdfrwt>
<pdfrwt beam="2">  1       21 0.29145159E-03 0.52805611E+01</pdfrwt>
<totfact> 0.21904364E+09</totfact>
</mgrwt>
</event>
<event>
 4    1  0.4039863E+006  0.7044845E+01  0.7546771E-02  0.2296496E+00
         21   -1    0    0  501  502  0.00000000000E+00  0.00000000000E+00  0.23671623072E+00  0.23671623072E+00  0.00000000000E+00 0.  1.
         21   -1    0    0  502  503 -0.00000000000E+00 -0.00000000000E+00 -0.38997432185E+03  0.38997432185E+03  0.00000000000E+00 0. -1.
          5    1    1    2  501    0  0.15571755938E+01  0.50114915546E+01 -0.62200530061E+02  0.62598209106E+02  0.47000000000E+01 0.  1.
         -5    1    1    2    0  503 -0.15571755938E+01 -0.50114915546E+01 -0.32753707556E+03  0.32761282898E+03  0.47000000000E+01 0. -1.
<mgrwt>
<rscale>  2 0.70448452E+01</rscale>
<asrwt>0</asrwt>
<pdfrwt beam="1">  1       21 0.36418064E-04 0.70448452E+01</pdfrwt>
<pdfrwt beam="2">  1       21 0.59995750E-01 0.70448452E+01</pdfrwt>
<totfact> 0.56467088E+08</totfact>
</mgrwt>
</event>
<event>
 4    1  0.4039863E+006  0.6329133E+01  0.7546771E-02  0.2374459E+00
         21   -1    0    0  501  502  0.00000000000E+00  0.00000000000E+00  0.14308273839E+01  0.14308273839E+01  0.00000000000E+00 0. -1.
         21   -1    0    0  502  503 -0.00000000000E+00 -0.00000000000E+00 -0.29324959114E+02  0.29324959114E+02  0.00000000000E+00 0. -1.
          5    1    1    2  501    0  0.34263554553E+01  0.24955974408E+01 -0.17220319889E+02  0.18346589203E+02  0.47000000000E+01 0. -1.
         -5    1    1    2    0  503 -0.34263554553E+01 -0.24955974408E+01 -0.10673811841E+02  0.12409197295E+02  0.47000000000E+01 0. -1.
<mgrwt>
<rscale>  2 0.63291325E+01</rscale>
<asrwt>0</asrwt>
<pdfrwt beam="1">  1       21 0.22012731E-03 0.63291325E+01</pdfrwt>
<pdfrwt beam="2">  1       21 0.45115317E-02 0.63291325E+01</pdfrwt>
<totfact> 0.30808496E+09</totfact>
</mgrwt>
</event>
<event>
 4    1  0.4039863E+006  0.5541080E+01  0.7546771E-02  0.2479276E+00
         21   -1    0    0  503  502  0.00000000000E+00  0.00000000000E+00  0.52805394230E+02  0.52805394230E+02  0.00000000000E+00 0. -1.
         21   -1    0    0  501  503 -0.00000000000E+00 -0.00000000000E+00 -0.63415101306E+00  0.63415101306E+00  0.00000000000E+00 0. -1.
          5    1    1    2  501    0  0.10361839455E+01  0.27458862806E+01  0.18382693056E+02  0.19199660743E+02  0.47000000000E+01 0. -1.
         -5    1    1    2    0  502 -0.10361839455E+01 -0.27458862806E+01  0.33788550161E+02  0.34239884500E+02  0.47000000000E+01 0. -1.
<mgrwt>
<rscale>  2 0.55410801E+01</rscale>
<asrwt>0</asrwt>
<pdfrwt beam="1">  1       21 0.81239033E-02 0.55410801E+01</pdfrwt>
<pdfrwt beam="2">  1       21 0.97561737E-04 0.55410801E+01</pdfrwt>
<totfact> 0.34185390E+09</totfact>
</mgrwt>
</event>
<event>
 4    1  0.4039863E+006  0.9223292E+01  0.7546771E-02  0.2122087E+00
         21   -1    0    0  501  502  0.00000000000E+00  0.00000000000E+00  0.39913709785E+00  0.39913709785E+00  0.00000000000E+00 0.  1.
         21   -1    0    0  502  503 -0.00000000000E+00 -0.00000000000E+00 -0.36327977112E+03  0.36327977112E+03  0.00000000000E+00 0. -1.
          5    1    1    2  501    0  0.11861769953E+01  0.78467887256E+01 -0.64537182895E+02  0.65192922048E+02  0.47000000000E+01 0.  1.
         -5    1    1    2    0  503 -0.11861769953E+01 -0.78467887256E+01 -0.29834345113E+03  0.29848598617E+03  0.47000000000E+01 0. -1.
<mgrwt>
<rscale>  2 0.92232917E+01</rscale>
<asrwt>0</asrwt>
<pdfrwt beam="1">  1       21 0.61405913E-04 0.92232917E+01</pdfrwt>
<pdfrwt beam="2">  1       21 0.55889009E-01 0.92232917E+01</pdfrwt>
<totfact> 0.36976334E+08</totfact>
</mgrwt>
</event>
<event>
 4    1  0.4039863E+006  0.6193497E+01  0.7546771E-02  0.2390900E+00
         21   -1    0    0  501  502  0.00000000000E+00  0.00000000000E+00  0.11312612182E+00  0.11312612182E+00  0.00000000000E+00 0.  1.
         21   -1    0    0  502  503 -0.00000000000E+00 -0.00000000000E+00 -0.72351138008E+03  0.72351138008E+03  0.00000000000E+00 0. -1.
          5    1    1    2  501    0  0.12663485483E+01  0.38295916911E+01 -0.97964607027E+02  0.98160193771E+02  0.47000000000E+01 0.  1.
         -5    1    1    2    0  503 -0.12663485483E+01 -0.38295916911E+01 -0.62543364693E+03  0.62546431243E+03  0.47000000000E+01 0. -1.
<mgrwt>
<rscale>  2 0.61934975E+01</rscale>
<asrwt>0</asrwt>
<pdfrwt beam="1">  1       21 0.17404384E-04 0.61934975E+01</pdfrwt>
<pdfrwt beam="2">  1       21 0.11130711E+00 0.61934975E+01</pdfrwt>
<totfact> 0.41531095E+08</totfact>
</mgrwt>
</event>
<event>
 4    1  0.4039863E+006  0.1665611E+02  0.7546771E-02  0.1821371E+00
         21   -1    0    0  503  502  0.00000000000E+00  0.00000000000E+00  0.36138235462E+02  0.36138235462E+02  0.00000000000E+00 0.  1.
         21   -1    0    0  501  503 -0.00000000000E+00 -0.00000000000E+00 -0.84511578564E+01  0.84511578564E+01  0.00000000000E+00 0. -1.
          5    1    1    2  501    0 -0.14083866058E+02 -0.75485523076E+01  0.70949192912E+01  0.18104248253E+02  0.47000000000E+01 0. -1.
         -5    1    1    2    0  502  0.14083866058E+02  0.75485523076E+01  0.20592158314E+02  0.26485145065E+02  0.47000000000E+01 0.  1.
<mgrwt>
<rscale>  2 0.16656108E+02</rscale>
<asrwt>0</asrwt>
<pdfrwt beam="1">  1       21 0.55597285E-02 0.16656108E+02</pdfrwt>
<pdfrwt beam="2">  1       21 0.13001782E-02 0.16656108E+02</pdfrwt>
<totfact> 0.31094528E+08</totfact>
</mgrwt>
</event>
<event>
 4    1  0.4039863E+006  0.4998025E+01  0.7546771E-02  0.2567504E+00
         21   -1    0    0  503  502  0.00000000000E+00  0.00000000000E+00  0.66924459429E+01  0.66924459429E+01  0.00000000000E+00 0.  1.
         21   -1    0    0  501  503 -0.00000000000E+00 -0.00000000000E+00 -0.42278683273E+01  0.42278683273E+01  0.00000000000E+00 0.  1.
          5    1    1    2  501    0  0.16295923584E+01  0.48444055332E+00 -0.63651071843E+00  0.50383925809E+01  0.47000000000E+01 0.  1.
         -5    1    1    2    0  502 -0.16295923584E+01 -0.48444055332E+00  0.31010883339E+01  0.58819216893E+01  0.47000000000E+01 0.  1.
<mgrwt>
<rscale>  2 0.49980250E+01</rscale>
<asrwt>0</asrwt>
<pdfrwt beam="1">  1       21 0.10296071E-02 0.49980250E+01</pdfrwt>
<pdfrwt beam="2">  1       21 0.65044128E-03 0.49980250E+01</pdfrwt>
<totfact> 0.46242037E+09</totfact>
</mgrwt>
</event>
<event>
 4    1  0.4039863E+006  0.4910193E+01  0.7546771E-02  0.2583336E+00
         21   -1    0    0  503  502  0.00000000000E+00  0.00000000000E+00  0.10031585788E+01  0.10031585788E+01  0.00000000000E+00 0. -1.
         21   -1    0    0  501  503 -0.00000000000E+00 -0.00000000000E+00 -0.60984082340E+02  0.60984082340E+02  0.00000000000E+00 0. -1.
          5    1    1    2  501    0 -0.96959507064E+00 -0.10391720812E+01 -0.54115682907E+02  0.54337989747E+02  0.47000000000E+01 0. -1.
         -5    1    1    2    0  502  0.96959507064E+00  0.10391720812E+01 -0.58652408537E+01  0.76492511717E+01  0.47000000000E+01 0. -1.
<mgrwt>
<rscale>  2 0.49101928E+01</rscale>
<asrwt>0</asrwt>
<pdfrwt beam="1">  1       21 0.15433213E-03 0.49101928E+01</pdfrwt>
<pdfrwt beam="2">  1       21 0.93821638E-02 0.49101928E+01</pdfrwt>
<totfact> 0.13298559E+09</totfact>
</mgrwt>
</event>
<event>
 4    1  0.4039863E+006  0.4844818E+01  0.7546771E-02  0.2595442E+00
         21   -1    0    0  503  502  0.00000000000E+00  0.00000000000E+00  0.98232204448E+00  0.98232204448E+00  0.00000000000E+00 0. -1.
         21   -1    0    0  501  503 -0.00000000000E+00 -0.00000000000E+00 -0.23917430700E+02  0.23917430700E+02  0.00000000000E+00 0. -1.
          5    1    1    2  501    0  0.23650569589E+00  0.11516628980E+01 -0.11851604593E+02  0.12803624245E+02  0.47000000000E+01 0. -1.
         -5    1    1    2    0  502 -0.23650569589E+00 -0.11516628980E+01 -0.11083504062E+02  0.12096128499E+02  0.47000000000E+01 0. -1.
<mgrwt>
<rscale>  2 0.48448181E+01</rscale>
<asrwt>0</asrwt>
<pdfrwt beam="1">  1       21 0.15112647E-03 0.48448181E+01</pdfrwt>
<pdfrwt beam="2">  1       21 0.36796046E-02 0.48448181E+01</pdfrwt>
<totfact> 0.53426586E+09</totfact>
</mgrwt>
</event>
<event>
 4    1  0.4039863E+006  0.5211731E+01  0.7546771E-02  0.2530910E+00
         21   -1    0    0  503  502  0.00000000000E+00  0.00000000000E+00  0.26642445520E+01  0.26642445520E+01  0.00000000000E+00 0. -1.
         21   -1    0    0  501  503 -0.00000000000E+00 -0.00000000000E+00 -0.11181086212E+02  0.11181086212E+02  0.00000000000E+00 0. -1.
          5    1    1    2  501    0  0.23277304928E+00  0.22400787892E+01 -0.22026471269E+01  0.56580730501E+01  0.47000000000E+01 0. -1.
         -5    1    1    2    0  502 -0.23277304928E+00 -0.22400787892E+01 -0.63141945334E+01  0.81872577143E+01  0.47000000000E+01 0. -1.
<mgrwt>
<rscale>  2 0.52117306E+01</rscale>
<asrwt>0</asrwt>
<pdfrwt beam="1">  1       21 0.40988378E-03 0.52117306E+01</pdfrwt>
<pdfrwt beam="2">  1       21 0.17201671E-02 0.52117306E+01</pdfrwt>
<totfact> 0.44327469E+09</totfact>
</mgrwt>
</event>
<event>
 4    1  0.4039863E+006  0.5892746E+01  0.7546771E-02  0.2429595E+00
         21   -1    0    0  501  502  0.00000000000E+00  0.00000000000E+00  0.22216761676E+01  0.22216761676E+01  0.00000000000E+00 0. -1.
         21   -1    0    0  502  503 -0.00000000000E+00 -0.00000000000E+00 -0.15909854156E+02  0.15909854156E+02  0.00000000000E+00 0. -1.
          5    1    1    2  501    0 -0.23637403035E+01  0.26546538185E+01 -0.56413894657E+01  0.81578018009E+01  0.47000000000E+01 0. -1.
         -5    1    1    2    0  503  0.23637403035E+01 -0.26546538185E+01 -0.80467885231E+01  0.99737285232E+01  0.47000000000E+01 0. -1.
<mgrwt>
<rscale>  2 0.58927460E+01</rscale>
<asrwt>0</asrwt>
<pdfrwt beam="1">  1       21 0.34179633E-03 0.58927460E+01</pdfrwt>
<pdfrwt beam="2">  1       21 0.24476699E-02 0.58927460E+01</pdfrwt>
<totfact> 0.38659244E+09</totfact>
</mgrwt>
</event>
<event>
 4    1  0.4039863E+006  0.6369604E+01  0.7546771E-02  0.2369666E+00
         21   -1    0    0  503  502  0.00000000000E+00  0.00000000000E+00  0.20353680086E+01  0.20353680086E+01  0.00000000000E+00 0. -1.
         21   -1    0    0  501  503 -0.00000000000E+00 -0.00000000000E+00 -0.19969675938E+02  0.19969675938E+02  0.00000000000E+00 0. -1.
          5    1    1    2  501    0 -0.23024190587E+01  0.36305258012E+01 -0.94359451180E+01  0.11384590963E+02  0.47000000000E+01 0. -1.
         -5    1    1    2    0  502  0.23024190587E+01 -0.36305258012E+01 -0.84983628118E+01  0.10620452985E+02  0.47000000000E+01 0. -1.
<mgrwt>
<rscale>  2 0.63696037E+01</rscale>
<asrwt>0</asrwt>
<pdfrwt beam="1">  1       21 0.31313354E-03 0.63696037E+01</pdfrwt>
<pdfrwt beam="2">  1       21 0.30722579E-02 0.63696037E+01</pdfrwt>
<totfact> 0.33591898E+09</totfact>
</mgrwt>
</event>
<event>
 4    1  0.4039863E+006  0.7185573E+01  0.7546771E-02  0.2282682E+00
         21   -1    0    0  503  502  0.00000000000E+00  0.00000000000E+00  0.48936273266E+02  0.48936273266E+02  0.00000000000E+00 0.  1.
         21   -1    0    0  501  503 -0.00000000000E+00 -0.00000000000E+00 -0.12804634900E+01  0.12804634900E+01  0.00000000000E+00 0. -1.
          5    1    1    2  501    0 -0.22718557853E+01  0.49377247557E+01  0.13294209479E+02  0.15111864880E+02  0.47000000000E+01 0.  1.
         -5    1    1    2    0  502  0.22718557853E+01 -0.49377247557E+01  0.34361600297E+02  0.35104871876E+02  0.47000000000E+01 0. -1.
<mgrwt>
<rscale>  2 0.71855727E+01</rscale>
<asrwt>0</asrwt>
<pdfrwt beam="1">  1       21 0.75286560E-02 0.71855727E+01</pdfrwt>
<pdfrwt beam="2">  1       21 0.19699442E-03 0.71855727E+01</pdfrwt>
<totfact> 0.18346270E+09</totfact>
</mgrwt>
</event>
