<event>
 4    1  0.4144004E+006  0.7420665E+01  0.7546771E-02  0.2260564E+00
         21   -1    0    0  501  502  0.00000000000E+00  0.00000000000E+00  0.48551641828E+01  0.48551641828E+01  0.00000000000E+00 0. -1.
         21   -1    0    0  502  503 -0.00000000000E+00 -0.00000000000E+00 -0.15171811478E+02  0.15171811478E+02  0.00000000000E+00 0.  1.
          5    1    1    2  501    0 -0.54228861001E+01  0.18890673092E+01 -0.10189471369E+02  0.12605220971E+02  0.47000000000E+01 0.  1.
         -5    1    1    2    0  503  0.54228861001E+01 -0.18890673092E+01 -0.12717592603E+00  0.74217546894E+01  0.47000000000E+01 0. -1.
<mgrwt>
<rscale>  2 0.74206650E+01</rscale>
<asrwt>0</asrwt>
<pdfrwt beam="1">  1       21 0.74694834E-03 0.74206650E+01</pdfrwt>
<pdfrwt beam="2">  1       21 0.23341248E-02 0.74206650E+01</pdfrwt>
<totfact> 0.16784648E+09</totfact>
</mgrwt>
</event>
<event>
 4    1  0.4144004E+006  0.4892122E+01  0.7546771E-02  0.2586654E+00
         21   -1    0    0  501  502  0.00000000000E+00  0.00000000000E+00  0.73791696865E+02  0.73791696865E+02  0.00000000000E+00 0.  1.
         21   -1    0    0  502  503 -0.00000000000E+00 -0.00000000000E+00 -0.33095812438E+00  0.33095812438E+00  0.00000000000E+00 0.  1.
          5    1    1    2  501    0 -0.44291873611E+00 -0.12832304052E+01  0.31485539032E+02  0.31863333558E+02  0.47000000000E+01 0.  1.
         -5    1    1    2    0  503  0.44291873611E+00  0.12832304052E+01  0.41975199708E+02  0.42259321431E+02  0.47000000000E+01 0.  1.
<mgrwt>
<rscale>  2 0.48921220E+01</rscale>
<asrwt>0</asrwt>
<pdfrwt beam="1">  1       21 0.11352556E-01 0.48921220E+01</pdfrwt>
<pdfrwt beam="2">  1       21 0.50916693E-04 0.48921220E+01</pdfrwt>
<totfact> 0.43262890E+09</totfact>
</mgrwt>
</event>
<event>
 4    1  0.4144004E+006  0.1546607E+02  0.7546771E-02  0.1854170E+00
         21   -1    0    0  503  502  0.00000000000E+00  0.00000000000E+00  0.44671219558E+02  0.44671219558E+02  0.00000000000E+00 0.  1.
         21   -1    0    0  501  503 -0.00000000000E+00 -0.00000000000E+00 -0.98596628269E+01  0.98596628269E+01  0.00000000000E+00 0. -1.
          5    1    1    2  501    0  0.14465407254E+02  0.28038304662E+01 -0.10243656901E+01  0.15499961206E+02  0.47000000000E+01 0. -1.
         -5    1    1    2    0  502 -0.14465407254E+02 -0.28038304662E+01  0.35835922421E+02  0.39030921179E+02  0.47000000000E+01 0.  1.
<mgrwt>
<rscale>  2 0.15466075E+02</rscale>
<asrwt>0</asrwt>
<pdfrwt beam="1">  1       21 0.68724952E-02 0.15466075E+02</pdfrwt>
<pdfrwt beam="2">  1       21 0.15168712E-02 0.15466075E+02</pdfrwt>
<totfact> 0.17146641E+08</totfact>
</mgrwt>
</event>
<event>
 4    1  0.4144004E+006  0.4824735E+01  0.7546771E-02  0.2599217E+00
         21   -1    0    0  501  502  0.00000000000E+00  0.00000000000E+00  0.17074435936E+03  0.17074435936E+03  0.00000000000E+00 0.  1.
         21   -1    0    0  502  503 -0.00000000000E+00 -0.00000000000E+00 -0.14321937747E+00  0.14321937747E+00  0.00000000000E+00 0.  1.
          5    1    1    2  501    0 -0.92204920295E+00 -0.58128879049E+00  0.10403664413E+03  0.10414845843E+03  0.47000000000E+01 0.  1.
         -5    1    1    2    0  503  0.92204920295E+00  0.58128879049E+00  0.66564495852E+02  0.66739120307E+02  0.47000000000E+01 0.  1.
<mgrwt>
<rscale>  2 0.48247354E+01</rscale>
<asrwt>0</asrwt>
<pdfrwt beam="1">  1       21 0.26268200E-01 0.48247354E+01</pdfrwt>
<pdfrwt beam="2">  1       21 0.22033887E-04 0.48247354E+01</pdfrwt>
<totfact> 0.34612450E+09</totfact>
</mgrwt>
</event>
<event>
 4    1  0.4144004E+006  0.7777625E+01  0.7546771E-02  0.2229075E+00
         21   -1    0    0  501  502  0.00000000000E+00  0.00000000000E+00  0.68157770314E+02  0.68157770314E+02  0.00000000000E+00 0. -1.
         21   -1    0    0  502  503 -0.00000000000E+00 -0.00000000000E+00 -0.13343764900E+01  0.13343764900E+01  0.00000000000E+00 0.  1.
          5    1    1    2  501    0 -0.34418716627E+01  0.51531521105E+01  0.53518825581E+02  0.54081014680E+02  0.47000000000E+01 0. -1.
         -5    1    1    2    0  503  0.34418716627E+01 -0.51531521105E+01  0.13304568242E+02  0.15411132124E+02  0.47000000000E+01 0.  1.
<mgrwt>
<rscale>  2 0.77776254E+01</rscale>
<asrwt>0</asrwt>
<pdfrwt beam="1">  1       21 0.10485808E-01 0.77776254E+01</pdfrwt>
<pdfrwt beam="2">  1       21 0.20528874E-03 0.77776254E+01</pdfrwt>
<totfact> 0.10974263E+09</totfact>
</mgrwt>
</event>
<event>
 4    1  0.4144004E+006  0.5475474E+01  0.7546771E-02  0.2489140E+00
         21   -1    0    0  503  502  0.00000000000E+00  0.00000000000E+00  0.16749088713E+01  0.16749088713E+01  0.00000000000E+00 0.  1.
         21   -1    0    0  501  503 -0.00000000000E+00 -0.00000000000E+00 -0.18292794873E+02  0.18292794873E+02  0.00000000000E+00 0.  1.
          5    1    1    2  501    0 -0.14673452131E+01  0.23953521375E+01 -0.68458930940E+01  0.87662458379E+01  0.47000000000E+01 0.  1.
         -5    1    1    2    0  502  0.14673452131E+01 -0.23953521375E+01 -0.97719929075E+01  0.11201457906E+02  0.47000000000E+01 0.  1.
<mgrwt>
<rscale>  2 0.54754738E+01</rscale>
<asrwt>0</asrwt>
<pdfrwt beam="1">  1       21 0.25767828E-03 0.54754738E+01</pdfrwt>
<pdfrwt beam="2">  1       21 0.28142762E-02 0.54754738E+01</pdfrwt>
<totfact> 0.43460009E+09</totfact>
</mgrwt>
</event>
<event>
 4    1  0.4144004E+006  0.5856187E+01  0.7546771E-02  0.2434525E+00
         21   -1    0    0  503  502  0.00000000000E+00  0.00000000000E+00  0.83106791775E+00  0.83106791775E+00  0.00000000000E+00 0.  1.
         21   -1    0    0  501  503 -0.00000000000E+00 -0.00000000000E+00 -0.47277349795E+02  0.47277349795E+02  0.00000000000E+00 0. -1.
          5    1    1    2  501    0  0.63616057859E+00  0.34351460463E+01 -0.14645911239E+02  0.15773320660E+02  0.47000000000E+01 0. -1.
         -5    1    1    2    0  502 -0.63616057859E+00 -0.34351460463E+01 -0.31800370639E+02  0.32335097053E+02  0.47000000000E+01 0. -1.
<mgrwt>
<rscale>  2 0.58561872E+01</rscale>
<asrwt>0</asrwt>
<pdfrwt beam="1">  1       21 0.12785661E-03 0.58561872E+01</pdfrwt>
<pdfrwt beam="2">  1       21 0.72734378E-02 0.58561872E+01</pdfrwt>
<totfact> 0.29517438E+09</totfact>
</mgrwt>
</event>
<event>
 4    1  0.4144004E+006  0.5470416E+01  0.7546771E-02  0.2489908E+00
         21   -1    0    0  503  502  0.00000000000E+00  0.00000000000E+00  0.90426453069E+02  0.90426453069E+02  0.00000000000E+00 0. -1.
         21   -1    0    0  501  503 -0.00000000000E+00 -0.00000000000E+00 -0.79206667885E+00  0.79206667885E+00  0.00000000000E+00 0.  1.
          5    1    1    2  501    0  0.14241651062E+00 -0.27955624252E+01  0.10016833824E+02  0.11413255959E+02  0.47000000000E+01 0.  1.
         -5    1    1    2    0  502 -0.14241651062E+00  0.27955624252E+01  0.79617552566E+02  0.79805263788E+02  0.47000000000E+01 0. -1.
<mgrwt>
<rscale>  2 0.54704160E+01</rscale>
<asrwt>0</asrwt>
<pdfrwt beam="1">  1       21 0.13911754E-01 0.54704160E+01</pdfrwt>
<pdfrwt beam="2">  1       21 0.12185648E-03 0.54704160E+01</pdfrwt>
<totfact> 0.11015139E+09</totfact>
</mgrwt>
</event>
<event>
 4    1  0.4144004E+006  0.5451930E+01  0.7546771E-02  0.2492728E+00
         21   -1    0    0  503  502  0.00000000000E+00  0.00000000000E+00  0.35407843554E+01  0.35407843554E+01  0.00000000000E+00 0. -1.
         21   -1    0    0  501  503 -0.00000000000E+00 -0.00000000000E+00 -0.12769042710E+02  0.12769042710E+02  0.00000000000E+00 0. -1.
          5    1    1    2  501    0 -0.13095197733E+01  0.24328371736E+01 -0.93872295846E+01  0.10855580041E+02  0.47000000000E+01 0. -1.
         -5    1    1    2    0  502  0.13095197733E+01 -0.24328371736E+01  0.15897123024E+00  0.54542470243E+01  0.47000000000E+01 0. -1.
<mgrwt>
<rscale>  2 0.54519298E+01</rscale>
<asrwt>0</asrwt>
<pdfrwt beam="1">  1       21 0.54473606E-03 0.54519298E+01</pdfrwt>
<pdfrwt beam="2">  1       21 0.19644681E-02 0.54519298E+01</pdfrwt>
<totfact> 0.25943729E+09</totfact>
</mgrwt>
</event>
<event>
 4    1  0.4144004E+006  0.1210789E+02  0.7546771E-02  0.1971749E+00
         21   -1    0    0  501  502  0.00000000000E+00  0.00000000000E+00  0.90904146251E+00  0.90904146251E+00  0.00000000000E+00 0.  1.
         21   -1    0    0  502  503 -0.00000000000E+00 -0.00000000000E+00 -0.26144981806E+03  0.26144981806E+03  0.00000000000E+00 0. -1.
          5    1    1    2  501    0  0.79418652533E+01  0.78382281948E+01 -0.49069298668E+02  0.50541043882E+02  0.47000000000E+01 0.  1.
         -5    1    1    2    0  503 -0.79418652533E+01 -0.78382281948E+01 -0.21147147793E+03  0.21181781564E+03  0.47000000000E+01 0. -1.
<mgrwt>
<rscale>  2 0.12107892E+02</rscale>
<asrwt>0</asrwt>
<pdfrwt beam="1">  1       21 0.13985233E-03 0.12107892E+02</pdfrwt>
<pdfrwt beam="2">  1       21 0.40223107E-01 0.12107892E+02</pdfrwt>
<totfact> 0.24752114E+08</totfact>
</mgrwt>
</event>
<event>
 4    1  0.4144004E+006  0.1343754E+02  0.7546771E-02  0.1919863E+00
         21   -1    0    0  501  502  0.00000000000E+00  0.00000000000E+00  0.12576494483E+01  0.12576494483E+01  0.00000000000E+00 0. -1.
         21   -1    0    0  502  503 -0.00000000000E+00 -0.00000000000E+00 -0.19950057565E+03  0.19950057565E+03  0.00000000000E+00 0. -1.
          5    1    1    2  501    0 -0.49945650589E+00 -0.12578872257E+02 -0.45974913719E+02  0.47898436045E+02  0.47000000000E+01 0. -1.
         -5    1    1    2    0  503  0.49945650589E+00  0.12578872257E+02 -0.15226801248E+03  0.15285978905E+03  0.47000000000E+01 0. -1.
<mgrwt>
<rscale>  2 0.13437540E+02</rscale>
<asrwt>0</asrwt>
<pdfrwt beam="1">  1       21 0.19348443E-03 0.13437540E+02</pdfrwt>
<pdfrwt beam="2">  1       21 0.30692413E-01 0.13437540E+02</pdfrwt>
<totfact> 0.26633962E+08</totfact>
</mgrwt>
</event>
<event>
 4    1  0.4144004E+006  0.7264630E+01  0.7546771E-02  0.2275114E+00
         21   -1    0    0  503  502  0.00000000000E+00  0.00000000000E+00  0.18729142439E+03  0.18729142439E+03  0.00000000000E+00 0. -1.
         21   -1    0    0  501  503 -0.00000000000E+00 -0.00000000000E+00 -0.84288232541E+00  0.84288232541E+00  0.00000000000E+00 0.  1.
          5    1    1    2  501    0 -0.42083083043E+01 -0.36020819545E+01  0.16474724280E+02  0.18005315695E+02  0.47000000000E+01 0.  1.
         -5    1    1    2    0  502  0.42083083043E+01  0.36020819545E+01  0.16997381779E+03  0.17012899102E+03  0.47000000000E+01 0. -1.
<mgrwt>
<rscale>  2 0.72646303E+01</rscale>
<asrwt>0</asrwt>
<pdfrwt beam="1">  1       21 0.28814032E-01 0.72646303E+01</pdfrwt>
<pdfrwt beam="2">  1       21 0.12967435E-03 0.72646303E+01</pdfrwt>
<totfact> 0.38117817E+08</totfact>
</mgrwt>
</event>
<event>
 4    1  0.4144004E+006  0.4828379E+01  0.7546771E-02  0.2598530E+00
         21   -1    0    0  503  502  0.00000000000E+00  0.00000000000E+00  0.76204990885E+01  0.76204990885E+01  0.00000000000E+00 0.  1.
         21   -1    0    0  501  503 -0.00000000000E+00 -0.00000000000E+00 -0.11174112261E+02  0.11174112261E+02  0.00000000000E+00 0.  1.
          5    1    1    2  501    0  0.80162243240E+00  0.76200387303E+00 -0.97850374422E+01  0.10911471311E+02  0.47000000000E+01 0.  1.
         -5    1    1    2    0  502 -0.80162243240E+00 -0.76200387303E+00  0.62314242700E+01  0.78831400381E+01  0.47000000000E+01 0.  1.
<mgrwt>
<rscale>  2 0.48283795E+01</rscale>
<asrwt>0</asrwt>
<pdfrwt beam="1">  1       21 0.11723845E-02 0.48283795E+01</pdfrwt>
<pdfrwt beam="2">  1       21 0.17190942E-02 0.48283795E+01</pdfrwt>
<totfact> 0.96014859E+08</totfact>
</mgrwt>
</event>
<event>
 4    1  0.4144004E+006  0.5145256E+01  0.7546771E-02  0.2542013E+00
         21   -1    0    0  501  502  0.00000000000E+00  0.00000000000E+00  0.96837177165E+03  0.96837177165E+03  0.00000000000E+00 0. -1.
         21   -1    0    0  502  503 -0.00000000000E+00 -0.00000000000E+00 -0.35301950716E-01  0.35301950716E-01  0.00000000000E+00 0. -1.
          5    1    1    2  501    0  0.13668233829E+01 -0.15860195472E+01  0.71414500508E+03  0.71416354005E+03  0.47000000000E+01 0. -1.
         -5    1    1    2    0  503 -0.13668233829E+01  0.15860195472E+01  0.25419146463E+03  0.25424353355E+03  0.47000000000E+01 0. -1.
<mgrwt>
<rscale>  2 0.51452565E+01</rscale>
<asrwt>0</asrwt>
<pdfrwt beam="1">  1       21 0.14895900E+00 0.51452565E+01</pdfrwt>
<pdfrwt beam="2">  1       21 0.54318449E-05 0.51452565E+01</pdfrwt>
<totfact> 0.94019918E+08</totfact>
</mgrwt>
</event>
<event>
 4    1  0.4144004E+006  0.6262296E+01  0.7546771E-02  0.2382486E+00
         21   -1    0    0  503  502  0.00000000000E+00  0.00000000000E+00  0.87559115885E+01  0.87559115885E+01  0.00000000000E+00 0. -1.
         21   -1    0    0  501  503 -0.00000000000E+00 -0.00000000000E+00 -0.69276029341E+01  0.69276029341E+01  0.00000000000E+00 0.  1.
          5    1    1    2  501    0  0.41346360514E+01  0.17644148623E+00 -0.37480904570E+01  0.72982551990E+01  0.47000000000E+01 0.  1.
         -5    1    1    2    0  502 -0.41346360514E+01 -0.17644148623E+00  0.55763991114E+01  0.83852593237E+01  0.47000000000E+01 0. -1.
<mgrwt>
<rscale>  2 0.62622957E+01</rscale>
<asrwt>0</asrwt>
<pdfrwt beam="1">  1       21 0.13470633E-02 0.62622957E+01</pdfrwt>
<pdfrwt beam="2">  1       21 0.10657851E-02 0.62622957E+01</pdfrwt>
<totfact> 0.19620509E+09</totfact>
</mgrwt>
</event>
<event>
 4    1  0.4144004E+006  0.6195793E+01  0.7546771E-02  0.2390617E+00
         21   -1    0    0  503  502  0.00000000000E+00  0.00000000000E+00  0.40017980493E+02  0.40017980493E+02  0.00000000000E+00 0.  1.
         21   -1    0    0  501  503 -0.00000000000E+00 -0.00000000000E+00 -0.14782333957E+01  0.14782333957E+01  0.00000000000E+00 0.  1.
          5    1    1    2  501    0  0.33804655573E+01  0.22068763691E+01  0.69763210268E+01  0.93304290235E+01  0.47000000000E+01 0.  1.
         -5    1    1    2    0  502 -0.33804655573E+01 -0.22068763691E+01  0.31563426070E+02  0.32165784865E+02  0.47000000000E+01 0.  1.
<mgrwt>
<rscale>  2 0.61957930E+01</rscale>
<asrwt>0</asrwt>
<pdfrwt beam="1">  1       21 0.61566116E-02 0.61957930E+01</pdfrwt>
<pdfrwt beam="2">  1       21 0.22742055E-03 0.61957930E+01</pdfrwt>
<totfact> 0.18210801E+09</totfact>
</mgrwt>
</event>
<event>
 4    1  0.4144004E+006  0.5235995E+01  0.7546771E-02  0.2526918E+00
         21   -1    0    0  501  502  0.00000000000E+00  0.00000000000E+00  0.38975839408E+00  0.38975839408E+00  0.00000000000E+00 0. -1.
         21   -1    0    0  502  503 -0.00000000000E+00 -0.00000000000E+00 -0.27408673352E+03  0.27408673352E+03  0.00000000000E+00 0.  1.
          5    1    1    2  501    0 -0.22120932229E+01  0.65748507371E+00 -0.18523525004E+02  0.19249327823E+02  0.47000000000E+01 0. -1.
         -5    1    1    2    0  503  0.22120932229E+01 -0.65748507371E+00 -0.25517345012E+03  0.25522716409E+03  0.47000000000E+01 0.  1.
<mgrwt>
<rscale>  2 0.52359949E+01</rscale>
<asrwt>0</asrwt>
<pdfrwt beam="1">  1       21 0.59962644E-04 0.52359949E+01</pdfrwt>
<pdfrwt beam="2">  1       21 0.42167320E-01 0.52359949E+01</pdfrwt>
<totfact> 0.44553945E+08</totfact>
</mgrwt>
</event>
<event>
 4    1  0.4144004E+006  0.6134908E+01  0.7546771E-02  0.2398189E+00
         21   -1    0    0  503  502  0.00000000000E+00  0.00000000000E+00  0.11081068362E+02  0.11081068362E+02  0.00000000000E+00 0. -1.
         21   -1    0    0  501  503 -0.00000000000E+00 -0.00000000000E+00 -0.36629131434E+01  0.36629131434E+01  0.00000000000E+00 0. -1.
          5    1    1    2  501    0  0.26182162156E+01 -0.29482259520E+01  0.17210090060E+01  0.63717316653E+01  0.47000000000E+01 0. -1.
         -5    1    1    2    0  502 -0.26182162156E+01  0.29482259520E+01  0.56971462122E+01  0.83722498397E+01  0.47000000000E+01 0. -1.
<mgrwt>
<rscale>  2 0.61349077E+01</rscale>
<asrwt>0</asrwt>
<pdfrwt beam="1">  1       21 0.17047797E-02 0.61349077E+01</pdfrwt>
<pdfrwt beam="2">  1       21 0.56352510E-03 0.61349077E+01</pdfrwt>
<totfact> 0.33721539E+09</totfact>
</mgrwt>
</event>
<event>
 4    1  0.4144004E+006  0.6826957E+01  0.7546771E-02  0.2318801E+00
         21   -1    0    0  503  502  0.00000000000E+00  0.00000000000E+00  0.22575163346E+02  0.22575163346E+02  0.00000000000E+00 0.  1.
         21   -1    0    0  501  503 -0.00000000000E+00 -0.00000000000E+00 -0.21863067987E+01  0.21863067987E+01  0.00000000000E+00 0.  1.
          5    1    1    2  501    0  0.23682017425E+01 -0.43484433080E+01  0.13116254991E+02  0.14786598111E+02  0.47000000000E+01 0.  1.
         -5    1    1    2    0  502 -0.23682017425E+01  0.43484433080E+01  0.72726015556E+01  0.99748720334E+01  0.47000000000E+01 0.  1.
<mgrwt>
<rscale>  2 0.68269568E+01</rscale>
<asrwt>0</asrwt>
<pdfrwt beam="1">  1       21 0.34731019E-02 0.68269568E+01</pdfrwt>
<pdfrwt beam="2">  1       21 0.33635491E-03 0.68269568E+01</pdfrwt>
<totfact> 0.26908105E+09</totfact>
</mgrwt>
</event>
<event>
 4    1  0.4144004E+006  0.6403146E+01  0.7546771E-02  0.2365732E+00
         21   -1    0    0  503  502  0.00000000000E+00  0.00000000000E+00  0.28895953195E+01  0.28895953195E+01  0.00000000000E+00 0.  1.
         21   -1    0    0  501  503 -0.00000000000E+00 -0.00000000000E+00 -0.25568250962E+02  0.25568250962E+02  0.00000000000E+00 0.  1.
          5    1    1    2  501    0 -0.10027032629E+00  0.43474391186E+01 -0.20831805744E+02  0.21793678249E+02  0.47000000000E+01 0.  1.
         -5    1    1    2    0  502  0.10027032629E+00 -0.43474391186E+01 -0.18468498984E+01  0.66641680333E+01  0.47000000000E+01 0.  1.
<mgrwt>
<rscale>  2 0.64031462E+01</rscale>
<asrwt>0</asrwt>
<pdfrwt beam="1">  1       21 0.44455312E-03 0.64031462E+01</pdfrwt>
<pdfrwt beam="2">  1       21 0.39335771E-02 0.64031462E+01</pdfrwt>
<totfact> 0.14447472E+09</totfact>
</mgrwt>
</event>
<event>
 4    1  0.4144004E+006  0.1147385E+02  0.7546771E-02  0.1999689E+00
         21   -1    0    0  503  502  0.00000000000E+00  0.00000000000E+00  0.72031054001E+02  0.72031054001E+02  0.00000000000E+00 0.  1.
         21   -1    0    0  501  503 -0.00000000000E+00 -0.00000000000E+00 -0.21704392065E+01  0.21704392065E+01  0.00000000000E+00 0. -1.
          5    1    1    2  501    0  0.10426219391E+02 -0.92364927426E+00  0.20186551480E+02  0.23219518502E+02  0.47000000000E+01 0. -1.
         -5    1    1    2    0  502 -0.10426219391E+02  0.92364927426E+00  0.49674063314E+02  0.50981974706E+02  0.47000000000E+01 0.  1.
<mgrwt>
<rscale>  2 0.11473848E+02</rscale>
<asrwt>0</asrwt>
<pdfrwt beam="1">  1       21 0.11081699E-01 0.11473848E+02</pdfrwt>
<pdfrwt beam="2">  1       21 0.33391378E-03 0.11473848E+02</pdfrwt>
<totfact> 0.63682219E+08</totfact>
</mgrwt>
</event>
<event>
 4    1  0.4144004E+006  0.4900068E+01  0.7546771E-02  0.2585193E+00
         21   -1    0    0  503  502  0.00000000000E+00  0.00000000000E+00  0.21767184131E+01  0.21767184131E+01  0.00000000000E+00 0. -1.
         21   -1    0    0  501  503 -0.00000000000E+00 -0.00000000000E+00 -0.14156068115E+02  0.14156068115E+02  0.00000000000E+00 0. -1.
          5    1    1    2  501    0 -0.11990548049E+01  0.69493256460E+00 -0.98268498220E+01  0.10980785087E+02  0.47000000000E+01 0. -1.
         -5    1    1    2    0  502  0.11990548049E+01 -0.69493256460E+00 -0.21524998795E+01  0.53520014411E+01  0.47000000000E+01 0. -1.
<mgrwt>
<rscale>  2 0.49000677E+01</rscale>
<asrwt>0</asrwt>
<pdfrwt beam="1">  1       21 0.33487975E-03 0.49000677E+01</pdfrwt>
<pdfrwt beam="2">  1       21 0.21778567E-02 0.49000677E+01</pdfrwt>
<totfact> 0.39201124E+09</totfact>
</mgrwt>
</event>
<event>
 4    1  0.4144004E+006  0.9737937E+01  0.7546771E-02  0.2090216E+00
         21   -1    0    0  501  502  0.00000000000E+00  0.00000000000E+00  0.16473050860E+00  0.16473050860E+00  0.00000000000E+00 0.  1.
         21   -1    0    0  502  503 -0.00000000000E+00 -0.00000000000E+00 -0.63776436562E+03  0.63776436562E+03  0.00000000000E+00 0. -1.
          5    1    1    2  501    0 -0.37866193357E+00 -0.85202127634E+01 -0.41834083985E+03  0.41845416200E+03  0.47000000000E+01 0. -1.
         -5    1    1    2    0  503  0.37866193357E+00  0.85202127634E+01 -0.21925879526E+03  0.21947493413E+03  0.47000000000E+01 0.  1.
<mgrwt>
<rscale>  2 0.97379367E+01</rscale>
<asrwt>0</asrwt>
<pdfrwt beam="1">  1       21 0.25342838E-04 0.97379367E+01</pdfrwt>
<pdfrwt beam="2">  1       21 0.98118824E-01 0.97379367E+01</pdfrwt>
<totfact> 0.41621462E+08</totfact>
</mgrwt>
</event>
<event>
 4    1  0.4144004E+006  0.5604267E+01  0.7546771E-02  0.2469963E+00
         21   -1    0    0  503  502  0.00000000000E+00  0.00000000000E+00  0.15147612310E+00  0.15147612310E+00  0.00000000000E+00 0.  1.
         21   -1    0    0  501  503 -0.00000000000E+00 -0.00000000000E+00 -0.37241431245E+03  0.37241431245E+03  0.00000000000E+00 0. -1.
          5    1    1    2  501    0 -0.25684490841E+01 -0.16495072459E+01 -0.31015180163E+03  0.31020243045E+03  0.47000000000E+01 0. -1.
         -5    1    1    2    0  502  0.25684490841E+01  0.16495072459E+01 -0.62111034703E+02  0.62363358126E+02  0.47000000000E+01 0. -1.
<mgrwt>
<rscale>  2 0.56042667E+01</rscale>
<asrwt>0</asrwt>
<pdfrwt beam="1">  1       21 0.23304009E-04 0.56042667E+01</pdfrwt>
<pdfrwt beam="2">  1       21 0.57294534E-01 0.56042667E+01</pdfrwt>
<totfact> 0.95496050E+08</totfact>
</mgrwt>
</event>
<event>
 4    1  0.4144004E+006  0.5417900E+01  0.7546771E-02  0.2497962E+00
         21   -1    0    0  503  502  0.00000000000E+00  0.00000000000E+00  0.30008263373E+02  0.30008263373E+02  0.00000000000E+00 0.  1.
         21   -1    0    0  501  503 -0.00000000000E+00 -0.00000000000E+00 -0.97974661907E+00  0.97974661907E+00  0.00000000000E+00 0.  1.
          5    1    1    2  501    0 -0.25969155063E+01  0.72087958656E+00  0.15132807055E+02  0.16073440418E+02  0.47000000000E+01 0.  1.
         -5    1    1    2    0  502  0.25969155063E+01 -0.72087958656E+00  0.13895709699E+02  0.14914569574E+02  0.47000000000E+01 0.  1.
<mgrwt>
<rscale>  2 0.54178997E+01</rscale>
<asrwt>0</asrwt>
<pdfrwt beam="1">  1       21 0.46166552E-02 0.54178997E+01</pdfrwt>
<pdfrwt beam="2">  1       21 0.15073027E-03 0.54178997E+01</pdfrwt>
<totfact> 0.43270206E+09</totfact>
</mgrwt>
</event>
<event>
 4    1  0.4144004E+006  0.5342489E+01  0.7546771E-02  0.2509762E+00
         21   -1    0    0  503  502  0.00000000000E+00  0.00000000000E+00  0.17908334701E+00  0.17908334701E+00  0.00000000000E+00 0.  1.
         21   -1    0    0  501  503 -0.00000000000E+00 -0.00000000000E+00 -0.21414671451E+03  0.21414671451E+03  0.00000000000E+00 0.  1.
          5    1    1    2  501    0  0.13104132405E+01  0.21760056597E+01 -0.16117763430E+03  0.16126615263E+03  0.47000000000E+01 0.  1.
         -5    1    1    2    0  502 -0.13104132405E+01 -0.21760056597E+01 -0.52789996857E+02  0.53059645228E+02  0.47000000000E+01 0.  1.
<mgrwt>
<rscale>  2 0.53424885E+01</rscale>
<asrwt>0</asrwt>
<pdfrwt beam="1">  1       21 0.27551272E-04 0.53424885E+01</pdfrwt>
<pdfrwt beam="2">  1       21 0.32945663E-01 0.53424885E+01</pdfrwt>
<totfact> 0.19414963E+09</totfact>
</mgrwt>
</event>
<event>
 4    1  0.4144004E+006  0.5925644E+01  0.7546771E-02  0.2425203E+00
         21   -1    0    0  501  502  0.00000000000E+00  0.00000000000E+00  0.79830744177E+01  0.79830744177E+01  0.00000000000E+00 0. -1.
         21   -1    0    0  502  503 -0.00000000000E+00 -0.00000000000E+00 -0.48289479837E+01  0.48289479837E+01  0.00000000000E+00 0.  1.
          5    1    1    2  501    0 -0.96737524159E+00  0.34766996099E+01  0.34897355957E+01  0.68768822560E+01  0.47000000000E+01 0. -1.
         -5    1    1    2    0  503  0.96737524159E+00 -0.34766996099E+01 -0.33560916174E+00  0.59351401453E+01  0.47000000000E+01 0.  1.
<mgrwt>
<rscale>  2 0.59256438E+01</rscale>
<asrwt>0</asrwt>
<pdfrwt beam="1">  1       21 0.12281653E-02 0.59256438E+01</pdfrwt>
<pdfrwt beam="2">  1       21 0.74291507E-03 0.59256438E+01</pdfrwt>
<totfact> 0.35441554E+09</totfact>
</mgrwt>
</event>
<event>
 4    1  0.4144004E+006  0.5673877E+01  0.7546771E-02  0.2459905E+00
         21   -1    0    0  501  502  0.00000000000E+00  0.00000000000E+00  0.14927563330E+03  0.14927563330E+03  0.00000000000E+00 0.  1.
         21   -1    0    0  502  503 -0.00000000000E+00 -0.00000000000E+00 -0.25241739155E+00  0.25241739155E+00  0.00000000000E+00 0. -1.
          5    1    1    2  501    0 -0.16488791513E+01  0.27173667001E+01  0.10304158206E+03  0.10319767690E+03  0.47000000000E+01 0.  1.
         -5    1    1    2    0  503  0.16488791513E+01 -0.27173667001E+01  0.45981633841E+02  0.46330373784E+02  0.47000000000E+01 0. -1.
<mgrwt>
<rscale>  2 0.56738774E+01</rscale>
<asrwt>0</asrwt>
<pdfrwt beam="1">  1       21 0.22965412E-01 0.56738774E+01</pdfrwt>
<pdfrwt beam="2">  1       21 0.38833564E-04 0.56738774E+01</pdfrwt>
<totfact> 0.23533919E+09</totfact>
</mgrwt>
</event>
<event>
 4    1  0.4144004E+006  0.5119314E+01  0.7546771E-02  0.2546413E+00
         21   -1    0    0  501  502  0.00000000000E+00  0.00000000000E+00  0.86986294625E+02  0.86986294625E+02  0.00000000000E+00 0.  1.
         21   -1    0    0  502  503 -0.00000000000E+00 -0.00000000000E+00 -0.10242386641E+01  0.10242386641E+01  0.00000000000E+00 0. -1.
          5    1    1    2  501    0 -0.13454879047E+01  0.15188928103E+01  0.79951952942E+02  0.80115679816E+02  0.47000000000E+01 0.  1.
         -5    1    1    2    0  503  0.13454879047E+01 -0.15188928103E+01  0.60101030186E+01  0.78948534733E+01  0.47000000000E+01 0. -1.
<mgrwt>
<rscale>  2 0.51193137E+01</rscale>
<asrwt>0</asrwt>
<pdfrwt beam="1">  1       21 0.13382501E-01 0.51193137E+01</pdfrwt>
<pdfrwt beam="2">  1       21 0.15757525E-03 0.51193137E+01</pdfrwt>
<totfact> 0.78220804E+08</totfact>
</mgrwt>
</event>
<event>
 4    1  0.4144004E+006  0.5008849E+01  0.7546771E-02  0.2565586E+00
         21   -1    0    0  503  502  0.00000000000E+00  0.00000000000E+00  0.23473542968E+01  0.23473542968E+01  0.00000000000E+00 0. -1.
         21   -1    0    0  501  503 -0.00000000000E+00 -0.00000000000E+00 -0.11998607113E+02  0.11998607113E+02  0.00000000000E+00 0. -1.
          5    1    1    2  501    0 -0.17192884571E+01 -0.20643439055E+00 -0.71962757189E+01  0.87678362313E+01  0.47000000000E+01 0. -1.
         -5    1    1    2    0  502  0.17192884571E+01  0.20643439055E+00 -0.24549770970E+01  0.55781251781E+01  0.47000000000E+01 0. -1.
<mgrwt>
<rscale>  2 0.50088490E+01</rscale>
<asrwt>0</asrwt>
<pdfrwt beam="1">  1       21 0.36113144E-03 0.50088490E+01</pdfrwt>
<pdfrwt beam="2">  1       21 0.18459395E-02 0.50088490E+01</pdfrwt>
<totfact> 0.45763035E+09</totfact>
</mgrwt>
</event>
<event>
 4    1  0.4144004E+006  0.7473354E+01  0.7546771E-02  0.2255763E+00
         21   -1    0    0  503  502  0.00000000000E+00  0.00000000000E+00  0.14732246668E+02  0.14732246668E+02  0.00000000000E+00 0.  1.
         21   -1    0    0  501  503 -0.00000000000E+00 -0.00000000000E+00 -0.52357240859E+01  0.52357240859E+01  0.00000000000E+00 0. -1.
          5    1    1    2  501    0  0.86760334948E+00 -0.57452838596E+01 -0.49615367780E+00  0.74898057833E+01  0.47000000000E+01 0. -1.
         -5    1    1    2    0  502 -0.86760334948E+00  0.57452838596E+01  0.99926762594E+01  0.12478164970E+02  0.47000000000E+01 0.  1.
<mgrwt>
<rscale>  2 0.74733541E+01</rscale>
<asrwt>0</asrwt>
<pdfrwt beam="1">  1       21 0.22664995E-02 0.74733541E+01</pdfrwt>
<pdfrwt beam="2">  1       21 0.80549602E-03 0.74733541E+01</pdfrwt>
<totfact> 0.15823254E+09</totfact>
</mgrwt>
</event>
<event>
 4    1  0.4144004E+006  0.6298120E+01  0.7546771E-02  0.2378166E+00
         21   -1    0    0  503  502  0.00000000000E+00  0.00000000000E+00  0.68375354484E+01  0.68375354484E+01  0.00000000000E+00 0. -1.
         21   -1    0    0  501  503 -0.00000000000E+00 -0.00000000000E+00 -0.21391282831E+02  0.21391282831E+02  0.00000000000E+00 0.  1.
          5    1    1    2  501    0  0.36641284356E+01 -0.20372718191E+01 -0.19326336283E+02  0.20326671832E+02  0.47000000000E+01 0.  1.
         -5    1    1    2    0  502 -0.36641284356E+01  0.20372718191E+01  0.47725889004E+01  0.79021464470E+01  0.47000000000E+01 0. -1.
<mgrwt>
<rscale>  2 0.62981199E+01</rscale>
<asrwt>0</asrwt>
<pdfrwt beam="1">  1       21 0.10519285E-02 0.62981199E+01</pdfrwt>
<pdfrwt beam="2">  1       21 0.32909666E-02 0.62981199E+01</pdfrwt>
<totfact> 0.55320876E+08</totfact>
</mgrwt>
</event>
<event>
 4    1  0.4144004E+006  0.5635083E+01  0.7546771E-02  0.2465484E+00
         21   -1    0    0  503  502  0.00000000000E+00  0.00000000000E+00  0.23887185327E+02  0.23887185327E+02  0.00000000000E+00 0. -1.
         21   -1    0    0  501  503 -0.00000000000E+00 -0.00000000000E+00 -0.57652879025E+01  0.57652879025E+01  0.00000000000E+00 0. -1.
          5    1    1    2  501    0 -0.77470975398E-01 -0.31077576777E+01 -0.39441517042E+01  0.68782622952E+01  0.47000000000E+01 0. -1.
         -5    1    1    2    0  502  0.77470975398E-01  0.31077576777E+01  0.22066049129E+02  0.22774210935E+02  0.47000000000E+01 0. -1.
<mgrwt>
<rscale>  2 0.56350829E+01</rscale>
<asrwt>0</asrwt>
<pdfrwt beam="1">  1       21 0.36749515E-02 0.56350829E+01</pdfrwt>
<pdfrwt beam="2">  1       21 0.88696738E-03 0.56350829E+01</pdfrwt>
<totfact> 0.54895784E+08</totfact>
</mgrwt>
</event>
<event>
 4    1  0.4144004E+006  0.6149593E+01  0.7546771E-02  0.2396351E+00
         21   -1    0    0  503  502  0.00000000000E+00  0.00000000000E+00  0.22723175000E+03  0.22723175000E+03  0.00000000000E+00 0. -1.
         21   -1    0    0  501  503 -0.00000000000E+00 -0.00000000000E+00 -0.17614414059E+00  0.17614414059E+00  0.00000000000E+00 0. -1.
          5    1    1    2  501    0  0.48472763533E+00 -0.39360561892E+01  0.86821694377E+02  0.87039210208E+02  0.47000000000E+01 0. -1.
         -5    1    1    2    0  502 -0.48472763533E+00  0.39360561892E+01  0.14023391148E+03  0.14036868393E+03  0.47000000000E+01 0. -1.
<mgrwt>
<rscale>  2 0.61495934E+01</rscale>
<asrwt>0</asrwt>
<pdfrwt beam="1">  1       21 0.34958496E-01 0.61495934E+01</pdfrwt>
<pdfrwt beam="2">  1       21 0.27099280E-04 0.61495934E+01</pdfrwt>
<totfact> 0.20106119E+09</totfact>
</mgrwt>
</event>
<event>
 4    1  0.4144004E+006  0.5228162E+01  0.7546771E-02  0.2528203E+00
         21   -1    0    0  501  502  0.00000000000E+00  0.00000000000E+00  0.87030785425E+02  0.87030785425E+02  0.00000000000E+00 0.  1.
         21   -1    0    0  502  503 -0.00000000000E+00 -0.00000000000E+00 -0.35740855167E+00  0.35740855167E+00  0.00000000000E+00 0.  1.
          5    1    1    2  501    0 -0.22783104793E+01 -0.23017783037E+00  0.58552040415E+02  0.58784990578E+02  0.47000000000E+01 0.  1.
         -5    1    1    2    0  503  0.22783104793E+01  0.23017783037E+00  0.28121336459E+02  0.28603203399E+02  0.47000000000E+01 0.  1.
<mgrwt>
<rscale>  2 0.52281622E+01</rscale>
<asrwt>0</asrwt>
<pdfrwt beam="1">  1       21 0.13389335E-01 0.52281622E+01</pdfrwt>
<pdfrwt beam="2">  1       21 0.54986000E-04 0.52281622E+01</pdfrwt>
<totfact> 0.32394992E+09</totfact>
</mgrwt>
</event>
<event>
 4    1  0.4144004E+006  0.6998873E+01  0.7546771E-02  0.2301107E+00
         21   -1    0    0  503  502  0.00000000000E+00  0.00000000000E+00  0.65351963417E+01  0.65351963417E+01  0.00000000000E+00 0.  1.
         21   -1    0    0  501  503 -0.00000000000E+00 -0.00000000000E+00 -0.77334675682E+01  0.77334675682E+01  0.00000000000E+00 0.  1.
          5    1    1    2  501    0  0.51216875074E+01 -0.81396363487E+00 -0.18507575198E+01  0.72394421829E+01  0.47000000000E+01 0.  1.
         -5    1    1    2    0  502 -0.51216875074E+01  0.81396363487E+00  0.65248629336E+00  0.70292217269E+01  0.47000000000E+01 0.  1.
<mgrwt>
<rscale>  2 0.69988727E+01</rscale>
<asrwt>0</asrwt>
<pdfrwt beam="1">  1       21 0.10054148E-02 0.69988727E+01</pdfrwt>
<pdfrwt beam="2">  1       21 0.11897642E-02 0.69988727E+01</pdfrwt>
<totfact> 0.27864925E+09</totfact>
</mgrwt>
</event>
<event>
 4    1  0.4144004E+006  0.7917734E+01  0.7546771E-02  0.2217346E+00
         21   -1    0    0  501  502  0.00000000000E+00  0.00000000000E+00  0.45058059315E+01  0.45058059315E+01  0.00000000000E+00 0. -1.
         21   -1    0    0  502  503 -0.00000000000E+00 -0.00000000000E+00 -0.13916031739E+02  0.13916031739E+02  0.00000000000E+00 0. -1.
          5    1    1    2  501    0 -0.57379452672E+01 -0.27706489977E+01 -0.48347815733E+01  0.92771560631E+01  0.47000000000E+01 0. -1.
         -5    1    1    2    0  503  0.57379452672E+01  0.27706489977E+01 -0.45754442340E+01  0.91446816072E+01  0.47000000000E+01 0. -1.
<mgrwt>
<rscale>  2 0.79177340E+01</rscale>
<asrwt>0</asrwt>
<pdfrwt beam="1">  1       21 0.69320093E-03 0.79177340E+01</pdfrwt>
<pdfrwt beam="2">  1       21 0.21409279E-02 0.79177340E+01</pdfrwt>
<totfact> 0.22214723E+09</totfact>
</mgrwt>
</event>
<event>
 4    1  0.4144004E+006  0.7720858E+01  0.7546771E-02  0.2233924E+00
         21   -1    0    0  503  502  0.00000000000E+00  0.00000000000E+00  0.25685636684E+02  0.25685636684E+02  0.00000000000E+00 0. -1.
         21   -1    0    0  501  503 -0.00000000000E+00 -0.00000000000E+00 -0.23286162309E+01  0.23286162309E+01  0.00000000000E+00 0.  1.
          5    1    1    2  501    0 -0.61015492532E+01  0.54106347566E+00  0.12489165208E+02  0.14683014015E+02  0.47000000000E+01 0. -1.
         -5    1    1    2    0  502  0.61015492532E+01 -0.54106347566E+00  0.10867855245E+02  0.13331238899E+02  0.47000000000E+01 0. -1.
<mgrwt>
<rscale>  2 0.77208583E+01</rscale>
<asrwt>0</asrwt>
<pdfrwt beam="1">  1       21 0.39516362E-02 0.77208583E+01</pdfrwt>
<pdfrwt beam="2">  1       21 0.35824867E-03 0.77208583E+01</pdfrwt>
<totfact> 0.22353862E+09</totfact>
</mgrwt>
</event>
<event>
 4    1  0.4144004E+006  0.5452407E+01  0.7546771E-02  0.2492655E+00
         21   -1    0    0  501  502  0.00000000000E+00  0.00000000000E+00  0.15121508060E+02  0.15121508060E+02  0.00000000000E+00 0.  1.
         21   -1    0    0  502  503 -0.00000000000E+00 -0.00000000000E+00 -0.94876034082E+01  0.94876034082E+01  0.00000000000E+00 0.  1.
          5    1    1    2  501    0  0.29377654590E+00  0.27481702635E+01  0.13772728723E+02  0.14812724292E+02  0.47000000000E+01 0.  1.
         -5    1    1    2    0  503 -0.29377654590E+00 -0.27481702635E+01 -0.81388240712E+01  0.97963871768E+01  0.47000000000E+01 0.  1.
<mgrwt>
<rscale>  2 0.54524072E+01</rscale>
<asrwt>0</asrwt>
<pdfrwt beam="1">  1       21 0.23263858E-02 0.54524072E+01</pdfrwt>
<pdfrwt beam="2">  1       21 0.14596313E-02 0.54524072E+01</pdfrwt>
<totfact> 0.51316102E+08</totfact>
</mgrwt>
</event>
<event>
 4    1  0.4144004E+006  0.5191534E+01  0.7546771E-02  0.2534258E+00
         21   -1    0    0  503  502  0.00000000000E+00  0.00000000000E+00  0.60908425200E+01  0.60908425200E+01  0.00000000000E+00 0. -1.
         21   -1    0    0  501  503 -0.00000000000E+00 -0.00000000000E+00 -0.48406187380E+01  0.48406187380E+01  0.00000000000E+00 0. -1.
          5    1    1    2  501    0 -0.16180641715E+01  0.14979641971E+01  0.22266638568E+01  0.56488990370E+01  0.47000000000E+01 0. -1.
         -5    1    1    2    0  502  0.16180641715E+01 -0.14979641971E+01 -0.97644007486E+00  0.52825622210E+01  0.47000000000E+01 0. -1.
<mgrwt>
<rscale>  2 0.51915343E+01</rscale>
<asrwt>0</asrwt>
<pdfrwt beam="1">  1       21 0.93705269E-03 0.51915343E+01</pdfrwt>
<pdfrwt beam="2">  1       21 0.74471058E-03 0.51915343E+01</pdfrwt>
<totfact> 0.45500438E+09</totfact>
</mgrwt>
</event>
<event>
 4    1  0.4144004E+006  0.5550359E+01  0.7546771E-02  0.2477897E+00
         21   -1    0    0  503  502  0.00000000000E+00  0.00000000000E+00  0.26843854469E+01  0.26843854469E+01  0.00000000000E+00 0.  1.
         21   -1    0    0  501  503 -0.00000000000E+00 -0.00000000000E+00 -0.11507269429E+02  0.11507269429E+02  0.00000000000E+00 0.  1.
          5    1    1    2  501    0 -0.22362076618E+01 -0.19276566900E+01 -0.47802817546E+01  0.73251333554E+01  0.47000000000E+01 0.  1.
         -5    1    1    2    0  502  0.22362076618E+01  0.19276566900E+01 -0.40426022273E+01  0.68665215203E+01  0.47000000000E+01 0.  1.
<mgrwt>
<rscale>  2 0.55503590E+01</rscale>
<asrwt>0</asrwt>
<pdfrwt beam="1">  1       21 0.41298237E-03 0.55503590E+01</pdfrwt>
<pdfrwt beam="2">  1       21 0.17703492E-02 0.55503590E+01</pdfrwt>
<totfact> 0.44839703E+09</totfact>
</mgrwt>
</event>
<event>
 4    1  0.4144004E+006  0.6886186E+01  0.7546771E-02  0.2312623E+00
         21   -1    0    0  501  502  0.00000000000E+00  0.00000000000E+00  0.15581243362E+00  0.15581243362E+00  0.00000000000E+00 0. -1.
         21   -1    0    0  502  503 -0.00000000000E+00 -0.00000000000E+00 -0.40862009423E+03  0.40862009423E+03  0.00000000000E+00 0. -1.
          5    1    1    2  501    0 -0.50328377833E+01  0.10081918337E-01 -0.10097942954E+03  0.10121395530E+03  0.47000000000E+01 0. -1.
         -5    1    1    2    0  503  0.50328377833E+01 -0.10081918337E-01 -0.30748485226E+03  0.30756195137E+03  0.47000000000E+01 0. -1.
<mgrwt>
<rscale>  2 0.68861860E+01</rscale>
<asrwt>0</asrwt>
<pdfrwt beam="1">  1       21 0.23971170E-04 0.68861860E+01</pdfrwt>
<pdfrwt beam="2">  1       21 0.62864561E-01 0.68861860E+01</pdfrwt>
<totfact> 0.89401358E+08</totfact>
</mgrwt>
</event>
<event>
 4    1  0.4144004E+006  0.8875265E+01  0.7546771E-02  0.2145283E+00
         21   -1    0    0  503  502  0.00000000000E+00  0.00000000000E+00  0.15372872742E+01  0.15372872742E+01  0.00000000000E+00 0. -1.
         21   -1    0    0  501  503 -0.00000000000E+00 -0.00000000000E+00 -0.71581914655E+02  0.71581914655E+02  0.00000000000E+00 0. -1.
          5    1    1    2  501    0 -0.45455790424E+01 -0.60015038199E+01 -0.54511671626E+02  0.55229454826E+02  0.47000000000E+01 0. -1.
         -5    1    1    2    0  502  0.45455790424E+01  0.60015038199E+01 -0.15532955755E+02  0.17889747104E+02  0.47000000000E+01 0. -1.
<mgrwt>
<rscale>  2 0.88752655E+01</rscale>
<asrwt>0</asrwt>
<pdfrwt beam="1">  1       21 0.23650570E-03 0.88752655E+01</pdfrwt>
<pdfrwt beam="2">  1       21 0.11012604E-01 0.88752655E+01</pdfrwt>
<totfact> 0.90726331E+08</totfact>
</mgrwt>
</event>
<event>
 4    1  0.4144004E+006  0.5436240E+01  0.7546771E-02  0.2495134E+00
         21   -1    0    0  501  502  0.00000000000E+00  0.00000000000E+00  0.35195689747E+03  0.35195689747E+03  0.00000000000E+00 0. -1.
         21   -1    0    0  502  503 -0.00000000000E+00 -0.00000000000E+00 -0.12521011982E+00  0.12521011982E+00  0.00000000000E+00 0. -1.
          5    1    1    2  501    0 -0.16586810759E+01  0.21705950802E+01  0.27695061900E+03  0.27700396761E+03  0.47000000000E+01 0. -1.
         -5    1    1    2    0  503  0.16586810759E+01 -0.21705950802E+01  0.74881068348E+02  0.75078139980E+02  0.47000000000E+01 0. -1.
<mgrwt>
<rscale>  2 0.54362401E+01</rscale>
<asrwt>0</asrwt>
<pdfrwt beam="1">  1       21 0.54146423E-01 0.54362401E+01</pdfrwt>
<pdfrwt beam="2">  1       21 0.19263377E-04 0.54362401E+01</pdfrwt>
<totfact> 0.13312039E+09</totfact>
</mgrwt>
</event>
<event>
 4    1  0.4144004E+006  0.5605075E+01  0.7546771E-02  0.2469845E+00
         21   -1    0    0  501  502  0.00000000000E+00  0.00000000000E+00  0.49521611530E+02  0.49521611530E+02  0.00000000000E+00 0. -1.
         21   -1    0    0  502  503 -0.00000000000E+00 -0.00000000000E+00 -0.11740487913E+01  0.11740487913E+01  0.00000000000E+00 0. -1.
          5    1    1    2  501    0  0.32522920443E+00 -0.30366257658E+01  0.41358815423E+02  0.41736895947E+02  0.47000000000E+01 0. -1.
         -5    1    1    2    0  503 -0.32522920443E+00  0.30366257658E+01  0.69887473157E+01  0.89587643746E+01  0.47000000000E+01 0. -1.
<mgrwt>
<rscale>  2 0.56050754E+01</rscale>
<asrwt>0</asrwt>
<pdfrwt beam="1">  1       21 0.76187078E-02 0.56050754E+01</pdfrwt>
<pdfrwt beam="2">  1       21 0.18062293E-03 0.56050754E+01</pdfrwt>
<totfact> 0.16623481E+09</totfact>
</mgrwt>
</event>
<event>
 4    1  0.4144004E+006  0.1591817E+02  0.7546771E-02  0.1841278E+00
         21   -1    0    0  503  502  0.00000000000E+00  0.00000000000E+00  0.34996591008E+02  0.34996591008E+02  0.00000000000E+00 0. -1.
         21   -1    0    0  501  503 -0.00000000000E+00 -0.00000000000E+00 -0.95076835324E+01  0.95076835324E+01  0.00000000000E+00 0. -1.
          5    1    1    2  501    0 -0.86180445754E+00 -0.15184048930E+02  0.18779268137E+01  0.16028557576E+02  0.47000000000E+01 0. -1.
         -5    1    1    2    0  502  0.86180445754E+00  0.15184048930E+02  0.23610980662E+02  0.28475716965E+02  0.47000000000E+01 0. -1.
<mgrwt>
<rscale>  2 0.15918167E+02</rscale>
<asrwt>0</asrwt>
<pdfrwt beam="1">  1       21 0.53840909E-02 0.15918167E+02</pdfrwt>
<pdfrwt beam="2">  1       21 0.14627206E-02 0.15918167E+02</pdfrwt>
<totfact> 0.26932620E+08</totfact>
</mgrwt>
</event>
<event>
 4    1  0.4144004E+006  0.5585350E+01  0.7546771E-02  0.2472732E+00
         21   -1    0    0  501  502  0.00000000000E+00  0.00000000000E+00  0.11704647358E+03  0.11704647358E+03  0.00000000000E+00 0. -1.
         21   -1    0    0  502  503 -0.00000000000E+00 -0.00000000000E+00 -0.30642112954E+00  0.30642112954E+00  0.00000000000E+00 0. -1.
          5    1    1    2  501    0 -0.30100436400E+01  0.21395169848E+00  0.79541673404E+02  0.79737531602E+02  0.47000000000E+01 0. -1.
         -5    1    1    2    0  503  0.30100436400E+01 -0.21395169848E+00  0.37198379050E+02  0.37615363111E+02  0.47000000000E+01 0. -1.
<mgrwt>
<rscale>  2 0.55853503E+01</rscale>
<asrwt>0</asrwt>
<pdfrwt beam="1">  1       21 0.18007114E-01 0.55853503E+01</pdfrwt>
<pdfrwt beam="2">  1       21 0.47141806E-04 0.55853503E+01</pdfrwt>
<totfact> 0.26528766E+09</totfact>
</mgrwt>
</event>
<event>
 4    1  0.4144004E+006  0.5495169E+01  0.7546771E-02  0.2486158E+00
         21   -1    0    0  503  502  0.00000000000E+00  0.00000000000E+00  0.48499748969E+02  0.48499748969E+02  0.00000000000E+00 0.  1.
         21   -1    0    0  501  503 -0.00000000000E+00 -0.00000000000E+00 -0.55873535999E+01  0.55873535999E+01  0.00000000000E+00 0.  1.
          5    1    1    2  501    0  0.20149937887E+01 -0.20116365908E+01 -0.40360803596E+01  0.68181248457E+01  0.47000000000E+01 0.  1.
         -5    1    1    2    0  502 -0.20149937887E+01  0.20116365908E+01  0.46948475729E+02  0.47268977723E+02  0.47000000000E+01 0.  1.
<mgrwt>
<rscale>  2 0.54951689E+01</rscale>
<asrwt>0</asrwt>
<pdfrwt beam="1">  1       21 0.74614996E-02 0.54951689E+01</pdfrwt>
<pdfrwt beam="2">  1       21 0.85959289E-03 0.54951689E+01</pdfrwt>
<totfact> 0.19757905E+08</totfact>
</mgrwt>
</event>
<event>
 4    1  0.4144004E+006  0.7036417E+01  0.7546771E-02  0.2297338E+00
         21   -1    0    0  501  502  0.00000000000E+00  0.00000000000E+00  0.12454711952E+00  0.12454711952E+00  0.00000000000E+00 0.  1.
         21   -1    0    0  502  503 -0.00000000000E+00 -0.00000000000E+00 -0.63518108348E+03  0.63518108348E+03  0.00000000000E+00 0.  1.
          5    1    1    2  501    0  0.36699504087E+01 -0.37353220920E+01 -0.12322764576E+03  0.12342837537E+03  0.47000000000E+01 0.  1.
         -5    1    1    2    0  503 -0.36699504087E+01  0.37353220920E+01 -0.51182889060E+03  0.51187725523E+03  0.47000000000E+01 0.  1.
<mgrwt>
<rscale>  2 0.70364172E+01</rscale>
<asrwt>0</asrwt>
<pdfrwt beam="1">  1       21 0.19160864E-04 0.70364172E+01</pdfrwt>
<pdfrwt beam="2">  1       21 0.97721346E-01 0.70364172E+01</pdfrwt>
<totfact> 0.51572613E+08</totfact>
</mgrwt>
</event>
<event>
 4    1  0.4144004E+006  0.6302468E+01  0.7546771E-02  0.2377644E+00
         21   -1    0    0  501  502  0.00000000000E+00  0.00000000000E+00  0.36292714332E+03  0.36292714332E+03  0.00000000000E+00 0. -1.
         21   -1    0    0  502  503 -0.00000000000E+00 -0.00000000000E+00 -0.11570057206E+00  0.11570057206E+00  0.00000000000E+00 0. -1.
          5    1    1    2  501    0 -0.25753234194E+01 -0.33164461618E+01  0.22360854867E+03  0.22369734944E+03  0.47000000000E+01 0. -1.
         -5    1    1    2    0  503  0.25753234194E+01  0.33164461618E+01  0.13920289407E+03  0.13934549445E+03  0.47000000000E+01 0. -1.
<mgrwt>
<rscale>  2 0.63024682E+01</rscale>
<asrwt>0</asrwt>
<pdfrwt beam="1">  1       21 0.55834034E-01 0.63024682E+01</pdfrwt>
<pdfrwt beam="2">  1       21 0.17800379E-04 0.63024682E+01</pdfrwt>
<totfact> 0.15630886E+09</totfact>
</mgrwt>
</event>
<event>
 4    1  0.4144004E+006  0.5232822E+01  0.7546771E-02  0.2527438E+00
         21   -1    0    0  503  502  0.00000000000E+00  0.00000000000E+00  0.41942714181E-01  0.41942714181E-01  0.00000000000E+00 0.  1.
         21   -1    0    0  501  503 -0.00000000000E+00 -0.00000000000E+00 -0.81272359299E+03  0.81272359299E+03  0.00000000000E+00 0. -1.
          5    1    1    2  501    0 -0.19060670113E+01  0.12881501990E+01 -0.58657962443E+03  0.58660296472E+03  0.47000000000E+01 0. -1.
         -5    1    1    2    0  502  0.19060670113E+01 -0.12881501990E+01 -0.22610202585E+03  0.22616257099E+03  0.47000000000E+01 0.  1.
<mgrwt>
<rscale>  2 0.52328216E+01</rscale>
<asrwt>0</asrwt>
<pdfrwt beam="1">  1       21 0.64524270E-05 0.52328216E+01</pdfrwt>
<pdfrwt beam="2">  1       21 0.12504018E+00 0.52328216E+01</pdfrwt>
<totfact> 0.10906290E+09</totfact>
</mgrwt>
</event>
<event>
 4    1  0.4144004E+006  0.1121612E+02  0.7546771E-02  0.2011738E+00
         21   -1    0    0  501  502  0.00000000000E+00  0.00000000000E+00  0.34782061657E+02  0.34782061657E+02  0.00000000000E+00 0.  1.
         21   -1    0    0  502  503 -0.00000000000E+00 -0.00000000000E+00 -0.40764950529E+01  0.40764950529E+01  0.00000000000E+00 0.  1.
          5    1    1    2  501    0 -0.22503216019E+01  0.99321448366E+01  0.21876952309E+02  0.24584598649E+02  0.47000000000E+01 0.  1.
         -5    1    1    2    0  503  0.22503216019E+01 -0.99321448366E+01  0.88286142945E+01  0.14273958061E+02  0.47000000000E+01 0.  1.
<mgrwt>
<rscale>  2 0.11216124E+02</rscale>
<asrwt>0</asrwt>
<pdfrwt beam="1">  1       21 0.53510862E-02 0.11216124E+02</pdfrwt>
<pdfrwt beam="2">  1       21 0.62715311E-03 0.11216124E+02</pdfrwt>
<totfact> 0.80361508E+08</totfact>
</mgrwt>
</event>
<event>
 4    1  0.4144004E+006  0.5148868E+01  0.7546771E-02  0.2541404E+00
         21   -1    0    0  501  502  0.00000000000E+00  0.00000000000E+00  0.51345028352E+02  0.51345028352E+02  0.00000000000E+00 0. -1.
         21   -1    0    0  502  503 -0.00000000000E+00 -0.00000000000E+00 -0.48086183760E+02  0.48086183760E+02  0.00000000000E+00 0. -1.
          5    1    1    2  501    0 -0.17804678062E+01 -0.11183805445E+01  0.51077396334E+02  0.51336256748E+02  0.47000000000E+01 0. -1.
         -5    1    1    2    0  503  0.17804678062E+01  0.11183805445E+01 -0.47818551742E+02  0.48094955363E+02  0.47000000000E+01 0. -1.
<mgrwt>
<rscale>  2 0.51488679E+01</rscale>
<asrwt>0</asrwt>
<pdfrwt beam="1">  1       21 0.78992352E-02 0.51488679E+01</pdfrwt>
<pdfrwt beam="2">  1       21 0.73978744E-02 0.51488679E+01</pdfrwt>
<totfact> 0.78636603E+06</totfact>
</mgrwt>
</event>
<event>
 4    1  0.4144004E+006  0.5950229E+01  0.7546771E-02  0.2421947E+00
         21   -1    0    0  501  502  0.00000000000E+00  0.00000000000E+00  0.10349428828E+04  0.10349428828E+04  0.00000000000E+00 0. -1.
         21   -1    0    0  502  503 -0.00000000000E+00 -0.00000000000E+00 -0.44389852245E-01  0.44389852245E-01  0.00000000000E+00 0. -1.
          5    1    1    2  501    0 -0.19903072394E+01 -0.30584150844E+01  0.26962864266E+03  0.26969429020E+03  0.47000000000E+01 0. -1.
         -5    1    1    2    0  503  0.19903072394E+01  0.30584150844E+01  0.76526985028E+03  0.76529298244E+03  0.47000000000E+01 0. -1.
<mgrwt>
<rscale>  2 0.59502290E+01</rscale>
<asrwt>0</asrwt>
<pdfrwt beam="1">  1       21 0.15920266E+00 0.59502290E+01</pdfrwt>
<pdfrwt beam="2">  1       21 0.68300369E-05 0.59502290E+01</pdfrwt>
<totfact> 0.66122027E+08</totfact>
</mgrwt>
</event>
<event>
 4    1  0.4144004E+006  0.6533242E+01  0.7546771E-02  0.2350791E+00
         21   -1    0    0  503  502  0.00000000000E+00  0.00000000000E+00  0.81946632561E+03  0.81946632561E+03  0.00000000000E+00 0. -1.
         21   -1    0    0  501  503 -0.00000000000E+00 -0.00000000000E+00 -0.74202563709E-01  0.74202563709E-01  0.00000000000E+00 0.  1.
          5    1    1    2  501    0 -0.62423641689E+00  0.44948397047E+01  0.18598707252E+03  0.18610178505E+03  0.47000000000E+01 0.  1.
         -5    1    1    2    0  502  0.62423641689E+00 -0.44948397047E+01  0.63340505053E+03  0.63343874312E+03  0.47000000000E+01 0. -1.
<mgrwt>
<rscale>  2 0.65332423E+01</rscale>
<asrwt>0</asrwt>
<pdfrwt beam="1">  1       21 0.12606450E+00 0.65332423E+01</pdfrwt>
<pdfrwt beam="2">  1       21 0.11416435E-04 0.65332423E+01</pdfrwt>
<totfact> 0.58051540E+08</totfact>
</mgrwt>
</event>
<event>
 4    1  0.4144004E+006  0.5966582E+01  0.7546771E-02  0.2419793E+00
         21   -1    0    0  501  502  0.00000000000E+00  0.00000000000E+00  0.17404254334E+01  0.17404254334E+01  0.00000000000E+00 0.  1.
         21   -1    0    0  502  503 -0.00000000000E+00 -0.00000000000E+00 -0.61048312684E+02  0.61048312684E+02  0.00000000000E+00 0.  1.
          5    1    1    2  501    0  0.32191531663E+01  0.17740210348E+01 -0.40537582690E+01  0.72133940585E+01  0.47000000000E+01 0.  1.
         -5    1    1    2    0  503 -0.32191531663E+01 -0.17740210348E+01 -0.55254128982E+02  0.55575344059E+02  0.47000000000E+01 0.  1.
<mgrwt>
<rscale>  2 0.59665817E+01</rscale>
<asrwt>0</asrwt>
<pdfrwt beam="1">  1       21 0.26775772E-03 0.59665817E+01</pdfrwt>
<pdfrwt beam="2">  1       21 0.93920496E-02 0.59665817E+01</pdfrwt>
<totfact> 0.74564071E+08</totfact>
</mgrwt>
</event>
<event>
 4    1  0.4144004E+006  0.7955335E+01  0.7546771E-02  0.2214255E+00
         21   -1    0    0  501  502  0.00000000000E+00  0.00000000000E+00  0.89839886084E+00  0.89839886084E+00  0.00000000000E+00 0.  1.
         21   -1    0    0  502  503 -0.00000000000E+00 -0.00000000000E+00 -0.13011401833E+03  0.13011401833E+03  0.00000000000E+00 0.  1.
          5    1    1    2  501    0 -0.30868984950E+01  0.56274691844E+01 -0.10896829698E+03  0.10925830448E+03  0.47000000000E+01 0.  1.
         -5    1    1    2    0  503  0.30868984950E+01 -0.56274691844E+01 -0.20247322492E+02  0.21754112710E+02  0.47000000000E+01 0.  1.
<mgrwt>
<rscale>  2 0.79553348E+01</rscale>
<asrwt>0</asrwt>
<pdfrwt beam="1">  1       21 0.13821525E-03 0.79553348E+01</pdfrwt>
<pdfrwt beam="2">  1       21 0.20017536E-01 0.79553348E+01</pdfrwt>
<totfact> 0.67977843E+08</totfact>
</mgrwt>
</event>
<event>
 4    1  0.4144004E+006  0.4748144E+01  0.7546771E-02  0.2613871E+00
         21   -1    0    0  503  502  0.00000000000E+00  0.00000000000E+00  0.53544980422E+01  0.53544980422E+01  0.00000000000E+00 0. -1.
         21   -1    0    0  501  503 -0.00000000000E+00 -0.00000000000E+00 -0.10415718784E+02  0.10415718784E+02  0.00000000000E+00 0. -1.
          5    1    1    2  501    0  0.67051003950E+00 -0.72721906593E-01 -0.86167677112E+01  0.98383717137E+01  0.47000000000E+01 0. -1.
         -5    1    1    2    0  502 -0.67051003950E+00  0.72721906593E-01  0.35555469693E+01  0.59318451126E+01  0.47000000000E+01 0. -1.
<mgrwt>
<rscale>  2 0.47481441E+01</rscale>
<asrwt>0</asrwt>
<pdfrwt beam="1">  1       21 0.82376893E-03 0.47481441E+01</pdfrwt>
<pdfrwt beam="2">  1       21 0.16024183E-02 0.47481441E+01</pdfrwt>
<totfact> 0.17023149E+09</totfact>
</mgrwt>
</event>
<event>
 4    1  0.4144004E+006  0.5207431E+01  0.7546771E-02  0.2531621E+00
         21   -1    0    0  503  502  0.00000000000E+00  0.00000000000E+00  0.11344905305E+02  0.11344905305E+02  0.00000000000E+00 0.  1.
         21   -1    0    0  501  503 -0.00000000000E+00 -0.00000000000E+00 -0.23914593752E+01  0.23914593752E+01  0.00000000000E+00 0. -1.
          5    1    1    2  501    0  0.10913886351E-01  0.22421461025E+01  0.43232790849E+01  0.67681666870E+01  0.47000000000E+01 0. -1.
         -5    1    1    2    0  502 -0.10913886351E-01 -0.22421461025E+01  0.46301668446E+01  0.69681979928E+01  0.47000000000E+01 0.  1.
<mgrwt>
<rscale>  2 0.52074311E+01</rscale>
<asrwt>0</asrwt>
<pdfrwt beam="1">  1       21 0.17453700E-02 0.52074311E+01</pdfrwt>
<pdfrwt beam="2">  1       21 0.36791683E-03 0.52074311E+01</pdfrwt>
<totfact> 0.50302629E+09</totfact>
</mgrwt>
</event>
<event>
 4    1  0.4144004E+006  0.9608506E+01  0.7546771E-02  0.2097977E+00
         21   -1    0    0  501  502  0.00000000000E+00  0.00000000000E+00  0.99470366233E+03  0.99470366233E+03  0.00000000000E+00 0. -1.
         21   -1    0    0  502  503 -0.00000000000E+00 -0.00000000000E+00 -0.13675570923E+00  0.13675570923E+00  0.00000000000E+00 0. -1.
          5    1    1    2  501    0  0.80400063353E+01  0.23646747623E+01  0.77924142767E+03  0.77930066469E+03  0.47000000000E+01 0. -1.
         -5    1    1    2    0  503 -0.80400063353E+01 -0.23646747623E+01  0.21532547895E+03  0.21553975335E+03  0.47000000000E+01 0. -1.
<mgrwt>
<rscale>  2 0.96085061E+01</rscale>
<asrwt>0</asrwt>
<pdfrwt beam="1">  1       21 0.15302554E+00 0.96085061E+01</pdfrwt>
<pdfrwt beam="2">  1       21 0.21040136E-04 0.96085061E+01</pdfrwt>
<totfact> 0.20375754E+08</totfact>
</mgrwt>
</event>
<event>
 4    1  0.4144004E+006  0.7168234E+01  0.7546771E-02  0.2284360E+00
         21   -1    0    0  501  502  0.00000000000E+00  0.00000000000E+00  0.37964560705E+02  0.37964560705E+02  0.00000000000E+00 0.  1.
         21   -1    0    0  502  503 -0.00000000000E+00 -0.00000000000E+00 -0.16991761867E+01  0.16991761867E+01  0.00000000000E+00 0.  1.
          5    1    1    2  501    0  0.46431455518E+01  0.27811471713E+01  0.91872216415E+01  0.11652837495E+02  0.47000000000E+01 0.  1.
         -5    1    1    2    0  503 -0.46431455518E+01 -0.27811471713E+01  0.27078162877E+02  0.28010899397E+02  0.47000000000E+01 0.  1.
<mgrwt>
<rscale>  2 0.71682341E+01</rscale>
<asrwt>0</asrwt>
<pdfrwt beam="1">  1       21 0.58407010E-02 0.71682341E+01</pdfrwt>
<pdfrwt beam="2">  1       21 0.26141175E-03 0.71682341E+01</pdfrwt>
<totfact> 0.18238525E+09</totfact>
</mgrwt>
</event>
<event>
 4    1  0.4144004E+006  0.5802625E+01  0.7546771E-02  0.2441842E+00
         21   -1    0    0  503  502  0.00000000000E+00  0.00000000000E+00  0.12456970940E+00  0.12456970940E+00  0.00000000000E+00 0. -1.
         21   -1    0    0  501  503 -0.00000000000E+00 -0.00000000000E+00 -0.28859474177E+03  0.28859474177E+03  0.00000000000E+00 0. -1.
          5    1    1    2  501    0 -0.37013567789E+00 -0.33828186035E+01 -0.18058759158E+03  0.18068079226E+03  0.47000000000E+01 0. -1.
         -5    1    1    2    0  502  0.37013567789E+00  0.33828186035E+01 -0.10788258049E+03  0.10803851922E+03  0.47000000000E+01 0. -1.
<mgrwt>
<rscale>  2 0.58026255E+01</rscale>
<asrwt>0</asrwt>
<pdfrwt beam="1">  1       21 0.19164665E-04 0.58026255E+01</pdfrwt>
<pdfrwt beam="2">  1       21 0.44398972E-01 0.58026255E+01</pdfrwt>
<totfact> 0.20121225E+09</totfact>
</mgrwt>
</event>
<event>
 4    1  0.4144004E+006  0.5014183E+01  0.7546771E-02  0.2564644E+00
         21   -1    0    0  503  502  0.00000000000E+00  0.00000000000E+00  0.43499580610E+02  0.43499580610E+02  0.00000000000E+00 0.  1.
         21   -1    0    0  501  503 -0.00000000000E+00 -0.00000000000E+00 -0.85979608753E+00  0.85979608753E+00  0.00000000000E+00 0.  1.
          5    1    1    2  501    0  0.15736734869E+01  0.75867370581E+00  0.86218138660E+01  0.99738512309E+01  0.47000000000E+01 0. -1.
         -5    1    1    2    0  502 -0.15736734869E+01 -0.75867370581E+00  0.34017970657E+02  0.34385525467E+02  0.47000000000E+01 0. -1.
<mgrwt>
<rscale>  2 0.50141833E+01</rscale>
<asrwt>0</asrwt>
<pdfrwt beam="1">  1       21 0.66922415E-02 0.50141833E+01</pdfrwt>
<pdfrwt beam="2">  1       21 0.13227635E-03 0.50141833E+01</pdfrwt>
<totfact> 0.27615962E+09</totfact>
</mgrwt>
</event>
<event>
 4    1  0.4144004E+006  0.5339711E+01  0.7546771E-02  0.2510202E+00
         21   -1    0    0  501  502  0.00000000000E+00  0.00000000000E+00  0.68098199767E+00  0.68098199767E+00  0.00000000000E+00 0.  1.
         21   -1    0    0  502  503 -0.00000000000E+00 -0.00000000000E+00 -0.41943868608E+02  0.41943868608E+02  0.00000000000E+00 0.  1.
          5    1    1    2  501    0 -0.53701861333E+00 -0.24767164323E+01 -0.19735247345E+02  0.20444864907E+02  0.47000000000E+01 0.  1.
         -5    1    1    2    0  503  0.53701861333E+00  0.24767164323E+01 -0.21527639266E+02  0.22179985699E+02  0.47000000000E+01 0.  1.
<mgrwt>
<rscale>  2 0.53397110E+01</rscale>
<asrwt>0</asrwt>
<pdfrwt beam="1">  1       21 0.10476644E-03 0.53397110E+01</pdfrwt>
<pdfrwt beam="2">  1       21 0.64529042E-02 0.53397110E+01</pdfrwt>
<totfact> 0.42358994E+09</totfact>
</mgrwt>
</event>
<event>
 4    1  0.4144004E+006  0.5960417E+01  0.7546771E-02  0.2420604E+00
         21   -1    0    0  501  502  0.00000000000E+00  0.00000000000E+00  0.56588223627E-01  0.56588223627E-01  0.00000000000E+00 0. -1.
         21   -1    0    0  502  503 -0.00000000000E+00 -0.00000000000E+00 -0.86993363648E+03  0.86993363648E+03  0.00000000000E+00 0. -1.
          5    1    1    2  501    0  0.22771566265E+01  0.28724768791E+01 -0.20544983375E+03  0.20553627600E+03  0.47000000000E+01 0. -1.
         -5    1    1    2    0  503 -0.22771566265E+01 -0.28724768791E+01 -0.66442721451E+03  0.66445394870E+03  0.47000000000E+01 0. -1.
<mgrwt>
<rscale>  2 0.59604166E+01</rscale>
<asrwt>0</asrwt>
<pdfrwt beam="1">  1       21 0.87057654E-05 0.59604166E+01</pdfrwt>
<pdfrwt beam="2">  1       21 0.13383771E+00 0.59604166E+01</pdfrwt>
<totfact> 0.69360408E+08</totfact>
</mgrwt>
</event>
<event>
 4    1  0.4144004E+006  0.5772557E+01  0.7546771E-02  0.2446000E+00
         21   -1    0    0  501  502  0.00000000000E+00  0.00000000000E+00  0.42865520479E+02  0.42865520479E+02  0.00000000000E+00 0.  1.
         21   -1    0    0  502  503 -0.00000000000E+00 -0.00000000000E+00 -0.10198263156E+01  0.10198263156E+01  0.00000000000E+00 0.  1.
          5    1    1    2  501    0  0.11277023050E+01  0.31560587843E+01  0.31621821280E+02  0.32144392989E+02  0.47000000000E+01 0.  1.
         -5    1    1    2    0  503 -0.11277023050E+01 -0.31560587843E+01  0.10223872883E+02  0.11740953806E+02  0.47000000000E+01 0.  1.
<mgrwt>
<rscale>  2 0.57725575E+01</rscale>
<asrwt>0</asrwt>
<pdfrwt beam="1">  1       21 0.65946940E-02 0.57725575E+01</pdfrwt>
<pdfrwt beam="2">  1       21 0.15689639E-03 0.57725575E+01</pdfrwt>
<totfact> 0.25618699E+09</totfact>
</mgrwt>
</event>
<event>
 4    1  0.4144004E+006  0.7395474E+01  0.7546771E-02  0.2262879E+00
         21   -1    0    0  501  502  0.00000000000E+00  0.00000000000E+00  0.43102124984E+00  0.43102124984E+00  0.00000000000E+00 0.  1.
         21   -1    0    0  502  503 -0.00000000000E+00 -0.00000000000E+00 -0.34660029452E+03  0.34660029452E+03  0.00000000000E+00 0. -1.
          5    1    1    2  501    0 -0.42449020554E+01 -0.38188797560E+01 -0.34935653796E+02  0.35709843772E+02  0.47000000000E+01 0.  1.
         -5    1    1    2    0  503  0.42449020554E+01  0.38188797560E+01 -0.31123361948E+03  0.31132147200E+03  0.47000000000E+01 0. -1.
<mgrwt>
<rscale>  2 0.73954740E+01</rscale>
<asrwt>0</asrwt>
<pdfrwt beam="1">  1       21 0.66310911E-04 0.73954740E+01</pdfrwt>
<pdfrwt beam="2">  1       21 0.53323162E-01 0.73954740E+01</pdfrwt>
<totfact> 0.32258933E+08</totfact>
</mgrwt>
</event>
<event>
 4    1  0.4144004E+006  0.7656232E+01  0.7546771E-02  0.2239516E+00
         21   -1    0    0  501  502  0.00000000000E+00  0.00000000000E+00  0.84268043872E+01  0.84268043872E+01  0.00000000000E+00 0.  1.
         21   -1    0    0  502  503 -0.00000000000E+00 -0.00000000000E+00 -0.87645039463E+01  0.87645039463E+01  0.00000000000E+00 0.  1.
          5    1    1    2  501    0  0.58734140823E+01  0.14250942706E+01  0.37356035967E+01  0.85189565613E+01  0.47000000000E+01 0.  1.
         -5    1    1    2    0  503 -0.58734140823E+01 -0.14250942706E+01 -0.40733031558E+01  0.86723517722E+01  0.47000000000E+01 0.  1.
<mgrwt>
<rscale>  2 0.76562319E+01</rscale>
<asrwt>0</asrwt>
<pdfrwt beam="1">  1       21 0.12964314E-02 0.76562319E+01</pdfrwt>
<pdfrwt beam="2">  1       21 0.13483852E-02 0.76562319E+01</pdfrwt>
<totfact> 0.17322364E+09</totfact>
</mgrwt>
</event>
<event>
 4    1  0.4144004E+006  0.4750246E+01  0.7546771E-02  0.2613463E+00
         21   -1    0    0  503  502  0.00000000000E+00  0.00000000000E+00  0.10666023102E+00  0.10666023102E+00  0.00000000000E+00 0. -1.
         21   -1    0    0  501  503 -0.00000000000E+00 -0.00000000000E+00 -0.21388781609E+03  0.21388781609E+03  0.00000000000E+00 0. -1.
          5    1    1    2  501    0  0.92667838498E-01  0.68282278431E+00 -0.95723684065E+02  0.95841476017E+02  0.47000000000E+01 0. -1.
         -5    1    1    2    0  502 -0.92667838498E-01 -0.68282278431E+00 -0.11805747180E+03  0.11815300031E+03  0.47000000000E+01 0. -1.
<mgrwt>
<rscale>  2 0.47502457E+01</rscale>
<asrwt>0</asrwt>
<pdfrwt beam="1">  1       21 0.16409434E-04 0.47502457E+01</pdfrwt>
<pdfrwt beam="2">  1       21 0.32905481E-01 0.47502457E+01</pdfrwt>
<totfact> 0.34713674E+09</totfact>
</mgrwt>
</event>
<event>
 4    1  0.4144004E+006  0.5342290E+01  0.7546771E-02  0.2509793E+00
         21   -1    0    0  503  502  0.00000000000E+00  0.00000000000E+00  0.84616169071E+01  0.84616169071E+01  0.00000000000E+00 0.  1.
         21   -1    0    0  501  503 -0.00000000000E+00 -0.00000000000E+00 -0.33971255477E+01  0.33971255477E+01  0.00000000000E+00 0.  1.
          5    1    1    2  501    0  0.23760188552E+01  0.89699154923E+00  0.30331161594E+01  0.61432770633E+01  0.47000000000E+01 0.  1.
         -5    1    1    2    0  502 -0.23760188552E+01 -0.89699154923E+00  0.20313752000E+01  0.57154653916E+01  0.47000000000E+01 0.  1.
<mgrwt>
<rscale>  2 0.53422897E+01</rscale>
<asrwt>0</asrwt>
<pdfrwt beam="1">  1       21 0.13017872E-02 0.53422897E+01</pdfrwt>
<pdfrwt beam="2">  1       21 0.52263470E-03 0.53422897E+01</pdfrwt>
<totfact> 0.48250992E+09</totfact>
</mgrwt>
</event>
<event>
 4    1  0.4144004E+006  0.7966079E+01  0.7546771E-02  0.2213377E+00
         21   -1    0    0  501  502  0.00000000000E+00  0.00000000000E+00  0.20157214178E+02  0.20157214178E+02  0.00000000000E+00 0. -1.
         21   -1    0    0  502  503 -0.00000000000E+00 -0.00000000000E+00 -0.39046472987E+01  0.39046472987E+01  0.00000000000E+00 0.  1.
          5    1    1    2  501    0  0.62681364601E+01 -0.14418325755E+01  0.13421761188E+02  0.15607757342E+02  0.47000000000E+01 0. -1.
         -5    1    1    2    0  503 -0.62681364601E+01  0.14418325755E+01  0.28308056913E+01  0.84541041347E+01  0.47000000000E+01 0.  1.
<mgrwt>
<rscale>  2 0.79660791E+01</rscale>
<asrwt>0</asrwt>
<pdfrwt beam="1">  1       21 0.31011098E-02 0.79660791E+01</pdfrwt>
<pdfrwt beam="2">  1       21 0.60071498E-03 0.79660791E+01</pdfrwt>
<totfact> 0.15838765E+09</totfact>
</mgrwt>
</event>
<event>
 4    1  0.4144004E+006  0.1508861E+02  0.7546771E-02  0.1865377E+00
         21   -1    0    0  503  502  0.00000000000E+00  0.00000000000E+00  0.59939317428E+00  0.59939317428E+00  0.00000000000E+00 0.  1.
         21   -1    0    0  501  503 -0.00000000000E+00 -0.00000000000E+00 -0.94658645678E+03  0.94658645678E+03  0.00000000000E+00 0. -1.
          5    1    1    2  501    0 -0.12806612421E+02  0.64472337464E+01 -0.83945150320E+03  0.83958709635E+03  0.47000000000E+01 0. -1.
         -5    1    1    2    0  502  0.12806612421E+02 -0.64472337464E+01 -0.10653556041E+03  0.10759875360E+03  0.47000000000E+01 0.  1.
<mgrwt>
<rscale>  2 0.15088610E+02</rscale>
<asrwt>0</asrwt>
<pdfrwt beam="1">  1       21 0.92214043E-04 0.15088610E+02</pdfrwt>
<pdfrwt beam="2">  1       21 0.14562915E+00 0.15088610E+02</pdfrwt>
<totfact> 0.34636863E+07</totfact>
</mgrwt>
</event>
<event>
 4    1  0.4144004E+006  0.1018898E+02  0.7546771E-02  0.2064389E+00
         21   -1    0    0  503  502  0.00000000000E+00  0.00000000000E+00  0.44389767790E+03  0.44389767790E+03  0.00000000000E+00 0.  1.
         21   -1    0    0  501  503 -0.00000000000E+00 -0.00000000000E+00 -0.24026767597E+00  0.24026767597E+00  0.00000000000E+00 0.  1.
          5    1    1    2  501    0 -0.73949681568E+01  0.51999829559E+01  0.18559833255E+03  0.18587779970E+03  0.47000000000E+01 0.  1.
         -5    1    1    2    0  502  0.73949681568E+01 -0.51999829559E+01  0.25805907767E+03  0.25826014587E+03  0.47000000000E+01 0.  1.
<mgrwt>
<rscale>  2 0.10188983E+02</rscale>
<asrwt>0</asrwt>
<pdfrwt beam="1">  1       21 0.68291294E-01 0.10188983E+02</pdfrwt>
<pdfrwt beam="2">  1       21 0.36964613E-04 0.10188983E+02</pdfrwt>
<totfact> 0.52841392E+08</totfact>
</mgrwt>
</event>
<event>
 4    1  0.4144004E+006  0.7031425E+01  0.7546771E-02  0.2297837E+00
         21   -1    0    0  501  502  0.00000000000E+00  0.00000000000E+00  0.37328618684E+03  0.37328618684E+03  0.00000000000E+00 0. -1.
         21   -1    0    0  502  503 -0.00000000000E+00 -0.00000000000E+00 -0.13728435582E+00  0.13728435582E+00  0.00000000000E+00 0. -1.
          5    1    1    2  501    0 -0.42084711986E+01  0.31047876582E+01  0.22161968416E+03  0.22173120065E+03  0.47000000000E+01 0. -1.
         -5    1    1    2    0  503  0.42084711986E+01 -0.31047876582E+01  0.15152921833E+03  0.15169227054E+03  0.47000000000E+01 0. -1.
<mgrwt>
<rscale>  2 0.70314249E+01</rscale>
<asrwt>0</asrwt>
<pdfrwt beam="1">  1       21 0.57427831E-01 0.70314249E+01</pdfrwt>
<pdfrwt beam="2">  1       21 0.21120969E-04 0.70314249E+01</pdfrwt>
<totfact> 0.12723572E+09</totfact>
</mgrwt>
</event>
<event>
 4    1  0.4144004E+006  0.8360595E+01  0.7546771E-02  0.2182374E+00
         21   -1    0    0  503  502  0.00000000000E+00  0.00000000000E+00  0.10344478311E+01  0.10344478311E+01  0.00000000000E+00 0.  1.
         21   -1    0    0  501  503 -0.00000000000E+00 -0.00000000000E+00 -0.69463402195E+02  0.69463402195E+02  0.00000000000E+00 0. -1.
          5    1    1    2  501    0  0.19804878689E+01 -0.66247421662E+01 -0.40031200778E+02  0.40894945613E+02  0.47000000000E+01 0.  1.
         -5    1    1    2    0  502 -0.19804878689E+01  0.66247421662E+01 -0.28397753587E+02  0.29602904414E+02  0.47000000000E+01 0. -1.
<mgrwt>
<rscale>  2 0.83605945E+01</rscale>
<asrwt>0</asrwt>
<pdfrwt beam="1">  1       21 0.15914578E-03 0.83605945E+01</pdfrwt>
<pdfrwt beam="2">  1       21 0.10686680E-01 0.83605945E+01</pdfrwt>
<totfact> 0.15874481E+09</totfact>
</mgrwt>
</event>
<event>
 4    1  0.4144004E+006  0.8255573E+01  0.7546771E-02  0.2190394E+00
         21   -1    0    0  503  502  0.00000000000E+00  0.00000000000E+00  0.14188797366E+01  0.14188797366E+01  0.00000000000E+00 0.  1.
         21   -1    0    0  501  503 -0.00000000000E+00 -0.00000000000E+00 -0.48081119009E+02  0.48081119009E+02  0.00000000000E+00 0. -1.
          5    1    1    2  501    0  0.66434219606E+01 -0.13890366743E+01 -0.24105861239E+02  0.25480326220E+02  0.47000000000E+01 0. -1.
         -5    1    1    2    0  502 -0.66434219606E+01  0.13890366743E+01 -0.22556378033E+02  0.24019672525E+02  0.47000000000E+01 0.  1.
<mgrwt>
<rscale>  2 0.82555726E+01</rscale>
<asrwt>0</asrwt>
<pdfrwt beam="1">  1       21 0.21828916E-03 0.82555726E+01</pdfrwt>
<pdfrwt beam="2">  1       21 0.73970962E-02 0.82555726E+01</pdfrwt>
<totfact> 0.18046256E+09</totfact>
</mgrwt>
</event>
<event>
 4    1  0.4144004E+006  0.5674368E+01  0.7546771E-02  0.2459835E+00
         21   -1    0    0  503  502  0.00000000000E+00  0.00000000000E+00  0.54905858162E+00  0.54905858162E+00  0.00000000000E+00 0. -1.
         21   -1    0    0  501  503 -0.00000000000E+00 -0.00000000000E+00 -0.96603841209E+02  0.96603841209E+02  0.00000000000E+00 0.  1.
          5    1    1    2  501    0  0.31105907376E+01 -0.65777979576E+00 -0.78478030946E+02  0.78682906595E+02  0.47000000000E+01 0.  1.
         -5    1    1    2    0  502 -0.31105907376E+01  0.65777979576E+00 -0.17576751682E+02  0.18469993196E+02  0.47000000000E+01 0. -1.
<mgrwt>
<rscale>  2 0.56743677E+01</rscale>
<asrwt>0</asrwt>
<pdfrwt beam="1">  1       21 0.84470612E-04 0.56743677E+01</pdfrwt>
<pdfrwt beam="2">  1       21 0.14862119E-01 0.56743677E+01</pdfrwt>
<totfact> 0.16727850E+09</totfact>
</mgrwt>
</event>
<event>
 4    1  0.4144004E+006  0.4917401E+01  0.7546771E-02  0.2582019E+00
         21   -1    0    0  503  502  0.00000000000E+00  0.00000000000E+00  0.80719548581E+00  0.80719548581E+00  0.00000000000E+00 0.  1.
         21   -1    0    0  501  503 -0.00000000000E+00 -0.00000000000E+00 -0.54128498692E+02  0.54128498692E+02  0.00000000000E+00 0.  1.
          5    1    1    2  501    0 -0.88917201279E+00  0.11402638011E+01 -0.83051162245E+01  0.96517244007E+01  0.47000000000E+01 0.  1.
         -5    1    1    2    0  502  0.88917201279E+00 -0.11402638011E+01 -0.45016186982E+02  0.45283969777E+02  0.47000000000E+01 0.  1.
<mgrwt>
<rscale>  2 0.49174006E+01</rscale>
<asrwt>0</asrwt>
<pdfrwt beam="1">  1       21 0.12418390E-03 0.49174006E+01</pdfrwt>
<pdfrwt beam="2">  1       21 0.83274627E-02 0.49174006E+01</pdfrwt>
<totfact> 0.21282516E+09</totfact>
</mgrwt>
</event>
<event>
 4    1  0.4144004E+006  0.6037460E+01  0.7546771E-02  0.2410573E+00
         21   -1    0    0  503  502  0.00000000000E+00  0.00000000000E+00  0.12192503961E+01  0.12192503961E+01  0.00000000000E+00 0.  1.
         21   -1    0    0  501  503 -0.00000000000E+00 -0.00000000000E+00 -0.85207587351E+02  0.85207587351E+02  0.00000000000E+00 0.  1.
          5    1    1    2  501    0  0.37721038114E+01  0.36353158439E+00 -0.76810809510E+02  0.77047721445E+02  0.47000000000E+01 0.  1.
         -5    1    1    2    0  502 -0.37721038114E+01 -0.36353158439E+00 -0.71775274453E+01  0.93791163019E+01  0.47000000000E+01 0.  1.
<mgrwt>
<rscale>  2 0.60374599E+01</rscale>
<asrwt>0</asrwt>
<pdfrwt beam="1">  1       21 0.18757698E-03 0.60374599E+01</pdfrwt>
<pdfrwt beam="2">  1       21 0.13108860E-01 0.60374599E+01</pdfrwt>
<totfact> 0.73054185E+08</totfact>
</mgrwt>
</event>
<event>
 4    1  0.4144004E+006  0.6082088E+01  0.7546771E-02  0.2404861E+00
         21   -1    0    0  501  502  0.00000000000E+00  0.00000000000E+00  0.43973760533E+01  0.43973760533E+01  0.00000000000E+00 0. -1.
         21   -1    0    0  502  503 -0.00000000000E+00 -0.00000000000E+00 -0.84174421726E+01  0.84174421726E+01  0.00000000000E+00 0.  1.
          5    1    1    2  501    0  0.31636894058E+01 -0.22119810153E+01 -0.18507720746E+01  0.63574482256E+01  0.47000000000E+01 0. -1.
         -5    1    1    2    0  503 -0.31636894058E+01  0.22119810153E+01 -0.21692940447E+01  0.64573700003E+01  0.47000000000E+01 0. -1.
<mgrwt>
<rscale>  2 0.60820877E+01</rscale>
<asrwt>0</asrwt>
<pdfrwt beam="1">  1       21 0.67651939E-03 0.60820877E+01</pdfrwt>
<pdfrwt beam="2">  1       21 0.12949911E-02 0.60820877E+01</pdfrwt>
<totfact> 0.38370265E+09</totfact>
</mgrwt>
</event>
<event>
 4    1  0.4144004E+006  0.4738849E+01  0.7546771E-02  0.2615677E+00
         21   -1    0    0  503  502  0.00000000000E+00  0.00000000000E+00  0.10283573828E+01  0.10283573828E+01  0.00000000000E+00 0. -1.
         21   -1    0    0  501  503 -0.00000000000E+00 -0.00000000000E+00 -0.40077644543E+02  0.40077644543E+02  0.00000000000E+00 0. -1.
          5    1    1    2  501    0 -0.60545854651E+00  0.10360937113E-01 -0.33390256142E+02  0.33724855709E+02  0.47000000000E+01 0.  1.
         -5    1    1    2    0  502  0.60545854651E+00 -0.10360937113E-01 -0.56590310179E+01  0.73811462160E+01  0.47000000000E+01 0.  1.
<mgrwt>
<rscale>  2 0.47388487E+01</rscale>
<asrwt>0</asrwt>
<pdfrwt beam="1">  1       21 0.15820884E-03 0.47388487E+01</pdfrwt>
<pdfrwt beam="2">  1       21 0.61657909E-02 0.47388487E+01</pdfrwt>
<totfact> 0.23178102E+09</totfact>
</mgrwt>
</event>
<event>
 4    1  0.4144004E+006  0.5022135E+01  0.7546771E-02  0.2563242E+00
         21   -1    0    0  503  502  0.00000000000E+00  0.00000000000E+00  0.29758760441E+01  0.29758760441E+01  0.00000000000E+00 0. -1.
         21   -1    0    0  501  503 -0.00000000000E+00 -0.00000000000E+00 -0.23575416869E+03  0.23575416869E+03  0.00000000000E+00 0. -1.
          5    1    1    2  501    0  0.17407394976E+01 -0.31885567301E+00 -0.23358892571E+03  0.23364290714E+03  0.47000000000E+01 0. -1.
         -5    1    1    2    0  502 -0.17407394976E+01  0.31885567301E+00  0.81063306311E+00  0.50871375942E+01  0.47000000000E+01 0. -1.
<mgrwt>
<rscale>  2 0.50221353E+01</rscale>
<asrwt>0</asrwt>
<pdfrwt beam="1">  1       21 0.45782695E-03 0.50221353E+01</pdfrwt>
<pdfrwt beam="2">  1       21 0.36269882E-01 0.50221353E+01</pdfrwt>
<totfact> 0.36376634E+07</totfact>
</mgrwt>
</event>
<event>
 4    1  0.4144004E+006  0.5012375E+01  0.7546771E-02  0.2564963E+00
         21   -1    0    0  503  502  0.00000000000E+00  0.00000000000E+00  0.23818728190E+01  0.23818728190E+01  0.00000000000E+00 0. -1.
         21   -1    0    0  501  503 -0.00000000000E+00 -0.00000000000E+00 -0.18029791520E+02  0.18029791520E+02  0.00000000000E+00 0. -1.
          5    1    1    2  501    0  0.22901959023E+00  0.17266898065E+01 -0.14398371539E+02  0.15245885039E+02  0.47000000000E+01 0. -1.
         -5    1    1    2    0  502 -0.22901959023E+00 -0.17266898065E+01 -0.12495471620E+01  0.51657792994E+01  0.47000000000E+01 0. -1.
<mgrwt>
<rscale>  2 0.50123755E+01</rscale>
<asrwt>0</asrwt>
<pdfrwt beam="1">  1       21 0.36644196E-03 0.50123755E+01</pdfrwt>
<pdfrwt beam="2">  1       21 0.27738141E-02 0.50123755E+01</pdfrwt>
<totfact> 0.25145542E+09</totfact>
</mgrwt>
</event>
<event>
 4    1  0.4144004E+006  0.6241781E+01  0.7546771E-02  0.2384979E+00
         21   -1    0    0  501  502  0.00000000000E+00  0.00000000000E+00  0.15213109318E+01  0.15213109318E+01  0.00000000000E+00 0.  1.
         21   -1    0    0  502  503 -0.00000000000E+00 -0.00000000000E+00 -0.25821678774E+02  0.25821678774E+02  0.00000000000E+00 0. -1.
          5    1    1    2  501    0  0.13178219434E+01  0.38901374353E+01 -0.10910527268E+02  0.12569782385E+02  0.47000000000E+01 0. -1.
         -5    1    1    2    0  503 -0.13178219434E+01 -0.38901374353E+01 -0.13389840574E+02  0.14773207321E+02  0.47000000000E+01 0.  1.
<mgrwt>
<rscale>  2 0.62417805E+01</rscale>
<asrwt>0</asrwt>
<pdfrwt beam="1">  1       21 0.23404784E-03 0.62417805E+01</pdfrwt>
<pdfrwt beam="2">  1       21 0.39725659E-02 0.62417805E+01</pdfrwt>
<totfact> 0.33779411E+09</totfact>
</mgrwt>
</event>
<event>
 4    1  0.4144004E+006  0.5635303E+01  0.7546771E-02  0.2465453E+00
         21   -1    0    0  501  502  0.00000000000E+00  0.00000000000E+00  0.15748501985E+00  0.15748501985E+00  0.00000000000E+00 0. -1.
         21   -1    0    0  502  503 -0.00000000000E+00 -0.00000000000E+00 -0.21298181084E+03  0.21298181084E+03  0.00000000000E+00 0.  1.
          5    1    1    2  501    0  0.12638804163E+01  0.28406420792E+01 -0.13099533168E+03  0.13111648852E+03  0.47000000000E+01 0.  1.
         -5    1    1    2    0  503 -0.12638804163E+01 -0.28406420792E+01 -0.81828994140E+02  0.82022807334E+02  0.47000000000E+01 0. -1.
<mgrwt>
<rscale>  2 0.56353031E+01</rscale>
<asrwt>0</asrwt>
<pdfrwt beam="1">  1       21 0.24228515E-04 0.56353031E+01</pdfrwt>
<pdfrwt beam="2">  1       21 0.32766364E-01 0.56353031E+01</pdfrwt>
<totfact> 0.24315118E+09</totfact>
</mgrwt>
</event>
<event>
 4    1  0.4144004E+006  0.4813289E+01  0.7546771E-02  0.2601382E+00
         21   -1    0    0  503  502  0.00000000000E+00  0.00000000000E+00  0.21598830161E+02  0.21598830161E+02  0.00000000000E+00 0.  1.
         21   -1    0    0  501  503 -0.00000000000E+00 -0.00000000000E+00 -0.14662202846E+01  0.14662202846E+01  0.00000000000E+00 0.  1.
          5    1    1    2  501    0 -0.10381204222E+01 -0.73960968840E-02  0.40912487731E+01  0.63171247603E+01  0.47000000000E+01 0.  1.
         -5    1    1    2    0  502  0.10381204222E+01  0.73960968840E-02  0.16041361103E+02  0.16747925685E+02  0.47000000000E+01 0.  1.
<mgrwt>
<rscale>  2 0.48132888E+01</rscale>
<asrwt>0</asrwt>
<pdfrwt beam="1">  1       21 0.33228967E-02 0.48132888E+01</pdfrwt>
<pdfrwt beam="2">  1       21 0.22557237E-03 0.48132888E+01</pdfrwt>
<totfact> 0.35921784E+09</totfact>
</mgrwt>
</event>
<event>
 4    1  0.4144004E+006  0.5502054E+01  0.7546771E-02  0.2485119E+00
         21   -1    0    0  501  502  0.00000000000E+00  0.00000000000E+00  0.66399207612E+01  0.66399207612E+01  0.00000000000E+00 0.  1.
         21   -1    0    0  502  503 -0.00000000000E+00 -0.00000000000E+00 -0.60139630912E+01  0.60139630912E+01  0.00000000000E+00 0.  1.
          5    1    1    2  501    0  0.94653200002E+00  0.26993846761E+01  0.34247843396E+01  0.64808755758E+01  0.47000000000E+01 0.  1.
         -5    1    1    2    0  503 -0.94653200002E+00 -0.26993846761E+01 -0.27988266696E+01  0.61730082766E+01  0.47000000000E+01 0.  1.
<mgrwt>
<rscale>  2 0.55020542E+01</rscale>
<asrwt>0</asrwt>
<pdfrwt beam="1">  1       21 0.10215263E-02 0.55020542E+01</pdfrwt>
<pdfrwt beam="2">  1       21 0.92522508E-03 0.55020542E+01</pdfrwt>
<totfact> 0.31566608E+09</totfact>
</mgrwt>
</event>
<event>
 4    1  0.4144004E+006  0.6974060E+01  0.7546771E-02  0.2303617E+00
         21   -1    0    0  503  502  0.00000000000E+00  0.00000000000E+00  0.18045844677E+03  0.18045844677E+03  0.00000000000E+00 0.  1.
         21   -1    0    0  501  503 -0.00000000000E+00 -0.00000000000E+00 -0.74297826042E+00  0.74297826042E+00  0.00000000000E+00 0.  1.
          5    1    1    2  501    0 -0.52793967674E+00 -0.51253087603E+01  0.17533553924E+02  0.18869632307E+02  0.47000000000E+01 0.  1.
         -5    1    1    2    0  502  0.52793967674E+00  0.51253087603E+01  0.16218191459E+03  0.16233179273E+03  0.47000000000E+01 0.  1.
<mgrwt>
<rscale>  2 0.69740598E+01</rscale>
<asrwt>0</asrwt>
<pdfrwt beam="1">  1       21 0.27762803E-01 0.69740598E+01</pdfrwt>
<pdfrwt beam="2">  1       21 0.11430449E-03 0.69740598E+01</pdfrwt>
<totfact> 0.46976355E+08</totfact>
</mgrwt>
</event>
<event>
 4    1  0.4144004E+006  0.6518347E+01  0.7546771E-02  0.2352476E+00
         21   -1    0    0  503  502  0.00000000000E+00  0.00000000000E+00  0.17911754880E+02  0.17911754880E+02  0.00000000000E+00 0.  1.
         21   -1    0    0  501  503 -0.00000000000E+00 -0.00000000000E+00 -0.38984750964E+01  0.38984750964E+01  0.00000000000E+00 0.  1.
          5    1    1    2  501    0  0.41002044967E+01  0.18939818406E+01  0.18308701511E+00  0.65209174954E+01  0.47000000000E+01 0.  1.
         -5    1    1    2    0  502 -0.41002044967E+01 -0.18939818406E+01  0.13830192769E+02  0.15289312481E+02  0.47000000000E+01 0.  1.
<mgrwt>
<rscale>  2 0.65183467E+01</rscale>
<asrwt>0</asrwt>
<pdfrwt beam="1">  1       21 0.27556546E-02 0.65183467E+01</pdfrwt>
<pdfrwt beam="2">  1       21 0.59976541E-03 0.65183467E+01</pdfrwt>
<totfact> 0.16260165E+09</totfact>
</mgrwt>
</event>
<event>
 4    1  0.4144004E+006  0.1132140E+02  0.7546771E-02  0.2006765E+00
         21   -1    0    0  501  502  0.00000000000E+00  0.00000000000E+00  0.34166228055E+02  0.34166228055E+02  0.00000000000E+00 0. -1.
         21   -1    0    0  502  503 -0.00000000000E+00 -0.00000000000E+00 -0.69465191511E+01  0.69465191511E+01  0.00000000000E+00 0.  1.
          5    1    1    2  501    0 -0.76881219728E+01  0.68539600851E+01  0.27551076426E+02  0.29786503665E+02  0.47000000000E+01 0. -1.
         -5    1    1    2    0  503  0.76881219728E+01 -0.68539600851E+01 -0.33136752274E+00  0.11326243541E+02  0.47000000000E+01 0.  1.
<mgrwt>
<rscale>  2 0.11321395E+02</rscale>
<asrwt>0</asrwt>
<pdfrwt beam="1">  1       21 0.52563427E-02 0.11321395E+02</pdfrwt>
<pdfrwt beam="2">  1       21 0.10686953E-02 0.11321395E+02</pdfrwt>
<totfact> 0.38287777E+08</totfact>
</mgrwt>
</event>
<event>
 4    1  0.4144004E+006  0.4884835E+01  0.7546771E-02  0.2587998E+00
         21   -1    0    0  503  502  0.00000000000E+00  0.00000000000E+00  0.87354419308E+02  0.87354419308E+02  0.00000000000E+00 0.  1.
         21   -1    0    0  501  503 -0.00000000000E+00 -0.00000000000E+00 -0.39369196564E+00  0.39369196564E+00  0.00000000000E+00 0.  1.
          5    1    1    2  501    0 -0.67960739918E+00 -0.11444432245E+01  0.19204033733E+02  0.19815562776E+02  0.47000000000E+01 0.  1.
         -5    1    1    2    0  502  0.67960739918E+00  0.11444432245E+01  0.67756693610E+02  0.67932548498E+02  0.47000000000E+01 0.  1.
<mgrwt>
<rscale>  2 0.48848354E+01</rscale>
<asrwt>0</asrwt>
<pdfrwt beam="1">  1       21 0.13439126E-01 0.48848354E+01</pdfrwt>
<pdfrwt beam="2">  1       21 0.60568064E-04 0.48848354E+01</pdfrwt>
<totfact> 0.26522395E+09</totfact>
</mgrwt>
</event>
<event>
 4    1  0.4144004E+006  0.6881296E+01  0.7546771E-02  0.2313130E+00
         21   -1    0    0  503  502  0.00000000000E+00  0.00000000000E+00  0.94959748628E-01  0.94959748628E-01  0.00000000000E+00 0.  1.
         21   -1    0    0  501  503 -0.00000000000E+00 -0.00000000000E+00 -0.51485782326E+03  0.51485782326E+03  0.00000000000E+00 0. -1.
          5    1    1    2  501    0  0.46334121311E+01  0.19477475608E+01 -0.30305642651E+03  0.30313454088E+03  0.47000000000E+01 0. -1.
         -5    1    1    2    0  502 -0.46334121311E+01 -0.19477475608E+01 -0.21170643701E+03  0.21181824213E+03  0.47000000000E+01 0. -1.
<mgrwt>
<rscale>  2 0.68812956E+01</rscale>
<asrwt>0</asrwt>
<pdfrwt beam="1">  1       21 0.14609124E-04 0.68812956E+01</pdfrwt>
<pdfrwt beam="2">  1       21 0.79209265E-01 0.68812956E+01</pdfrwt>
<totfact> 0.11125931E+09</totfact>
</mgrwt>
</event>
<event>
 4    1  0.4144004E+006  0.6288865E+01  0.7546771E-02  0.2379278E+00
         21   -1    0    0  501  502  0.00000000000E+00  0.00000000000E+00  0.43255155284E+01  0.43255155284E+01  0.00000000000E+00 0. -1.
         21   -1    0    0  502  503 -0.00000000000E+00 -0.00000000000E+00 -0.10162971855E+02  0.10162971855E+02  0.00000000000E+00 0. -1.
          5    1    1    2  501    0  0.27773074771E+01 -0.31219206893E+01 -0.62418521252E+00  0.63197652482E+01  0.47000000000E+01 0. -1.
         -5    1    1    2    0  503 -0.27773074771E+01  0.31219206893E+01 -0.52132711142E+01  0.81687221353E+01  0.47000000000E+01 0. -1.
<mgrwt>
<rscale>  2 0.62888652E+01</rscale>
<asrwt>0</asrwt>
<pdfrwt beam="1">  1       21 0.66546393E-03 0.62888652E+01</pdfrwt>
<pdfrwt beam="2">  1       21 0.15635341E-02 0.62888652E+01</pdfrwt>
<totfact> 0.30913383E+09</totfact>
</mgrwt>
</event>
<event>
 4    1  0.4144004E+006  0.5795994E+01  0.7546771E-02  0.2442756E+00
         21   -1    0    0  503  502  0.00000000000E+00  0.00000000000E+00  0.17980630405E+03  0.17980630405E+03  0.00000000000E+00 0.  1.
         21   -1    0    0  501  503 -0.00000000000E+00 -0.00000000000E+00 -0.21788291766E+00  0.21788291766E+00  0.00000000000E+00 0.  1.
          5    1    1    2  501    0 -0.25689910602E+01 -0.22144603806E+01  0.55813901120E+02  0.56114036640E+02  0.47000000000E+01 0.  1.
         -5    1    1    2    0  502  0.25689910602E+01  0.22144603806E+01  0.12377452001E+03  0.12391015033E+03  0.47000000000E+01 0.  1.
<mgrwt>
<rscale>  2 0.57959943E+01</rscale>
<asrwt>0</asrwt>
<pdfrwt beam="1">  1       21 0.27662390E-01 0.57959943E+01</pdfrwt>
<pdfrwt beam="2">  1       21 0.33520593E-04 0.57959943E+01</pdfrwt>
<totfact> 0.21455020E+09</totfact>
</mgrwt>
</event>
<event>
 4    1  0.4144004E+006  0.6208048E+01  0.7546771E-02  0.2389108E+00
         21   -1    0    0  501  502  0.00000000000E+00  0.00000000000E+00  0.19796021001E+02  0.19796021001E+02  0.00000000000E+00 0. -1.
         21   -1    0    0  502  503 -0.00000000000E+00 -0.00000000000E+00 -0.25034859007E+01  0.25034859007E+01  0.00000000000E+00 0. -1.
          5    1    1    2  501    0 -0.39732412768E+01  0.81437905689E+00  0.13903761342E+02  0.15226767187E+02  0.47000000000E+01 0. -1.
         -5    1    1    2    0  503  0.39732412768E+01 -0.81437905689E+00  0.33887737577E+01  0.70727397148E+01  0.47000000000E+01 0. -1.
<mgrwt>
<rscale>  2 0.62080480E+01</rscale>
<asrwt>0</asrwt>
<pdfrwt beam="1">  1       21 0.30455416E-02 0.62080480E+01</pdfrwt>
<pdfrwt beam="2">  1       21 0.38515169E-03 0.62080480E+01</pdfrwt>
<totfact> 0.25002015E+09</totfact>
</mgrwt>
</event>
<event>
 4    1  0.4144004E+006  0.7210683E+01  0.7546771E-02  0.2280264E+00
         21   -1    0    0  503  502  0.00000000000E+00  0.00000000000E+00  0.24366914917E+02  0.24366914917E+02  0.00000000000E+00 0. -1.
         21   -1    0    0  501  503 -0.00000000000E+00 -0.00000000000E+00 -0.17660070078E+02  0.17660070078E+02  0.00000000000E+00 0.  1.
          5    1    1    2  501    0 -0.52511331431E+01  0.15262882042E+01 -0.16349728897E+02  0.17869179891E+02  0.47000000000E+01 0.  1.
         -5    1    1    2    0  502  0.52511331431E+01 -0.15262882042E+01  0.23056573737E+02  0.24157805104E+02  0.47000000000E+01 0. -1.
<mgrwt>
<rscale>  2 0.72106834E+01</rscale>
<asrwt>0</asrwt>
<pdfrwt beam="1">  1       21 0.37487562E-02 0.72106834E+01</pdfrwt>
<pdfrwt beam="2">  1       21 0.27169338E-02 0.72106834E+01</pdfrwt>
<totfact> 0.12743001E+08</totfact>
</mgrwt>
</event>
<event>
 4    1  0.4144004E+006  0.4811231E+01  0.7546771E-02  0.2601772E+00
         21   -1    0    0  503  502  0.00000000000E+00  0.00000000000E+00  0.18803348390E+01  0.18803348390E+01  0.00000000000E+00 0. -1.
         21   -1    0    0  501  503 -0.00000000000E+00 -0.00000000000E+00 -0.15905452397E+02  0.15905452397E+02  0.00000000000E+00 0. -1.
          5    1    1    2  501    0  0.91907086400E+00  0.46178942320E+00 -0.11240355798E+02  0.12226755055E+02  0.47000000000E+01 0. -1.
         -5    1    1    2    0  502 -0.91907086400E+00 -0.46178942320E+00 -0.27847617604E+01  0.55590321807E+01  0.47000000000E+01 0. -1.
<mgrwt>
<rscale>  2 0.48112307E+01</rscale>
<asrwt>0</asrwt>
<pdfrwt beam="1">  1       21 0.28928228E-03 0.48112307E+01</pdfrwt>
<pdfrwt beam="2">  1       21 0.24469927E-02 0.48112307E+01</pdfrwt>
<totfact> 0.39736751E+09</totfact>
</mgrwt>
</event>
<event>
 4    1  0.4144004E+006  0.5233542E+01  0.7546771E-02  0.2527320E+00
         21   -1    0    0  501  502  0.00000000000E+00  0.00000000000E+00  0.27784614210E+00  0.27784614210E+00  0.00000000000E+00 0. -1.
         21   -1    0    0  502  503 -0.00000000000E+00 -0.00000000000E+00 -0.11086985720E+03  0.11086985720E+03  0.00000000000E+00 0. -1.
          5    1    1    2  501    0 -0.22760302323E+01 -0.34590735571E+00 -0.36792927215E+02  0.37163281052E+02  0.47000000000E+01 0. -1.
         -5    1    1    2    0  503  0.22760302323E+01  0.34590735571E+00 -0.73799083839E+02  0.73984422286E+02  0.47000000000E+01 0. -1.
<mgrwt>
<rscale>  2 0.52335423E+01</rscale>
<asrwt>0</asrwt>
<pdfrwt beam="1">  1       21 0.42745569E-04 0.52335423E+01</pdfrwt>
<pdfrwt beam="2">  1       21 0.17056898E-01 0.52335423E+01</pdfrwt>
<totfact> 0.31041846E+09</totfact>
</mgrwt>
</event>
<event>
 4    1  0.4144004E+006  0.4762606E+01  0.7546771E-02  0.2611073E+00
         21   -1    0    0  501  502  0.00000000000E+00  0.00000000000E+00  0.22928700209E+03  0.22928700209E+03  0.00000000000E+00 0.  1.
         21   -1    0    0  502  503 -0.00000000000E+00 -0.00000000000E+00 -0.49370546734E+00  0.49370546734E+00  0.00000000000E+00 0.  1.
          5    1    1    2  501    0 -0.45045869046E+00 -0.62410200901E+00  0.21713366440E+03  0.21718588958E+03  0.47000000000E+01 0.  1.
         -5    1    1    2    0  503  0.45045869046E+00  0.62410200901E+00  0.11659632225E+02  0.12594817981E+02  0.47000000000E+01 0.  1.
<mgrwt>
<rscale>  2 0.47626060E+01</rscale>
<asrwt>0</asrwt>
<pdfrwt beam="1">  1       21 0.35274838E-01 0.47626060E+01</pdfrwt>
<pdfrwt beam="2">  1       21 0.75954870E-04 0.47626060E+01</pdfrwt>
<totfact> 0.40893091E+08</totfact>
</mgrwt>
</event>
<event>
 4    1  0.4144004E+006  0.8573248E+01  0.7546771E-02  0.2166618E+00
         21   -1    0    0  501  502  0.00000000000E+00  0.00000000000E+00  0.22583746996E+02  0.22583746996E+02  0.00000000000E+00 0.  1.
         21   -1    0    0  502  503 -0.00000000000E+00 -0.00000000000E+00 -0.35605525859E+01  0.35605525859E+01  0.00000000000E+00 0. -1.
          5    1    1    2  501    0 -0.42419711197E+01 -0.57806800368E+01  0.13343641624E+02  0.15860433552E+02  0.47000000000E+01 0.  1.
         -5    1    1    2    0  503  0.42419711197E+01  0.57806800368E+01  0.56795527857E+01  0.10283866030E+02  0.47000000000E+01 0.  1.
<mgrwt>
<rscale>  2 0.85732480E+01</rscale>
<asrwt>0</asrwt>
<pdfrwt beam="1">  1       21 0.34744225E-02 0.85732480E+01</pdfrwt>
<pdfrwt beam="2">  1       21 0.54777733E-03 0.85732480E+01</pdfrwt>
<totfact> 0.16015127E+09</totfact>
</mgrwt>
</event>
<event>
 4    1  0.4144004E+006  0.5549668E+01  0.7546771E-02  0.2478000E+00
         21   -1    0    0  501  502  0.00000000000E+00  0.00000000000E+00  0.16131322150E-01  0.16131322150E-01  0.00000000000E+00 0. -1.
         21   -1    0    0  502  503 -0.00000000000E+00 -0.00000000000E+00 -0.26902110305E+04  0.26902110305E+04  0.00000000000E+00 0. -1.
          5    1    1    2  501    0 -0.17826623959E+01 -0.23517924325E+01 -0.62036287329E+03  0.62038769602E+03  0.47000000000E+01 0. -1.
         -5    1    1    2    0  503  0.17826623959E+01  0.23517924325E+01 -0.20698320258E+04  0.20698394658E+04  0.47000000000E+01 0. -1.
<mgrwt>
<rscale>  2 0.55496678E+01</rscale>
<asrwt>0</asrwt>
<pdfrwt beam="1">  1       21 0.24808218E-05 0.55496678E+01</pdfrwt>
<pdfrwt beam="2">  1       21 0.41403212E+00 0.55496678E+01</pdfrwt>
<totfact> 0.20328540E+08</totfact>
</mgrwt>
</event>
<event>
 4    1  0.4144004E+006  0.6000574E+01  0.7546771E-02  0.2415349E+00
         21   -1    0    0  503  502  0.00000000000E+00  0.00000000000E+00  0.16242911302E+04  0.16242911302E+04  0.00000000000E+00 0. -1.
         21   -1    0    0  501  503 -0.00000000000E+00 -0.00000000000E+00 -0.24150567807E-01  0.24150567807E-01  0.00000000000E+00 0. -1.
          5    1    1    2  501    0  0.12881787678E+01 -0.35010692036E+01  0.57942224725E+03  0.57945331779E+03  0.47000000000E+01 0. -1.
         -5    1    1    2    0  502 -0.12881787678E+01  0.35010692036E+01  0.10448447324E+04  0.10448619630E+04  0.47000000000E+01 0. -1.
<mgrwt>
<rscale>  2 0.60005741E+01</rscale>
<asrwt>0</asrwt>
<pdfrwt beam="1">  1       21 0.24980348E+00 0.60005741E+01</pdfrwt>
<pdfrwt beam="2">  1       21 0.37167729E-05 0.60005741E+01</pdfrwt>
<totfact> 0.55128697E+08</totfact>
</mgrwt>
</event>
<event>
 4    1  0.4144004E+006  0.1097906E+02  0.7546771E-02  0.2023206E+00
         21   -1    0    0  501  502  0.00000000000E+00  0.00000000000E+00  0.17798498633E+03  0.17798498633E+03  0.00000000000E+00 0. -1.
         21   -1    0    0  502  503 -0.00000000000E+00 -0.00000000000E+00 -0.94491006212E+00  0.94491006212E+00  0.00000000000E+00 0.  1.
          5    1    1    2  501    0 -0.59486516769E+01 -0.79412464137E+01  0.13613590068E+03  0.13657790197E+03  0.47000000000E+01 0. -1.
         -5    1    1    2    0  503  0.59486516769E+01  0.79412464137E+01  0.40904175587E+02  0.42351994426E+02  0.47000000000E+01 0.  1.
<mgrwt>
<rscale>  2 0.10979064E+02</rscale>
<asrwt>0</asrwt>
<pdfrwt beam="1">  1       21 0.27382279E-01 0.10979064E+02</pdfrwt>
<pdfrwt beam="2">  1       21 0.14537092E-03 0.10979064E+02</pdfrwt>
<totfact> 0.44486630E+08</totfact>
</mgrwt>
</event>
<event>
 4    1  0.4144004E+006  0.5835062E+01  0.7546771E-02  0.2437398E+00
         21   -1    0    0  501  502  0.00000000000E+00  0.00000000000E+00  0.17514099068E+02  0.17514099068E+02  0.00000000000E+00 0.  1.
         21   -1    0    0  502  503 -0.00000000000E+00 -0.00000000000E+00 -0.19516032800E+01  0.19516032800E+01  0.00000000000E+00 0. -1.
          5    1    1    2  501    0 -0.45442094503E+00 -0.34280391433E+01  0.83875078633E+01  0.10217545641E+02  0.47000000000E+01 0.  1.
         -5    1    1    2    0  503  0.45442094503E+00  0.34280391433E+01  0.71749879244E+01  0.92481567071E+01  0.47000000000E+01 0. -1.
<mgrwt>
<rscale>  2 0.58350622E+01</rscale>
<asrwt>0</asrwt>
<pdfrwt beam="1">  1       21 0.26944767E-02 0.58350622E+01</pdfrwt>
<pdfrwt beam="2">  1       21 0.30024667E-03 0.58350622E+01</pdfrwt>
<totfact> 0.39848265E+09</totfact>
</mgrwt>
</event>
<event>
 4    1  0.4144004E+006  0.5150365E+01  0.7546771E-02  0.2541151E+00
         21   -1    0    0  503  502  0.00000000000E+00  0.00000000000E+00  0.35828871588E+03  0.35828871588E+03  0.00000000000E+00 0.  1.
         21   -1    0    0  501  503 -0.00000000000E+00 -0.00000000000E+00 -0.73542854341E+00  0.73542854341E+00  0.00000000000E+00 0.  1.
          5    1    1    2  501    0  0.20838232346E+01  0.30649986264E+00  0.85399921313E+01  0.99728494946E+01  0.47000000000E+01 0.  1.
         -5    1    1    2    0  502 -0.20838232346E+01 -0.30649986264E+00  0.34901329520E+03  0.34905129493E+03  0.47000000000E+01 0.  1.
<mgrwt>
<rscale>  2 0.51503652E+01</rscale>
<asrwt>0</asrwt>
<pdfrwt beam="1">  1       21 0.55121201E-01 0.51503652E+01</pdfrwt>
<pdfrwt beam="2">  1       21 0.11314314E-03 0.51503652E+01</pdfrwt>
<totfact> 0.11764992E+08</totfact>
</mgrwt>
</event>
<event>
 4    1  0.4144004E+006  0.4761894E+01  0.7546771E-02  0.2611210E+00
         21   -1    0    0  501  502  0.00000000000E+00  0.00000000000E+00  0.11415478217E+03  0.11415478217E+03  0.00000000000E+00 0.  1.
         21   -1    0    0  502  503 -0.00000000000E+00 -0.00000000000E+00 -0.20352634025E+00  0.20352634025E+00  0.00000000000E+00 0.  1.
          5    1    1    2  501    0  0.53586980980E+00 -0.54633473290E+00  0.65835871776E+02  0.66007860521E+02  0.47000000000E+01 0.  1.
         -5    1    1    2    0  503 -0.53586980980E+00  0.54633473290E+00  0.48115384055E+02  0.48350447990E+02  0.47000000000E+01 0.  1.
<mgrwt>
<rscale>  2 0.47618944E+01</rscale>
<asrwt>0</asrwt>
<pdfrwt beam="1">  1       21 0.17562223E-01 0.47618944E+01</pdfrwt>
<pdfrwt beam="2">  1       21 0.31311836E-04 0.47618944E+01</pdfrwt>
<totfact> 0.40829541E+09</totfact>
</mgrwt>
</event>
<event>
 4    1  0.4144004E+006  0.5331677E+01  0.7546771E-02  0.2511477E+00
         21   -1    0    0  503  502  0.00000000000E+00  0.00000000000E+00  0.45958481250E+01  0.45958481250E+01  0.00000000000E+00 0. -1.
         21   -1    0    0  501  503 -0.00000000000E+00 -0.00000000000E+00 -0.64599898048E+01  0.64599898048E+01  0.00000000000E+00 0. -1.
          5    1    1    2  501    0  0.22984328554E+01  0.10266383088E+01  0.20779356577E+00  0.53357246906E+01  0.47000000000E+01 0. -1.
         -5    1    1    2    0  502 -0.22984328554E+01 -0.10266383088E+01 -0.20719352455E+01  0.57201132392E+01  0.47000000000E+01 0. -1.
<mgrwt>
<rscale>  2 0.53316770E+01</rscale>
<asrwt>0</asrwt>
<pdfrwt beam="1">  1       21 0.70705356E-03 0.53316770E+01</pdfrwt>
<pdfrwt beam="2">  1       21 0.99384458E-03 0.53316770E+01</pdfrwt>
<totfact> 0.46291028E+09</totfact>
</mgrwt>
</event>
<event>
 4    1  0.4144004E+006  0.4990744E+01  0.7546771E-02  0.2568798E+00
         21   -1    0    0  503  502  0.00000000000E+00  0.00000000000E+00  0.39449104211E+02  0.39449104211E+02  0.00000000000E+00 0. -1.
         21   -1    0    0  501  503 -0.00000000000E+00 -0.00000000000E+00 -0.27999283838E+01  0.27999283838E+01  0.00000000000E+00 0. -1.
          5    1    1    2  501    0 -0.10689441850E+01  0.12941713147E+01 -0.26618732562E+00  0.49978372077E+01  0.47000000000E+01 0. -1.
         -5    1    1    2    0  502  0.10689441850E+01 -0.12941713147E+01  0.36915363153E+02  0.37251195387E+02  0.47000000000E+01 0. -1.
<mgrwt>
<rscale>  2 0.49907435E+01</rscale>
<asrwt>0</asrwt>
<pdfrwt beam="1">  1       21 0.60690925E-02 0.49907435E+01</pdfrwt>
<pdfrwt beam="2">  1       21 0.43075824E-03 0.49907435E+01</pdfrwt>
<totfact> 0.64440356E+08</totfact>
</mgrwt>
</event>
<event>
 4    1  0.4144004E+006  0.5816339E+01  0.7546771E-02  0.2439958E+00
         21   -1    0    0  501  502  0.00000000000E+00  0.00000000000E+00  0.40507771840E+01  0.40507771840E+01  0.00000000000E+00 0.  1.
         21   -1    0    0  502  503 -0.00000000000E+00 -0.00000000000E+00 -0.12735662793E+02  0.12735662793E+02  0.00000000000E+00 0.  1.
          5    1    1    2  501    0 -0.30320203633E+01 -0.15958241074E+01  0.58208268141E+00  0.58453932556E+01  0.47000000000E+01 0.  1.
         -5    1    1    2    0  503  0.30320203633E+01  0.15958241074E+01 -0.92669682908E+01  0.10941046722E+02  0.47000000000E+01 0.  1.
<mgrwt>
<rscale>  2 0.58163392E+01</rscale>
<asrwt>0</asrwt>
<pdfrwt beam="1">  1       21 0.62319648E-03 0.58163392E+01</pdfrwt>
<pdfrwt beam="2">  1       21 0.19593328E-02 0.58163392E+01</pdfrwt>
<totfact> 0.22904013E+09</totfact>
</mgrwt>
</event>
<event>
 4    1  0.4144004E+006  0.6209315E+01  0.7546771E-02  0.2388952E+00
         21   -1    0    0  501  502  0.00000000000E+00  0.00000000000E+00  0.80313543885E+01  0.80313543885E+01  0.00000000000E+00 0.  1.
         21   -1    0    0  502  503 -0.00000000000E+00 -0.00000000000E+00 -0.13446517952E+02  0.13446517952E+02  0.00000000000E+00 0. -1.
          5    1    1    2  501    0 -0.25766485147E+01 -0.31347213907E+01  0.59035658549E+01  0.85678285212E+01  0.47000000000E+01 0.  1.
         -5    1    1    2    0  503  0.25766485147E+01  0.31347213907E+01 -0.11318729418E+02  0.12910043819E+02  0.47000000000E+01 0. -1.
<mgrwt>
<rscale>  2 0.62093152E+01</rscale>
<asrwt>0</asrwt>
<pdfrwt beam="1">  1       21 0.12355930E-02 0.62093152E+01</pdfrwt>
<pdfrwt beam="2">  1       21 0.20686950E-02 0.62093152E+01</pdfrwt>
<totfact> 0.85431975E+08</totfact>
</mgrwt>
</event>
<event>
 4    1  0.4144004E+006  0.5508791E+01  0.7546771E-02  0.2484106E+00
         21   -1    0    0  503  502  0.00000000000E+00  0.00000000000E+00  0.24847737972E+03  0.24847737972E+03  0.00000000000E+00 0. -1.
         21   -1    0    0  501  503 -0.00000000000E+00 -0.00000000000E+00 -0.38990073959E+00  0.38990073959E+00  0.00000000000E+00 0. -1.
          5    1    1    2  501    0 -0.35628076570E+00  0.28512876939E+01  0.20924056659E+02  0.21637072921E+02  0.47000000000E+01 0. -1.
         -5    1    1    2    0  502  0.35628076570E+00 -0.28512876939E+01  0.22716342232E+03  0.22723020754E+03  0.47000000000E+01 0. -1.
<mgrwt>
<rscale>  2 0.55087909E+01</rscale>
<asrwt>0</asrwt>
<pdfrwt beam="1">  1       21 0.38227163E-01 0.55087909E+01</pdfrwt>
<pdfrwt beam="2">  1       21 0.59984928E-04 0.55087909E+01</pdfrwt>
<totfact> 0.54903420E+08</totfact>
</mgrwt>
</event>
<event>
 4    1  0.4144004E+006  0.5046478E+01  0.7546771E-02  0.2558974E+00
         21   -1    0    0  503  502  0.00000000000E+00  0.00000000000E+00  0.13615909619E+00  0.13615909619E+00  0.00000000000E+00 0.  1.
         21   -1    0    0  501  503 -0.00000000000E+00 -0.00000000000E+00 -0.69309238159E+03  0.69309238159E+03  0.00000000000E+00 0. -1.
          5    1    1    2  501    0  0.15824414836E+01 -0.93425055340E+00 -0.64265380045E+03  0.64267361404E+03  0.47000000000E+01 0. -1.
         -5    1    1    2    0  502 -0.15824414836E+01  0.93425055340E+00 -0.50302422049E+02  0.50554926656E+02  0.47000000000E+01 0.  1.
<mgrwt>
<rscale>  2 0.50464785E+01</rscale>
<asrwt>0</asrwt>
<pdfrwt beam="1">  1       21 0.20947614E-04 0.50464785E+01</pdfrwt>
<pdfrwt beam="2">  1       21 0.10662929E+00 0.50464785E+01</pdfrwt>
<totfact> 0.30835197E+08</totfact>
</mgrwt>
</event>
<event>
 4    1  0.4144004E+006  0.4700730E+01  0.7546771E-02  0.2623150E+00
         21   -1    0    0  501  502  0.00000000000E+00  0.00000000000E+00  0.13068233063E+01  0.13068233063E+01  0.00000000000E+00 0. -1.
         21   -1    0    0  502  503 -0.00000000000E+00 -0.00000000000E+00 -0.21837171256E+02  0.21837171256E+02  0.00000000000E+00 0. -1.
          5    1    1    2  501    0  0.16211562663E-01  0.81243733877E-01 -0.47677380769E+01  0.66953857043E+01  0.47000000000E+01 0. -1.
         -5    1    1    2    0  503 -0.16211562663E-01 -0.81243733877E-01 -0.15762609873E+02  0.16448608858E+02  0.47000000000E+01 0. -1.
<mgrwt>
<rscale>  2 0.47007301E+01</rscale>
<asrwt>0</asrwt>
<pdfrwt beam="1">  1       21 0.20104976E-03 0.47007301E+01</pdfrwt>
<pdfrwt beam="2">  1       21 0.33595645E-02 0.47007301E+01</pdfrwt>
<totfact> 0.40238638E+09</totfact>
</mgrwt>
</event>
<event>
 4    1  0.4144004E+006  0.5704784E+01  0.7546771E-02  0.2455507E+00
         21   -1    0    0  503  502  0.00000000000E+00  0.00000000000E+00  0.14623921555E+03  0.14623921555E+03  0.00000000000E+00 0. -1.
         21   -1    0    0  501  503 -0.00000000000E+00 -0.00000000000E+00 -0.26565484966E+00  0.26565484966E+00  0.00000000000E+00 0. -1.
          5    1    1    2  501    0  0.15947452685E+01 -0.28127126011E+01  0.10249613878E+03  0.10265477597E+03  0.47000000000E+01 0. -1.
         -5    1    1    2    0  502 -0.15947452685E+01  0.28127126011E+01  0.43477421920E+02  0.43850094429E+02  0.47000000000E+01 0. -1.
<mgrwt>
<rscale>  2 0.57047844E+01</rscale>
<asrwt>0</asrwt>
<pdfrwt beam="1">  1       21 0.22498277E-01 0.57047844E+01</pdfrwt>
<pdfrwt beam="2">  1       21 0.40870094E-04 0.57047844E+01</pdfrwt>
<totfact> 0.22835971E+09</totfact>
</mgrwt>
</event>
<event>
 4    1  0.4144004E+006  0.6986755E+01  0.7546771E-02  0.2302331E+00
         21   -1    0    0  501  502  0.00000000000E+00  0.00000000000E+00  0.14089120405E+01  0.14089120405E+01  0.00000000000E+00 0. -1.
         21   -1    0    0  502  503 -0.00000000000E+00 -0.00000000000E+00 -0.39046639397E+02  0.39046639397E+02  0.00000000000E+00 0. -1.
          5    1    1    2  501    0 -0.51409697334E+01  0.54330249504E+00 -0.12029034991E+02  0.13910874531E+02  0.47000000000E+01 0. -1.
         -5    1    1    2    0  503  0.51409697334E+01 -0.54330249504E+00 -0.25608692365E+02  0.26544676906E+02  0.47000000000E+01 0. -1.
<mgrwt>
<rscale>  2 0.69867551E+01</rscale>
<asrwt>0</asrwt>
<pdfrwt beam="1">  1       21 0.21675570E-03 0.69867551E+01</pdfrwt>
<pdfrwt beam="2">  1       21 0.60071753E-02 0.69867551E+01</pdfrwt>
<totfact> 0.22200985E+09</totfact>
</mgrwt>
</event>
<event>
 4    1  0.4144004E+006  0.1099164E+02  0.7546771E-02  0.2022588E+00
         21   -1    0    0  501  502  0.00000000000E+00  0.00000000000E+00  0.12370145610E+02  0.12370145610E+02  0.00000000000E+00 0.  1.
         21   -1    0    0  502  503 -0.00000000000E+00 -0.00000000000E+00 -0.97863240425E+01  0.97863240425E+01  0.00000000000E+00 0. -1.
          5    1    1    2  501    0 -0.60282663445E+01  0.78984973196E+01  0.17872236168E+01  0.11135996735E+02  0.47000000000E+01 0.  1.
         -5    1    1    2    0  503  0.60282663445E+01 -0.78984973196E+01  0.79659795057E+00  0.11020472917E+02  0.47000000000E+01 0. -1.
<mgrwt>
<rscale>  2 0.10991645E+02</rscale>
<asrwt>0</asrwt>
<pdfrwt beam="1">  1       21 0.19030993E-02 0.10991645E+02</pdfrwt>
<pdfrwt beam="2">  1       21 0.15055883E-02 0.10991645E+02</pdfrwt>
<totfact> 0.10591547E+09</totfact>
</mgrwt>
</event>
<event>
 4    1  0.4144004E+006  0.4974072E+01  0.7546771E-02  0.2571774E+00
         21   -1    0    0  503  502  0.00000000000E+00  0.00000000000E+00  0.71012603819E+02  0.71012603819E+02  0.00000000000E+00 0.  1.
         21   -1    0    0  501  503 -0.00000000000E+00 -0.00000000000E+00 -0.66317209517E+00  0.66317209517E+00  0.00000000000E+00 0.  1.
          5    1    1    2  501    0 -0.49302771278E+00  0.15518745587E+01  0.10484688513E+02  0.11604744038E+02  0.47000000000E+01 0.  1.
         -5    1    1    2    0  502  0.49302771278E+00 -0.15518745587E+01  0.59864743211E+02  0.60071031877E+02  0.47000000000E+01 0.  1.
<mgrwt>
<rscale>  2 0.49740719E+01</rscale>
<asrwt>0</asrwt>
<pdfrwt beam="1">  1       21 0.10925010E-01 0.49740719E+01</pdfrwt>
<pdfrwt beam="2">  1       21 0.10202653E-03 0.49740719E+01</pdfrwt>
<totfact> 0.18565337E+09</totfact>
</mgrwt>
</event>
<event>
 4    1  0.4144004E+006  0.1438481E+02  0.7546771E-02  0.1887443E+00
         21   -1    0    0  501  502  0.00000000000E+00  0.00000000000E+00  0.30654369636E+02  0.30654369636E+02  0.00000000000E+00 0.  1.
         21   -1    0    0  502  503 -0.00000000000E+00 -0.00000000000E+00 -0.94682812665E+01  0.94682812665E+01  0.00000000000E+00 0. -1.
          5    1    1    2  501    0  0.11710635303E+02  0.69060690973E+01  0.21341750465E+02  0.25736998319E+02  0.47000000000E+01 0.  1.
         -5    1    1    2    0  503 -0.11710635303E+02 -0.69060690973E+01 -0.15566209470E+00  0.14385652584E+02  0.47000000000E+01 0. -1.
<mgrwt>
<rscale>  2 0.14384810E+02</rscale>
<asrwt>0</asrwt>
<pdfrwt beam="1">  1       21 0.47160568E-02 0.14384810E+02</pdfrwt>
<pdfrwt beam="2">  1       21 0.14566587E-02 0.14384810E+02</pdfrwt>
<totfact> 0.31994256E+08</totfact>
</mgrwt>
</event>
<event>
 4    1  0.4144004E+006  0.1419773E+02  0.7546771E-02  0.1893585E+00
         21   -1    0    0  503  502  0.00000000000E+00  0.00000000000E+00  0.60642516205E+02  0.60642516205E+02  0.00000000000E+00 0. -1.
         21   -1    0    0  501  503 -0.00000000000E+00 -0.00000000000E+00 -0.48189894963E+01  0.48189894963E+01  0.00000000000E+00 0.  1.
          5    1    1    2  501    0 -0.10149553013E+02 -0.87448282608E+01  0.96812987370E+01  0.17184382238E+02  0.47000000000E+01 0.  1.
         -5    1    1    2    0  502  0.10149553013E+02  0.87448282608E+01  0.46142227971E+02  0.48277123463E+02  0.47000000000E+01 0. -1.
<mgrwt>
<rscale>  2 0.14197727E+02</rscale>
<asrwt>0</asrwt>
<pdfrwt beam="1">  1       21 0.93296173E-02 0.14197727E+02</pdfrwt>
<pdfrwt beam="2">  1       21 0.74138304E-03 0.14197727E+02</pdfrwt>
<totfact> 0.29315693E+08</totfact>
</mgrwt>
</event>
<event>
 4    1  0.4144004E+006  0.6862373E+01  0.7546771E-02  0.2315096E+00
         21   -1    0    0  503  502  0.00000000000E+00  0.00000000000E+00  0.10057235324E+03  0.10057235324E+03  0.00000000000E+00 0.  1.
         21   -1    0    0  501  503 -0.00000000000E+00 -0.00000000000E+00 -0.50564224874E+00  0.50564224874E+00  0.00000000000E+00 0.  1.
          5    1    1    2  501    0  0.49648087288E+01 -0.59400368557E+00  0.36288374593E+02  0.36931535261E+02  0.47000000000E+01 0.  1.
         -5    1    1    2    0  502 -0.49648087288E+01  0.59400368557E+00  0.63778336403E+02  0.64146460233E+02  0.47000000000E+01 0.  1.
<mgrwt>
<rscale>  2 0.68623732E+01</rscale>
<asrwt>0</asrwt>
<pdfrwt beam="1">  1       21 0.15472654E-01 0.68623732E+01</pdfrwt>
<pdfrwt beam="2">  1       21 0.77791195E-04 0.68623732E+01</pdfrwt>
<totfact> 0.20393635E+09</totfact>
</mgrwt>
</event>
<event>
 4    1  0.4144004E+006  0.9947659E+01  0.7546771E-02  0.2077979E+00
         21   -1    0    0  501  502  0.00000000000E+00  0.00000000000E+00  0.24664306911E+04  0.24664306911E+04  0.00000000000E+00 0. -1.
         21   -1    0    0  502  503 -0.00000000000E+00 -0.00000000000E+00 -0.46545431645E-01  0.46545431645E-01  0.00000000000E+00 0. -1.
          5    1    1    2  501    0  0.80020333684E+01  0.35823709595E+01  0.16913576544E+04  0.16913869075E+04  0.47000000000E+01 0. -1.
         -5    1    1    2    0  503 -0.80020333684E+01 -0.35823709595E+01  0.77502649129E+03  0.77509032901E+03  0.47000000000E+01 0. -1.
<mgrwt>
<rscale>  2 0.99476590E+01</rscale>
<asrwt>0</asrwt>
<pdfrwt beam="1">  1       21 0.37934623E+00 0.99476590E+01</pdfrwt>
<pdfrwt beam="2">  1       21 0.71628111E-05 0.99476590E+01</pdfrwt>
<totfact> 0.75208566E+07</totfact>
</mgrwt>
</event>
<event>
 4    1  0.4144004E+006  0.5450022E+01  0.7546771E-02  0.2493020E+00
         21   -1    0    0  501  502  0.00000000000E+00  0.00000000000E+00  0.31551607774E+00  0.31551607774E+00  0.00000000000E+00 0. -1.
         21   -1    0    0  502  503 -0.00000000000E+00 -0.00000000000E+00 -0.11057658460E+03  0.11057658460E+03  0.00000000000E+00 0.  1.
          5    1    1    2  501    0  0.13716054236E+01  0.23940428235E+01 -0.33753751113E+02  0.34190911902E+02  0.47000000000E+01 0. -1.
         -5    1    1    2    0  503 -0.13716054236E+01 -0.23940428235E+01 -0.76507317406E+02  0.76701188772E+02  0.47000000000E+01 0.  1.
<mgrwt>
<rscale>  2 0.54500222E+01</rscale>
<asrwt>0</asrwt>
<pdfrwt beam="1">  1       21 0.48540906E-04 0.54500222E+01</pdfrwt>
<pdfrwt beam="2">  1       21 0.17011793E-01 0.54500222E+01</pdfrwt>
<totfact> 0.27328507E+09</totfact>
</mgrwt>
</event>
<event>
 4    1  0.4144004E+006  0.1237146E+02  0.7546771E-02  0.1960788E+00
         21   -1    0    0  503  502  0.00000000000E+00  0.00000000000E+00  0.43107530221E+00  0.43107530221E+00  0.00000000000E+00 0. -1.
         21   -1    0    0  501  503 -0.00000000000E+00 -0.00000000000E+00 -0.36472436974E+03  0.36472436974E+03  0.00000000000E+00 0.  1.
          5    1    1    2  501    0  0.10044944985E+02  0.54828947387E+01 -0.15241021962E+03  0.15291150414E+03  0.47000000000E+01 0. -1.
         -5    1    1    2    0  502 -0.10044944985E+02 -0.54828947387E+01 -0.21188307481E+03  0.21224394090E+03  0.47000000000E+01 0.  1.
<mgrwt>
<rscale>  2 0.12371461E+02</rscale>
<asrwt>0</asrwt>
<pdfrwt beam="1">  1       21 0.66319403E-04 0.12371461E+02</pdfrwt>
<pdfrwt beam="2">  1       21 0.56111335E-01 0.12371461E+02</pdfrwt>
<totfact> 0.37810188E+08</totfact>
</mgrwt>
</event>
<event>
 4    1  0.4144004E+006  0.6960756E+01  0.7546771E-02  0.2304968E+00
         21   -1    0    0  503  502  0.00000000000E+00  0.00000000000E+00  0.76175079046E+02  0.76175079046E+02  0.00000000000E+00 0. -1.
         21   -1    0    0  501  503 -0.00000000000E+00 -0.00000000000E+00 -0.64073678147E+00  0.64073678147E+00  0.00000000000E+00 0. -1.
          5    1    1    2  501    0  0.51339019559E+01 -0.71922362073E-01  0.34486734863E+02  0.35182197254E+02  0.47000000000E+01 0. -1.
         -5    1    1    2    0  502 -0.51339019559E+01  0.71922362073E-01  0.41047607402E+02  0.41633618574E+02  0.47000000000E+01 0. -1.
<mgrwt>
<rscale>  2 0.69607559E+01</rscale>
<asrwt>0</asrwt>
<pdfrwt beam="1">  1       21 0.11719236E-01 0.69607559E+01</pdfrwt>
<pdfrwt beam="2">  1       21 0.98574950E-04 0.69607559E+01</pdfrwt>
<totfact> 0.23223487E+09</totfact>
</mgrwt>
</event>
<event>
 4    1  0.4144004E+006  0.6785849E+01  0.7546771E-02  0.2323140E+00
         21   -1    0    0  503  502  0.00000000000E+00  0.00000000000E+00  0.43331074741E+01  0.43331074741E+01  0.00000000000E+00 0. -1.
         21   -1    0    0  501  503 -0.00000000000E+00 -0.00000000000E+00 -0.19896946992E+02  0.19896946992E+02  0.00000000000E+00 0. -1.
          5    1    1    2  501    0 -0.23158580771E+01  0.43121403355E+01 -0.16051258317E+02  0.17426722195E+02  0.47000000000E+01 0. -1.
         -5    1    1    2    0  502  0.23158580771E+01 -0.43121403355E+01  0.48741879893E+00  0.68033322711E+01  0.47000000000E+01 0. -1.
<mgrwt>
<rscale>  2 0.67858495E+01</rscale>
<asrwt>0</asrwt>
<pdfrwt beam="1">  1       21 0.66663194E-03 0.67858495E+01</pdfrwt>
<pdfrwt beam="2">  1       21 0.30610687E-02 0.67858495E+01</pdfrwt>
<totfact> 0.12397216E+09</totfact>
</mgrwt>
</event>
<event>
 4    1  0.4144004E+006  0.7893466E+01  0.7546771E-02  0.2219354E+00
         21   -1    0    0  503  502  0.00000000000E+00  0.00000000000E+00  0.77491458289E+02  0.77491458289E+02  0.00000000000E+00 0. -1.
         21   -1    0    0  501  503 -0.00000000000E+00 -0.00000000000E+00 -0.10012390944E+02  0.10012390944E+02  0.00000000000E+00 0. -1.
          5    1    1    2  501    0  0.58637666958E+01 -0.24151684707E+01 -0.82188762516E+01  0.11395469514E+02  0.47000000000E+01 0. -1.
         -5    1    1    2    0  502 -0.58637666958E+01  0.24151684707E+01  0.75697943597E+02  0.76108379719E+02  0.47000000000E+01 0. -1.
<mgrwt>
<rscale>  2 0.78934656E+01</rscale>
<asrwt>0</asrwt>
<pdfrwt beam="1">  1       21 0.11921762E-01 0.78934656E+01</pdfrwt>
<pdfrwt beam="2">  1       21 0.15403679E-02 0.78934656E+01</pdfrwt>
<totfact> 0.52311156E+07</totfact>
</mgrwt>
</event>
<event>
 4    1  0.4144004E+006  0.6042886E+01  0.7546771E-02  0.2409875E+00
         21   -1    0    0  503  502  0.00000000000E+00  0.00000000000E+00  0.14394730508E+04  0.14394730508E+04  0.00000000000E+00 0. -1.
         21   -1    0    0  501  503 -0.00000000000E+00 -0.00000000000E+00 -0.35628358716E-01  0.35628358716E-01  0.00000000000E+00 0.  1.
          5    1    1    2  501    0  0.82788023750E+00  0.37068977164E+01  0.33346846139E+03  0.33352320941E+03  0.47000000000E+01 0.  1.
         -5    1    1    2    0  502 -0.82788023750E+00 -0.37068977164E+01  0.11059689610E+04  0.11059854697E+04  0.47000000000E+01 0. -1.
<mgrwt>
<rscale>  2 0.60428864E+01</rscale>
<asrwt>0</asrwt>
<pdfrwt beam="1">  1       21 0.22141082E+00 0.60428864E+01</pdfrwt>
<pdfrwt beam="2">  1       21 0.54824389E-05 0.60428864E+01</pdfrwt>
<totfact> 0.43130059E+08</totfact>
</mgrwt>
</event>
<event>
 4    1  0.4144004E+006  0.8537798E+01  0.7546771E-02  0.2169201E+00
         21   -1    0    0  503  502  0.00000000000E+00  0.00000000000E+00  0.32061202451E+02  0.32061202451E+02  0.00000000000E+00 0. -1.
         21   -1    0    0  501  503 -0.00000000000E+00 -0.00000000000E+00 -0.39675333358E+01  0.39675333358E+01  0.00000000000E+00 0.  1.
          5    1    1    2  501    0 -0.70964363504E+01 -0.66677382116E+00  0.22759715012E+01  0.88359517019E+01  0.47000000000E+01 0.  1.
         -5    1    1    2    0  502  0.70964363504E+01  0.66677382116E+00  0.25817697614E+02  0.27192784085E+02  0.47000000000E+01 0. -1.
<mgrwt>
<rscale>  2 0.85377981E+01</rscale>
<asrwt>0</asrwt>
<pdfrwt beam="1">  1       21 0.49324925E-02 0.85377981E+01</pdfrwt>
<pdfrwt beam="2">  1       21 0.61038977E-03 0.85377981E+01</pdfrwt>
<totfact> 0.80816264E+08</totfact>
</mgrwt>
</event>
<event>
 4    1  0.4144004E+006  0.7075636E+01  0.7546771E-02  0.2293435E+00
         21   -1    0    0  501  502  0.00000000000E+00  0.00000000000E+00  0.13907338892E+01  0.13907338892E+01  0.00000000000E+00 0. -1.
         21   -1    0    0  502  503 -0.00000000000E+00 -0.00000000000E+00 -0.46515526937E+02  0.46515526937E+02  0.00000000000E+00 0. -1.
          5    1    1    2  501    0  0.29253441982E+01  0.44064706644E+01 -0.33951919019E+02  0.34681370034E+02  0.47000000000E+01 0. -1.
         -5    1    1    2    0  503 -0.29253441982E+01 -0.44064706644E+01 -0.11172874029E+02  0.13224890792E+02  0.47000000000E+01 0. -1.
<mgrwt>
<rscale>  2 0.70756358E+01</rscale>
<asrwt>0</asrwt>
<pdfrwt beam="1">  1       21 0.21395909E-03 0.70756358E+01</pdfrwt>
<pdfrwt beam="2">  1       21 0.71562339E-02 0.70756358E+01</pdfrwt>
<totfact> 0.17494930E+09</totfact>
</mgrwt>
</event>
<event>
 4    1  0.4144004E+006  0.6126208E+01  0.7546771E-02  0.2399281E+00
         21   -1    0    0  503  502  0.00000000000E+00  0.00000000000E+00  0.65564296194E+00  0.65564296194E+00  0.00000000000E+00 0.  1.
         21   -1    0    0  501  503 -0.00000000000E+00 -0.00000000000E+00 -0.11388116448E+03  0.11388116448E+03  0.00000000000E+00 0. -1.
          5    1    1    2  501    0 -0.11707768478E+01 -0.37509606859E+01 -0.97000254496E+02  0.97193517257E+02  0.47000000000E+01 0. -1.
         -5    1    1    2    0  502  0.11707768478E+01  0.37509606859E+01 -0.16225267019E+02  0.17343290182E+02  0.47000000000E+01 0.  1.
<mgrwt>
<rscale>  2 0.61262080E+01</rscale>
<asrwt>0</asrwt>
<pdfrwt beam="1">  1       21 0.10086810E-03 0.61262080E+01</pdfrwt>
<pdfrwt beam="2">  1       21 0.17520187E-01 0.61262080E+01</pdfrwt>
<totfact> 0.10807174E+09</totfact>
</mgrwt>
</event>
<event>
 4    1  0.4144004E+006  0.4976640E+01  0.7546771E-02  0.2571315E+00
         21   -1    0    0  501  502  0.00000000000E+00  0.00000000000E+00  0.34170217746E+01  0.34170217746E+01  0.00000000000E+00 0. -1.
         21   -1    0    0  502  503 -0.00000000000E+00 -0.00000000000E+00 -0.35313528754E+02  0.35313528754E+02  0.00000000000E+00 0. -1.
          5    1    1    2  501    0 -0.65859706075E+00 -0.14977292930E+01  0.13156458103E+01  0.51476078932E+01  0.47000000000E+01 0. -1.
         -5    1    1    2    0  503  0.65859706075E+00  0.14977292930E+01 -0.33212152790E+02  0.33582942636E+02  0.47000000000E+01 0. -1.
<mgrwt>
<rscale>  2 0.49766397E+01</rscale>
<asrwt>0</asrwt>
<pdfrwt beam="1">  1       21 0.52569566E-03 0.49766397E+01</pdfrwt>
<pdfrwt beam="2">  1       21 0.54328506E-02 0.49766397E+01</pdfrwt>
<totfact> 0.57557564E+08</totfact>
</mgrwt>
</event>
<event>
 4    1  0.4144004E+006  0.5432086E+01  0.7546771E-02  0.2495773E+00
         21   -1    0    0  501  502  0.00000000000E+00  0.00000000000E+00  0.44673095720E+01  0.44673095720E+01  0.00000000000E+00 0. -1.
         21   -1    0    0  502  503 -0.00000000000E+00 -0.00000000000E+00 -0.18342837359E+02  0.18342837359E+02  0.00000000000E+00 0. -1.
          5    1    1    2  501    0 -0.15077990031E+01 -0.22680606144E+01  0.21855964211E+01  0.58552872261E+01  0.47000000000E+01 0. -1.
         -5    1    1    2    0  503  0.15077990031E+01  0.22680606144E+01 -0.16061124208E+02  0.16954859705E+02  0.47000000000E+01 0. -1.
<mgrwt>
<rscale>  2 0.54320859E+01</rscale>
<asrwt>0</asrwt>
<pdfrwt beam="1">  1       21 0.68727841E-03 0.54320859E+01</pdfrwt>
<pdfrwt beam="2">  1       21 0.28219749E-02 0.54320859E+01</pdfrwt>
<totfact> 0.11146480E+09</totfact>
</mgrwt>
</event>
<event>
 4    1  0.4144004E+006  0.7394212E+01  0.7546771E-02  0.2262996E+00
         21   -1    0    0  503  502  0.00000000000E+00  0.00000000000E+00  0.13052982995E+01  0.13052982995E+01  0.00000000000E+00 0. -1.
         21   -1    0    0  501  503 -0.00000000000E+00 -0.00000000000E+00 -0.49234589715E+02  0.49234589715E+02  0.00000000000E+00 0.  1.
          5    1    1    2  501    0 -0.39037929788E+00  0.56949081902E+01 -0.33727040953E+02  0.34528070707E+02  0.47000000000E+01 0.  1.
         -5    1    1    2    0  502  0.39037929788E+00 -0.56949081902E+01 -0.14202250462E+02  0.16011817307E+02  0.47000000000E+01 0.  1.
<mgrwt>
<rscale>  2 0.73942123E+01</rscale>
<asrwt>0</asrwt>
<pdfrwt beam="1">  1       21 0.20081508E-03 0.73942123E+01</pdfrwt>
<pdfrwt beam="2">  1       21 0.75745538E-02 0.73942123E+01</pdfrwt>
<totfact> 0.18077394E+09</totfact>
</mgrwt>
</event>
<event>
 4    1  0.4144004E+006  0.5438025E+01  0.7546771E-02  0.2494860E+00
         21   -1    0    0  503  502  0.00000000000E+00  0.00000000000E+00  0.46165518873E+02  0.46165518873E+02  0.00000000000E+00 0.  1.
         21   -1    0    0  501  503 -0.00000000000E+00 -0.00000000000E+00 -0.13483995266E+01  0.13483995266E+01  0.00000000000E+00 0. -1.
          5    1    1    2  501    0 -0.17035449334E+01 -0.21401055497E+01  0.51959487113E+01  0.75213030862E+01  0.47000000000E+01 0. -1.
         -5    1    1    2    0  502  0.17035449334E+01  0.21401055497E+01  0.39621170635E+02  0.39992615313E+02  0.47000000000E+01 0.  1.
<mgrwt>
<rscale>  2 0.54380251E+01</rscale>
<asrwt>0</asrwt>
<pdfrwt beam="1">  1       21 0.71023863E-02 0.54380251E+01</pdfrwt>
<pdfrwt beam="2">  1       21 0.20744612E-03 0.54380251E+01</pdfrwt>
<totfact> 0.14917521E+09</totfact>
</mgrwt>
</event>
<event>
 4    1  0.4144004E+006  0.6525898E+01  0.7546771E-02  0.2351621E+00
         21   -1    0    0  501  502  0.00000000000E+00  0.00000000000E+00  0.28009599896E+01  0.28009599896E+01  0.00000000000E+00 0. -1.
         21   -1    0    0  502  503 -0.00000000000E+00 -0.00000000000E+00 -0.15595641206E+02  0.15595641206E+02  0.00000000000E+00 0.  1.
          5    1    1    2  501    0  0.66899447352E-01  0.45269057491E+01 -0.49407348084E+01  0.81852435299E+01  0.47000000000E+01 0. -1.
         -5    1    1    2    0  503 -0.66899447352E-01 -0.45269057491E+01 -0.78539464079E+01  0.10211357666E+02  0.47000000000E+01 0.  1.
<mgrwt>
<rscale>  2 0.65258985E+01</rscale>
<asrwt>0</asrwt>
<pdfrwt beam="1">  1       21 0.43091693E-03 0.65258985E+01</pdfrwt>
<pdfrwt beam="2">  1       21 0.23993294E-02 0.65258985E+01</pdfrwt>
<totfact> 0.31588124E+09</totfact>
</mgrwt>
</event>
<event>
 4    1  0.4144004E+006  0.8771284E+01  0.7546771E-02  0.2152496E+00
         21   -1    0    0  501  502  0.00000000000E+00  0.00000000000E+00  0.30904417488E+01  0.30904417488E+01  0.00000000000E+00 0. -1.
         21   -1    0    0  502  503 -0.00000000000E+00 -0.00000000000E+00 -0.46918768938E+02  0.46918768938E+02  0.00000000000E+00 0. -1.
          5    1    1    2  501    0  0.59657248722E+01 -0.43881151430E+01 -0.47826358902E+01  0.99904471280E+01  0.47000000000E+01 0. -1.
         -5    1    1    2    0  503 -0.59657248722E+01  0.43881151430E+01 -0.39045691299E+02  0.40018763559E+02  0.47000000000E+01 0. -1.
<mgrwt>
<rscale>  2 0.87712843E+01</rscale>
<asrwt>0</asrwt>
<pdfrwt beam="1">  1       21 0.47545259E-03 0.87712843E+01</pdfrwt>
<pdfrwt beam="2">  1       21 0.72182719E-02 0.87712843E+01</pdfrwt>
<totfact> 0.65396332E+08</totfact>
</mgrwt>
</event>
<event>
 4    1  0.4144004E+006  0.6091477E+01  0.7546771E-02  0.2403668E+00
         21   -1    0    0  501  502  0.00000000000E+00  0.00000000000E+00  0.10774790643E+02  0.10774790643E+02  0.00000000000E+00 0. -1.
         21   -1    0    0  502  503 -0.00000000000E+00 -0.00000000000E+00 -0.35163595242E+01  0.35163595242E+01  0.00000000000E+00 0.  1.
          5    1    1    2  501    0  0.33668692108E+01 -0.19184054478E+01  0.46557549289E+01  0.76669512652E+01  0.47000000000E+01 0. -1.
         -5    1    1    2    0  503 -0.33668692108E+01  0.19184054478E+01  0.26026761899E+01  0.66241989021E+01  0.47000000000E+01 0. -1.
<mgrwt>
<rscale>  2 0.60914766E+01</rscale>
<asrwt>0</asrwt>
<pdfrwt beam="1">  1       21 0.16576601E-02 0.60914766E+01</pdfrwt>
<pdfrwt beam="2">  1       21 0.54097840E-03 0.60914766E+01</pdfrwt>
<totfact> 0.36923293E+09</totfact>
</mgrwt>
</event>
<event>
 4    1  0.4144004E+006  0.6430941E+01  0.7546771E-02  0.2362498E+00
         21   -1    0    0  501  502  0.00000000000E+00  0.00000000000E+00  0.30594637086E+03  0.30594637086E+03  0.00000000000E+00 0. -1.
         21   -1    0    0  502  503 -0.00000000000E+00 -0.00000000000E+00 -0.18561446667E+00  0.18561446667E+00  0.00000000000E+00 0.  1.
          5    1    1    2  501    0  0.29217224768E+01  0.32757493782E+01  0.23267033995E+03  0.23275919764E+03  0.47000000000E+01 0.  1.
         -5    1    1    2    0  503 -0.29217224768E+01 -0.32757493782E+01  0.73090416445E+02  0.73372787682E+02  0.47000000000E+01 0. -1.
<mgrwt>
<rscale>  2 0.64309405E+01</rscale>
<asrwt>0</asrwt>
<pdfrwt beam="1">  1       21 0.47068269E-01 0.64309405E+01</pdfrwt>
<pdfrwt beam="2">  1       21 0.28556317E-04 0.64309405E+01</pdfrwt>
<totfact> 0.11494230E+09</totfact>
</mgrwt>
</event>
<event>
 4    1  0.4144004E+006  0.4713066E+01  0.7546771E-02  0.2620720E+00
         21   -1    0    0  501  502  0.00000000000E+00  0.00000000000E+00  0.54843054554E+01  0.54843054554E+01  0.00000000000E+00 0.  1.
         21   -1    0    0  502  503 -0.00000000000E+00 -0.00000000000E+00 -0.10311621611E+02  0.10311621611E+02  0.00000000000E+00 0.  1.
          5    1    1    2  501    0  0.18764089655E+00 -0.29628729136E+00  0.37407345182E+01  0.60171496575E+01  0.47000000000E+01 0.  1.
         -5    1    1    2    0  503 -0.18764089655E+00  0.29628729136E+00 -0.85680506735E+01  0.97787774087E+01  0.47000000000E+01 0.  1.
<mgrwt>
<rscale>  2 0.47130664E+01</rscale>
<asrwt>0</asrwt>
<pdfrwt beam="1">  1       21 0.84373930E-03 0.47130664E+01</pdfrwt>
<pdfrwt beam="2">  1       21 0.15864033E-02 0.47130664E+01</pdfrwt>
<totfact> 0.16575890E+09</totfact>
</mgrwt>
</event>
<event>
 4    1  0.4144004E+006  0.4972932E+01  0.7546771E-02  0.2571978E+00
         21   -1    0    0  501  502  0.00000000000E+00  0.00000000000E+00  0.77965795000E+02  0.77965795000E+02  0.00000000000E+00 0.  1.
         21   -1    0    0  502  503 -0.00000000000E+00 -0.00000000000E+00 -0.32219310041E+00  0.32219310041E+00  0.00000000000E+00 0.  1.
          5    1    1    2  501    0 -0.11823659198E+01 -0.11144805169E+01  0.33944505773E+02  0.34306843751E+02  0.47000000000E+01 0.  1.
         -5    1    1    2    0  503  0.11823659198E+01  0.11144805169E+01  0.43699096127E+02  0.43981144349E+02  0.47000000000E+01 0.  1.
<mgrwt>
<rscale>  2 0.49729323E+01</rscale>
<asrwt>0</asrwt>
<pdfrwt beam="1">  1       21 0.11994723E-01 0.49729323E+01</pdfrwt>
<pdfrwt beam="2">  1       21 0.49568232E-04 0.49729323E+01</pdfrwt>
<totfact> 0.41911209E+09</totfact>
</mgrwt>
</event>
<event>
 4    1  0.4144004E+006  0.5463948E+01  0.7546771E-02  0.2490893E+00
         21   -1    0    0  501  502  0.00000000000E+00  0.00000000000E+00  0.99508314486E+02  0.99508314486E+02  0.00000000000E+00 0.  1.
         21   -1    0    0  502  503 -0.00000000000E+00 -0.00000000000E+00 -0.46779650339E+00  0.46779650339E+00  0.00000000000E+00 0. -1.
          5    1    1    2  501    0  0.10083402684E+01  0.25976866452E+01  0.79456701252E+02  0.79644347570E+02  0.47000000000E+01 0.  1.
         -5    1    1    2    0  503 -0.10083402684E+01 -0.25976866452E+01  0.19583816730E+02  0.20331763419E+02  0.47000000000E+01 0. -1.
<mgrwt>
<rscale>  2 0.54639478E+01</rscale>
<asrwt>0</asrwt>
<pdfrwt beam="1">  1       21 0.15308955E-01 0.54639478E+01</pdfrwt>
<pdfrwt beam="2">  1       21 0.71968772E-04 0.54639478E+01</pdfrwt>
<totfact> 0.19145346E+09</totfact>
</mgrwt>
</event>
<event>
 4    1  0.4144004E+006  0.5597755E+01  0.7546771E-02  0.2470914E+00
         21   -1    0    0  503  502  0.00000000000E+00  0.00000000000E+00  0.46090327410E+01  0.46090327410E+01  0.00000000000E+00 0.  1.
         21   -1    0    0  501  503 -0.00000000000E+00 -0.00000000000E+00 -0.16640225800E+02  0.16640225800E+02  0.00000000000E+00 0. -1.
          5    1    1    2  501    0  0.29438907497E+01  0.76050280702E+00 -0.14186463524E+02  0.15250921434E+02  0.47000000000E+01 0. -1.
         -5    1    1    2    0  502 -0.29438907497E+01 -0.76050280702E+00  0.21552704654E+01  0.59983371066E+01  0.47000000000E+01 0.  1.
<mgrwt>
<rscale>  2 0.55977547E+01</rscale>
<asrwt>0</asrwt>
<pdfrwt beam="1">  1       21 0.70908196E-03 0.55977547E+01</pdfrwt>
<pdfrwt beam="2">  1       21 0.25600347E-02 0.55977547E+01</pdfrwt>
<totfact> 0.12602551E+09</totfact>
</mgrwt>
</event>
<event>
 4    1  0.4144004E+006  0.5065312E+01  0.7546771E-02  0.2555696E+00
         21   -1    0    0  501  502  0.00000000000E+00  0.00000000000E+00  0.80413545783E+00  0.80413545783E+00  0.00000000000E+00 0.  1.
         21   -1    0    0  502  503 -0.00000000000E+00 -0.00000000000E+00 -0.40834543958E+02  0.40834543958E+02  0.00000000000E+00 0.  1.
          5    1    1    2  501    0  0.30392238527E-01  0.18885091087E+01 -0.10280473898E+02  0.11460607921E+02  0.47000000000E+01 0.  1.
         -5    1    1    2    0  503 -0.30392238527E-01 -0.18885091087E+01 -0.29749934602E+02  0.30178071495E+02  0.47000000000E+01 0.  1.
<mgrwt>
<rscale>  2 0.50653125E+01</rscale>
<asrwt>0</asrwt>
<pdfrwt beam="1">  1       21 0.12371314E-03 0.50653125E+01</pdfrwt>
<pdfrwt beam="2">  1       21 0.62822377E-02 0.50653125E+01</pdfrwt>
<totfact> 0.33496086E+09</totfact>
</mgrwt>
</event>
<event>
 4    1  0.4144004E+006  0.7928501E+01  0.7546771E-02  0.2216459E+00
         21   -1    0    0  503  502  0.00000000000E+00  0.00000000000E+00  0.25298647554E+02  0.25298647554E+02  0.00000000000E+00 0. -1.
         21   -1    0    0  501  503 -0.00000000000E+00 -0.00000000000E+00 -0.15917756317E+02  0.15917756317E+02  0.00000000000E+00 0.  1.
          5    1    1    2  501    0  0.29161101922E+01  0.56804433487E+01 -0.14241078534E+02  0.16299369714E+02  0.47000000000E+01 0.  1.
         -5    1    1    2    0  502 -0.29161101922E+01 -0.56804433487E+01  0.23621969771E+02  0.24917034156E+02  0.47000000000E+01 0. -1.
<mgrwt>
<rscale>  2 0.79285015E+01</rscale>
<asrwt>0</asrwt>
<pdfrwt beam="1">  1       21 0.38920996E-02 0.79285015E+01</pdfrwt>
<pdfrwt beam="2">  1       21 0.24488856E-02 0.79285015E+01</pdfrwt>
<totfact> 0.14845390E+08</totfact>
</mgrwt>
</event>
<event>
 4    1  0.4144004E+006  0.1120051E+02  0.7546771E-02  0.2012482E+00
         21   -1    0    0  503  502  0.00000000000E+00  0.00000000000E+00  0.15334559196E+01  0.15334559196E+01  0.00000000000E+00 0.  1.
         21   -1    0    0  501  503 -0.00000000000E+00 -0.00000000000E+00 -0.29772057565E+03  0.29772057565E+03  0.00000000000E+00 0. -1.
          5    1    1    2  501    0  0.88036003702E+01  0.50850724347E+01 -0.27551514338E+03  0.27574271626E+03  0.47000000000E+01 0. -1.
         -5    1    1    2    0  502 -0.88036003702E+01 -0.50850724347E+01 -0.20671976349E+02  0.23511315304E+02  0.47000000000E+01 0.  1.
<mgrwt>
<rscale>  2 0.11200506E+02</rscale>
<asrwt>0</asrwt>
<pdfrwt beam="1">  1       21 0.23591635E-03 0.11200506E+02</pdfrwt>
<pdfrwt beam="2">  1       21 0.45803154E-01 0.11200506E+02</pdfrwt>
<totfact> 0.90609887E+07</totfact>
</mgrwt>
</event>
<event>
 4    1  0.4144004E+006  0.4812082E+01  0.7546771E-02  0.2601610E+00
         21   -1    0    0  503  502  0.00000000000E+00  0.00000000000E+00  0.25290070151E+03  0.25290070151E+03  0.00000000000E+00 0. -1.
         21   -1    0    0  501  503 -0.00000000000E+00 -0.00000000000E+00 -0.19289051480E+00  0.19289051480E+00  0.00000000000E+00 0. -1.
          5    1    1    2  501    0  0.68836779901E+00 -0.76959852402E+00  0.34634499452E+02  0.34967194403E+02  0.47000000000E+01 0. -1.
         -5    1    1    2    0  502 -0.68836779901E+00  0.76959852402E+00  0.21807331155E+03  0.21812639763E+03  0.47000000000E+01 0. -1.
<mgrwt>
<rscale>  2 0.48120819E+01</rscale>
<asrwt>0</asrwt>
<pdfrwt beam="1">  1       21 0.38907535E-01 0.48120819E+01</pdfrwt>
<pdfrwt beam="2">  1       21 0.29675666E-04 0.48120819E+01</pdfrwt>
<totfact> 0.12103174E+09</totfact>
</mgrwt>
</event>
<event>
 4    1  0.4144004E+006  0.7250221E+01  0.7546771E-02  0.2276483E+00
         21   -1    0    0  503  502  0.00000000000E+00  0.00000000000E+00  0.41522356103E+01  0.41522356103E+01  0.00000000000E+00 0.  1.
         21   -1    0    0  501  503 -0.00000000000E+00 -0.00000000000E+00 -0.25980047621E+02  0.25980047621E+02  0.00000000000E+00 0. -1.
          5    1    1    2  501    0  0.48834829859E+01  0.25743536978E+01 -0.21701913602E+02  0.22880969320E+02  0.47000000000E+01 0. -1.
         -5    1    1    2    0  502 -0.48834829859E+01 -0.25743536978E+01 -0.12589840908E+00  0.72513139116E+01  0.47000000000E+01 0.  1.
<mgrwt>
<rscale>  2 0.72502209E+01</rscale>
<asrwt>0</asrwt>
<pdfrwt beam="1">  1       21 0.63880549E-03 0.72502209E+01</pdfrwt>
<pdfrwt beam="2">  1       21 0.39969303E-02 0.72502209E+01</pdfrwt>
<totfact> 0.93169782E+08</totfact>
</mgrwt>
</event>
<event>
 4    1  0.4144004E+006  0.5191078E+01  0.7546771E-02  0.2534333E+00
         21   -1    0    0  501  502  0.00000000000E+00  0.00000000000E+00  0.88029752167E+00  0.88029752167E+00  0.00000000000E+00 0.  1.
         21   -1    0    0  502  503 -0.00000000000E+00 -0.00000000000E+00 -0.31125637596E+02  0.31125637596E+02  0.00000000000E+00 0.  1.
          5    1    1    2  501    0 -0.16712683100E+01 -0.14367175291E+01 -0.17179264773E+02  0.17946432324E+02  0.47000000000E+01 0.  1.
         -5    1    1    2    0  503  0.16712683100E+01  0.14367175291E+01 -0.13066075302E+02  0.14059502794E+02  0.47000000000E+01 0.  1.
<mgrwt>
<rscale>  2 0.51910784E+01</rscale>
<asrwt>0</asrwt>
<pdfrwt beam="1">  1       21 0.13543038E-03 0.51910784E+01</pdfrwt>
<pdfrwt beam="2">  1       21 0.47885598E-02 0.51910784E+01</pdfrwt>
<totfact> 0.45358436E+09</totfact>
</mgrwt>
</event>
<event>
 4    1  0.4144004E+006  0.5582890E+01  0.7546771E-02  0.2473094E+00
         21   -1    0    0  503  502  0.00000000000E+00  0.00000000000E+00  0.54148200529E+00  0.54148200529E+00  0.00000000000E+00 0. -1.
         21   -1    0    0  501  503 -0.00000000000E+00 -0.00000000000E+00 -0.96199318436E+02  0.96199318436E+02  0.00000000000E+00 0. -1.
          5    1    1    2  501    0  0.23746577583E+01 -0.18546314443E+01 -0.78483720570E+02  0.78682037669E+02  0.47000000000E+01 0. -1.
         -5    1    1    2    0  502 -0.23746577583E+01  0.18546314443E+01 -0.17174115861E+02  0.18058762773E+02  0.47000000000E+01 0. -1.
<mgrwt>
<rscale>  2 0.55828897E+01</rscale>
<asrwt>0</asrwt>
<pdfrwt beam="1">  1       21 0.83304851E-04 0.55828897E+01</pdfrwt>
<pdfrwt beam="2">  1       21 0.14799908E-01 0.55828897E+01</pdfrwt>
<totfact> 0.16919728E+09</totfact>
</mgrwt>
</event>
<event>
 4    1  0.4144004E+006  0.1428148E+02  0.7546771E-02  0.1890820E+00
         21   -1    0    0  503  502  0.00000000000E+00  0.00000000000E+00  0.14191125273E+01  0.14191125273E+01  0.00000000000E+00 0.  1.
         21   -1    0    0  501  503 -0.00000000000E+00 -0.00000000000E+00 -0.14400973531E+03  0.14400973531E+03  0.00000000000E+00 0. -1.
          5    1    1    2  501    0 -0.98690494260E+01 -0.91908897574E+01 -0.74534030416E+02  0.75889935309E+02  0.47000000000E+01 0.  1.
         -5    1    1    2    0  502  0.98690494260E+01  0.91908897574E+01 -0.68056592370E+02  0.69538912532E+02  0.47000000000E+01 0. -1.
<mgrwt>
<rscale>  2 0.14281477E+02</rscale>
<asrwt>0</asrwt>
<pdfrwt beam="1">  1       21 0.21832498E-03 0.14281477E+02</pdfrwt>
<pdfrwt beam="2">  1       21 0.22155346E-01 0.14281477E+02</pdfrwt>
<totfact> 0.40680042E+08</totfact>
</mgrwt>
</event>
<event>
 4    1  0.4144004E+006  0.1077716E+02  0.7546771E-02  0.2033281E+00
         21   -1    0    0  501  502  0.00000000000E+00  0.00000000000E+00  0.30342676537E+01  0.30342676537E+01  0.00000000000E+00 0.  1.
         21   -1    0    0  502  503 -0.00000000000E+00 -0.00000000000E+00 -0.17637790625E+03  0.17637790625E+03  0.00000000000E+00 0. -1.
          5    1    1    2  501    0  0.40898780704E+01 -0.87937535607E+01 -0.72946271535E+01  0.13013792285E+02  0.47000000000E+01 0.  1.
         -5    1    1    2    0  503 -0.40898780704E+01  0.87937535607E+01 -0.16604901145E+03  0.16639838162E+03  0.47000000000E+01 0. -1.
<mgrwt>
<rscale>  2 0.10777161E+02</rscale>
<asrwt>0</asrwt>
<pdfrwt beam="1">  1       21 0.46681035E-03 0.10777161E+02</pdfrwt>
<pdfrwt beam="2">  1       21 0.27135066E-01 0.10777161E+02</pdfrwt>
<totfact> 0.86347572E+07</totfact>
</mgrwt>
</event>
<event>
 4    1  0.4144004E+006  0.5571233E+01  0.7546771E-02  0.2474810E+00
         21   -1    0    0  501  502  0.00000000000E+00  0.00000000000E+00  0.23529167495E+01  0.23529167495E+01  0.00000000000E+00 0.  1.
         21   -1    0    0  502  503 -0.00000000000E+00 -0.00000000000E+00 -0.16892833947E+02  0.16892833947E+02  0.00000000000E+00 0. -1.
          5    1    1    2  501    0  0.19470640507E+01 -0.22710295521E+01 -0.27656364989E+01  0.62199179165E+01  0.47000000000E+01 0. -1.
         -5    1    1    2    0  503 -0.19470640507E+01  0.22710295521E+01 -0.11774280699E+02  0.13025832780E+02  0.47000000000E+01 0. -1.
<mgrwt>
<rscale>  2 0.55712327E+01</rscale>
<asrwt>0</asrwt>
<pdfrwt beam="1">  1       21 0.36198721E-03 0.55712327E+01</pdfrwt>
<pdfrwt beam="2">  1       21 0.25988974E-02 0.55712327E+01</pdfrwt>
<totfact> 0.31129312E+09</totfact>
</mgrwt>
</event>
<event>
 4    1  0.4144004E+006  0.1463878E+02  0.7546771E-02  0.1879295E+00
         21   -1    0    0  501  502  0.00000000000E+00  0.00000000000E+00  0.57872701970E+02  0.57872701970E+02  0.00000000000E+00 0.  1.
         21   -1    0    0  502  503 -0.00000000000E+00 -0.00000000000E+00 -0.37170978489E+01  0.37170978489E+01  0.00000000000E+00 0. -1.
          5    1    1    2  501    0  0.12996372327E+02 -0.48268294037E+01  0.28984318617E+02  0.32471290419E+02  0.47000000000E+01 0.  1.
         -5    1    1    2    0  503 -0.12996372327E+02  0.48268294037E+01  0.25171285504E+02  0.29118509400E+02  0.47000000000E+01 0. -1.
<mgrwt>
<rscale>  2 0.14638783E+02</rscale>
<asrwt>0</asrwt>
<pdfrwt beam="1">  1       21 0.89034919E-02 0.14638783E+02</pdfrwt>
<pdfrwt beam="2">  1       21 0.57186125E-03 0.14638783E+02</pdfrwt>
<totfact> 0.46754271E+08</totfact>
</mgrwt>
</event>
<event>
 4    1  0.4144004E+006  0.8627581E+01  0.7546771E-02  0.2162692E+00
         21   -1    0    0  501  502  0.00000000000E+00  0.00000000000E+00  0.99807760965E+01  0.99807760965E+01  0.00000000000E+00 0. -1.
         21   -1    0    0  502  503 -0.00000000000E+00 -0.00000000000E+00 -0.77777399154E+01  0.77777399154E+01  0.00000000000E+00 0.  1.
          5    1    1    2  501    0 -0.62205351935E+01  0.36946024647E+01 -0.69921464091E+00  0.86558677543E+01  0.47000000000E+01 0.  1.
         -5    1    1    2    0  503  0.62205351935E+01 -0.36946024647E+01  0.29022508220E+01  0.91026482575E+01  0.47000000000E+01 0. -1.
<mgrwt>
<rscale>  2 0.86275805E+01</rscale>
<asrwt>0</asrwt>
<pdfrwt beam="1">  1       21 0.15355040E-02 0.86275805E+01</pdfrwt>
<pdfrwt beam="2">  1       21 0.11965754E-02 0.86275805E+01</pdfrwt>
<totfact> 0.17505208E+09</totfact>
</mgrwt>
</event>
<event>
 4    1  0.4144004E+006  0.5539048E+01  0.7546771E-02  0.2479579E+00
         21   -1    0    0  501  502  0.00000000000E+00  0.00000000000E+00  0.23584632991E+03  0.23584632991E+03  0.00000000000E+00 0.  1.
         21   -1    0    0  502  503 -0.00000000000E+00 -0.00000000000E+00 -0.16965701024E+01  0.16965701024E+01  0.00000000000E+00 0. -1.
          5    1    1    2  501    0  0.19514824646E+01 -0.21869539361E+01  0.23120196139E+03  0.23126830307E+03  0.47000000000E+01 0.  1.
         -5    1    1    2    0  503 -0.19514824646E+01  0.21869539361E+01  0.29477984129E+01  0.62745969441E+01  0.47000000000E+01 0. -1.
<mgrwt>
<rscale>  2 0.55390479E+01</rscale>
<asrwt>0</asrwt>
<pdfrwt beam="1">  1       21 0.36284025E-01 0.55390479E+01</pdfrwt>
<pdfrwt beam="2">  1       21 0.26101097E-03 0.55390479E+01</pdfrwt>
<totfact> 0.83597435E+07</totfact>
</mgrwt>
</event>
<event>
 4    1  0.4144004E+006  0.4775951E+01  0.7546771E-02  0.2608503E+00
         21   -1    0    0  503  502  0.00000000000E+00  0.00000000000E+00  0.53727965042E+00  0.53727965042E+00  0.00000000000E+00 0.  1.
         21   -1    0    0  501  503 -0.00000000000E+00 -0.00000000000E+00 -0.14482488394E+03  0.14482488394E+03  0.00000000000E+00 0.  1.
          5    1    1    2  501    0 -0.19062882966E+00  0.82666309294E+00 -0.13325036460E+03  0.13333592681E+03  0.47000000000E+01 0.  1.
         -5    1    1    2    0  502  0.19062882966E+00 -0.82666309294E+00 -0.11037239686E+02  0.12026236781E+02  0.47000000000E+01 0.  1.
<mgrwt>
<rscale>  2 0.47759513E+01</rscale>
<asrwt>0</asrwt>
<pdfrwt beam="1">  1       21 0.82658416E-04 0.47759513E+01</pdfrwt>
<pdfrwt beam="2">  1       21 0.22280749E-01 0.47759513E+01</pdfrwt>
<totfact> 0.77880235E+08</totfact>
</mgrwt>
</event>
<event>
 4    1  0.4144004E+006  0.7161433E+01  0.7546771E-02  0.2285020E+00
         21   -1    0    0  503  502  0.00000000000E+00  0.00000000000E+00  0.12267576573E+02  0.12267576573E+02  0.00000000000E+00 0. -1.
         21   -1    0    0  501  503 -0.00000000000E+00 -0.00000000000E+00 -0.43429305973E+01  0.43429305973E+01  0.00000000000E+00 0. -1.
          5    1    1    2  501    0 -0.53744146194E+01 -0.55837935754E+00  0.23567498695E+01  0.75392565917E+01  0.47000000000E+01 0. -1.
         -5    1    1    2    0  502  0.53744146194E+01  0.55837935754E+00  0.55678961057E+01  0.90712505781E+01  0.47000000000E+01 0. -1.
<mgrwt>
<rscale>  2 0.71614328E+01</rscale>
<asrwt>0</asrwt>
<pdfrwt beam="1">  1       21 0.18873195E-02 0.71614328E+01</pdfrwt>
<pdfrwt beam="2">  1       21 0.66814317E-03 0.71614328E+01</pdfrwt>
<totfact> 0.26067092E+09</totfact>
</mgrwt>
</event>
<event>
 4    1  0.4144004E+006  0.5161160E+01  0.7546771E-02  0.2539334E+00
         21   -1    0    0  503  502  0.00000000000E+00  0.00000000000E+00  0.17207199250E+02  0.17207199250E+02  0.00000000000E+00 0. -1.
         21   -1    0    0  501  503 -0.00000000000E+00 -0.00000000000E+00 -0.25195411136E+01  0.25195411136E+01  0.00000000000E+00 0. -1.
          5    1    1    2  501    0  0.61023016140E+00 -0.20433282873E+01  0.12191341729E+01  0.53031933277E+01  0.47000000000E+01 0. -1.
         -5    1    1    2    0  502 -0.61023016140E+00  0.20433282873E+01  0.13468523964E+02  0.14423547036E+02  0.47000000000E+01 0. -1.
<mgrwt>
<rscale>  2 0.51611599E+01</rscale>
<asrwt>0</asrwt>
<pdfrwt beam="1">  1       21 0.26472614E-02 0.51611599E+01</pdfrwt>
<pdfrwt beam="2">  1       21 0.38762172E-03 0.51611599E+01</pdfrwt>
<totfact> 0.25638935E+09</totfact>
</mgrwt>
</event>
<event>
 4    1  0.4144004E+006  0.4843227E+01  0.7546771E-02  0.2595740E+00
         21   -1    0    0  501  502  0.00000000000E+00  0.00000000000E+00  0.16801519353E+02  0.16801519353E+02  0.00000000000E+00 0. -1.
         21   -1    0    0  502  503 -0.00000000000E+00 -0.00000000000E+00 -0.14117676269E+01  0.14117676269E+01  0.00000000000E+00 0.  1.
          5    1    1    2  501    0  0.67947693992E+00 -0.95139739690E+00  0.67359691748E+01  0.82963923872E+01  0.47000000000E+01 0.  1.
         -5    1    1    2    0  503 -0.67947693992E+00  0.95139739690E+00  0.86537825513E+01  0.99168945927E+01  0.47000000000E+01 0. -1.
<mgrwt>
<rscale>  2 0.48432268E+01</rscale>
<asrwt>0</asrwt>
<pdfrwt beam="1">  1       21 0.25848490E-02 0.48432268E+01</pdfrwt>
<pdfrwt beam="2">  1       21 0.21719503E-03 0.48432268E+01</pdfrwt>
<totfact> 0.54494991E+09</totfact>
</mgrwt>
</event>
<event>
 4    1  0.4144004E+006  0.1026190E+02  0.7546771E-02  0.2060382E+00
         21   -1    0    0  503  502  0.00000000000E+00  0.00000000000E+00  0.42210429390E+01  0.42210429390E+01  0.00000000000E+00 0. -1.
         21   -1    0    0  501  503 -0.00000000000E+00 -0.00000000000E+00 -0.10792548354E+03  0.10792548354E+03  0.00000000000E+00 0.  1.
          5    1    1    2  501    0 -0.13765171707E+01 -0.90178554608E+01 -0.10101925293E+03  0.10153913521E+03  0.47000000000E+01 0.  1.
         -5    1    1    2    0  502  0.13765171707E+01  0.90178554608E+01 -0.26851876664E+01  0.10607391264E+02  0.47000000000E+01 0. -1.
<mgrwt>
<rscale>  2 0.10261896E+02</rscale>
<asrwt>0</asrwt>
<pdfrwt beam="1">  1       21 0.64939125E-03 0.10261896E+02</pdfrwt>
<pdfrwt beam="2">  1       21 0.16603920E-01 0.10261896E+02</pdfrwt>
<totfact> 0.12066420E+08</totfact>
</mgrwt>
</event>
<event>
 4    1  0.4144004E+006  0.6993073E+01  0.7546771E-02  0.2301693E+00
         21   -1    0    0  503  502  0.00000000000E+00  0.00000000000E+00  0.14776125887E+02  0.14776125887E+02  0.00000000000E+00 0.  1.
         21   -1    0    0  501  503 -0.00000000000E+00 -0.00000000000E+00 -0.71583983047E+02  0.71583983047E+02  0.00000000000E+00 0. -1.
          5    1    1    2  501    0  0.42883408025E+01 -0.29022743688E+01 -0.70573981775E+02  0.70919602134E+02  0.47000000000E+01 0. -1.
         -5    1    1    2    0  502 -0.42883408025E+01  0.29022743688E+01  0.13766124614E+02  0.15440506800E+02  0.47000000000E+01 0.  1.
<mgrwt>
<rscale>  2 0.69930725E+01</rscale>
<asrwt>0</asrwt>
<pdfrwt beam="1">  1       21 0.22732501E-02 0.69930725E+01</pdfrwt>
<pdfrwt beam="2">  1       21 0.11012920E-01 0.69930725E+01</pdfrwt>
<totfact> 0.31639411E+07</totfact>
</mgrwt>
</event>
<event>
 4    1  0.4144004E+006  0.5477497E+01  0.7546771E-02  0.2488832E+00
         21   -1    0    0  501  502  0.00000000000E+00  0.00000000000E+00  0.10478140888E+00  0.10478140888E+00  0.00000000000E+00 0. -1.
         21   -1    0    0  502  503 -0.00000000000E+00 -0.00000000000E+00 -0.31439707928E+03  0.31439707928E+03  0.00000000000E+00 0. -1.
          5    1    1    2  501    0 -0.90378248885E+00 -0.26638602616E+01 -0.11016916565E+03  0.11030524935E+03  0.47000000000E+01 0. -1.
         -5    1    1    2    0  503  0.90378248885E+00  0.26638602616E+01 -0.20412313223E+03  0.20419661134E+03  0.47000000000E+01 0. -1.
<mgrwt>
<rscale>  2 0.54774971E+01</rscale>
<asrwt>0</asrwt>
<pdfrwt beam="1">  1       21 0.16120287E-04 0.54774971E+01</pdfrwt>
<pdfrwt beam="2">  1       21 0.48368569E-01 0.54774971E+01</pdfrwt>
<totfact> 0.20775249E+09</totfact>
</mgrwt>
</event>
<event>
 4    1  0.4144004E+006  0.4852444E+01  0.7546771E-02  0.2594015E+00
         21   -1    0    0  503  502  0.00000000000E+00  0.00000000000E+00  0.13859151785E+00  0.13859151785E+00  0.00000000000E+00 0. -1.
         21   -1    0    0  501  503 -0.00000000000E+00 -0.00000000000E+00 -0.10532094815E+04  0.10532094815E+04  0.00000000000E+00 0. -1.
          5    1    1    2  501    0  0.11738066701E+01  0.27998004399E+00 -0.10088627417E+04  0.10088744113E+04  0.47000000000E+01 0. -1.
         -5    1    1    2    0  502 -0.11738066701E+01 -0.27998004399E+00 -0.44208148261E+02  0.44473661684E+02  0.47000000000E+01 0. -1.
<mgrwt>
<rscale>  2 0.48524438E+01</rscale>
<asrwt>0</asrwt>
<pdfrwt beam="1">  1       21 0.21321145E-04 0.48524438E+01</pdfrwt>
<pdfrwt beam="2">  1       21 0.16203699E+00 0.48524438E+01</pdfrwt>
<totfact> 0.12276258E+08</totfact>
</mgrwt>
</event>
<event>
 4    1  0.4144004E+006  0.5012526E+01  0.7546771E-02  0.2564936E+00
         21   -1    0    0  503  502  0.00000000000E+00  0.00000000000E+00  0.30031170767E+02  0.30031170767E+02  0.00000000000E+00 0. -1.
         21   -1    0    0  501  503 -0.00000000000E+00 -0.00000000000E+00 -0.13062718705E+01  0.13062718705E+01  0.00000000000E+00 0. -1.
          5    1    1    2  501    0 -0.93633614950E+00 -0.14692493134E+01  0.23757376036E+02  0.24280410520E+02  0.47000000000E+01 0. -1.
         -5    1    1    2    0  502  0.93633614950E+00  0.14692493134E+01  0.49675228607E+01  0.70570321171E+01  0.47000000000E+01 0. -1.
<mgrwt>
<rscale>  2 0.50125262E+01</rscale>
<asrwt>0</asrwt>
<pdfrwt beam="1">  1       21 0.46201796E-02 0.50125262E+01</pdfrwt>
<pdfrwt beam="2">  1       21 0.20096493E-03 0.50125262E+01</pdfrwt>
<totfact> 0.27165061E+09</totfact>
</mgrwt>
</event>
<event>
 4    1  0.4144004E+006  0.5186778E+01  0.7546771E-02  0.2535049E+00
         21   -1    0    0  503  502  0.00000000000E+00  0.00000000000E+00  0.68980604041E+01  0.68980604041E+01  0.00000000000E+00 0.  1.
         21   -1    0    0  501  503 -0.00000000000E+00 -0.00000000000E+00 -0.39133306707E+01  0.39133306707E+01  0.00000000000E+00 0.  1.
          5    1    1    2  501    0 -0.18367461881E+01 -0.11995947318E+01  0.18074762124E+01  0.54926891718E+01  0.47000000000E+01 0.  1.
         -5    1    1    2    0  502  0.18367461881E+01  0.11995947318E+01  0.11772535210E+01  0.53187019030E+01  0.47000000000E+01 0.  1.
<mgrwt>
<rscale>  2 0.51867778E+01</rscale>
<asrwt>0</asrwt>
<pdfrwt beam="1">  1       21 0.10612401E-02 0.51867778E+01</pdfrwt>
<pdfrwt beam="2">  1       21 0.60205087E-03 0.51867778E+01</pdfrwt>
<totfact> 0.51287039E+09</totfact>
</mgrwt>
</event>
<event>
 4    1  0.4144004E+006  0.1363102E+02  0.7546771E-02  0.1912964E+00
         21   -1    0    0  503  502  0.00000000000E+00  0.00000000000E+00  0.20025137699E+00  0.20025137699E+00  0.00000000000E+00 0.  1.
         21   -1    0    0  501  503 -0.00000000000E+00 -0.00000000000E+00 -0.19528676865E+04  0.19528676865E+04  0.00000000000E+00 0. -1.
          5    1    1    2  501    0  0.97920476898E+01  0.82359218503E+01 -0.16838153661E+04  0.16838705389E+04  0.47000000000E+01 0. -1.
         -5    1    1    2    0  502 -0.97920476898E+01 -0.82359218503E+01 -0.26885206901E+03  0.26919739898E+03  0.47000000000E+01 0.  1.
<mgrwt>
<rscale>  2 0.13631016E+02</rscale>
<asrwt>0</asrwt>
<pdfrwt beam="1">  1       21 0.30807467E-04 0.13631016E+02</pdfrwt>
<pdfrwt beam="2">  1       21 0.30044545E+00 0.13631016E+02</pdfrwt>
<totfact> 0.24311089E+07</totfact>
</mgrwt>
</event>
<event>
 4    1  0.4144004E+006  0.5405917E+01  0.7546771E-02  0.2499818E+00
         21   -1    0    0  501  502  0.00000000000E+00  0.00000000000E+00  0.55247824603E+01  0.55247824603E+01  0.00000000000E+00 0.  1.
         21   -1    0    0  502  503 -0.00000000000E+00 -0.00000000000E+00 -0.83502838711E+01  0.83502838711E+01  0.00000000000E+00 0.  1.
          5    1    1    2  501    0  0.12532639069E+01  0.23586571615E+01  0.27873829983E+01  0.60822231137E+01  0.47000000000E+01 0.  1.
         -5    1    1    2    0  503 -0.12532639069E+01 -0.23586571615E+01 -0.56128844091E+01  0.77928432177E+01  0.47000000000E+01 0.  1.
<mgrwt>
<rscale>  2 0.54059166E+01</rscale>
<asrwt>0</asrwt>
<pdfrwt beam="1">  1       21 0.84996653E-03 0.54059166E+01</pdfrwt>
<pdfrwt beam="2">  1       21 0.12846591E-02 0.54059166E+01</pdfrwt>
<totfact> 0.25322261E+09</totfact>
</mgrwt>
</event>
<event>
 4    1  0.4144004E+006  0.5429847E+01  0.7546771E-02  0.2496118E+00
         21   -1    0    0  503  502  0.00000000000E+00  0.00000000000E+00  0.20143590581E+00  0.20143590581E+00  0.00000000000E+00 0.  1.
         21   -1    0    0  501  503 -0.00000000000E+00 -0.00000000000E+00 -0.34506017205E+03  0.34506017205E+03  0.00000000000E+00 0. -1.
          5    1    1    2  501    0 -0.16804096941E+01 -0.21376309942E+01 -0.30342720283E+03  0.30347578266E+03  0.47000000000E+01 0. -1.
         -5    1    1    2    0  502  0.16804096941E+01  0.21376309942E+01 -0.41431533318E+02  0.41785825301E+02  0.47000000000E+01 0.  1.
<mgrwt>
<rscale>  2 0.54298474E+01</rscale>
<asrwt>0</asrwt>
<pdfrwt beam="1">  1       21 0.30990625E-04 0.54298474E+01</pdfrwt>
<pdfrwt beam="2">  1       21 0.53085348E-01 0.54298474E+01</pdfrwt>
<totfact> 0.73293176E+08</totfact>
</mgrwt>
</event>
<event>
 4    1  0.4144004E+006  0.4906312E+01  0.7546771E-02  0.2584047E+00
         21   -1    0    0  503  502  0.00000000000E+00  0.00000000000E+00  0.12382275061E+02  0.12382275061E+02  0.00000000000E+00 0. -1.
         21   -1    0    0  501  503 -0.00000000000E+00 -0.00000000000E+00 -0.24119067735E+01  0.24119067735E+01  0.00000000000E+00 0.  1.
          5    1    1    2  501    0  0.13910933267E+01 -0.21622796349E+00  0.17273260711E+01  0.52014950285E+01  0.47000000000E+01 0.  1.
         -5    1    1    2    0  502 -0.13910933267E+01  0.21622796349E+00  0.82430422160E+01  0.95926868056E+01  0.47000000000E+01 0. -1.
<mgrwt>
<rscale>  2 0.49063118E+01</rscale>
<asrwt>0</asrwt>
<pdfrwt beam="1">  1       21 0.19049654E-02 0.49063118E+01</pdfrwt>
<pdfrwt beam="2">  1       21 0.37106259E-03 0.49063118E+01</pdfrwt>
<totfact> 0.41267801E+09</totfact>
</mgrwt>
</event>
<event>
 4    1  0.4144004E+006  0.7593539E+01  0.7546771E-02  0.2245014E+00
         21   -1    0    0  501  502  0.00000000000E+00  0.00000000000E+00  0.12411648855E+02  0.12411648855E+02  0.00000000000E+00 0.  1.
         21   -1    0    0  502  503 -0.00000000000E+00 -0.00000000000E+00 -0.46540940419E+01  0.46540940419E+01  0.00000000000E+00 0. -1.
          5    1    1    2  501    0  0.59641341499E+01  0.30701056741E-01  0.35182143456E+01  0.83689707190E+01  0.47000000000E+01 0. -1.
         -5    1    1    2    0  503 -0.59641341499E+01 -0.30701056741E-01  0.42393404672E+01  0.86967721777E+01  0.47000000000E+01 0.  1.
<mgrwt>
<rscale>  2 0.75935393E+01</rscale>
<asrwt>0</asrwt>
<pdfrwt beam="1">  1       21 0.19094844E-02 0.75935393E+01</pdfrwt>
<pdfrwt beam="2">  1       21 0.71601447E-03 0.75935393E+01</pdfrwt>
<totfact> 0.24304060E+09</totfact>
</mgrwt>
</event>
<event>
 4    1  0.4144004E+006  0.5800901E+01  0.7546771E-02  0.2442080E+00
         21   -1    0    0  501  502  0.00000000000E+00  0.00000000000E+00  0.53926238733E+02  0.53926238733E+02  0.00000000000E+00 0. -1.
         21   -1    0    0  502  503 -0.00000000000E+00 -0.00000000000E+00 -0.29071447177E+01  0.29071447177E+01  0.00000000000E+00 0.  1.
          5    1    1    2  501    0 -0.17645346148E+00 -0.33954852474E+01  0.50692465426E+02  0.51023293767E+02  0.47000000000E+01 0. -1.
         -5    1    1    2    0  503  0.17645346148E+00  0.33954852474E+01  0.32662858878E+00  0.58100896830E+01  0.47000000000E+01 0.  1.
<mgrwt>
<rscale>  2 0.58009013E+01</rscale>
<asrwt>0</asrwt>
<pdfrwt beam="1">  1       21 0.82963437E-02 0.58009013E+01</pdfrwt>
<pdfrwt beam="2">  1       21 0.44725307E-03 0.58009013E+01</pdfrwt>
<totfact> 0.43495599E+08</totfact>
</mgrwt>
</event>
<event>
 4    1  0.4144004E+006  0.5847721E+01  0.7546771E-02  0.2435674E+00
         21   -1    0    0  501  502  0.00000000000E+00  0.00000000000E+00  0.22449227886E+00  0.22449227886E+00  0.00000000000E+00 0. -1.
         21   -1    0    0  502  503 -0.00000000000E+00 -0.00000000000E+00 -0.16722769071E+03  0.16722769071E+03  0.00000000000E+00 0. -1.
          5    1    1    2  501    0  0.19199406470E+01  0.29016659649E+01 -0.58507600098E+02  0.58799108043E+02  0.47000000000E+01 0. -1.
         -5    1    1    2    0  503 -0.19199406470E+01 -0.29016659649E+01 -0.10849559833E+03  0.10865307494E+03  0.47000000000E+01 0. -1.
<mgrwt>
<rscale>  2 0.58477207E+01</rscale>
<asrwt>0</asrwt>
<pdfrwt beam="1">  1       21 0.34537287E-04 0.58477207E+01</pdfrwt>
<pdfrwt beam="2">  1       21 0.25727327E-01 0.58477207E+01</pdfrwt>
<totfact> 0.23419799E+09</totfact>
</mgrwt>
</event>
<event>
 4    1  0.4144004E+006  0.1087195E+02  0.7546771E-02  0.2028515E+00
         21   -1    0    0  503  502  0.00000000000E+00  0.00000000000E+00  0.26425609614E+01  0.26425609614E+01  0.00000000000E+00 0.  1.
         21   -1    0    0  501  503 -0.00000000000E+00 -0.00000000000E+00 -0.46000129542E+02  0.46000129542E+02  0.00000000000E+00 0. -1.
          5    1    1    2  501    0 -0.20135960101E+01  0.95945191385E+01 -0.25721622368E+02  0.27924921193E+02  0.47000000000E+01 0.  1.
         -5    1    1    2    0  502  0.20135960101E+01 -0.95945191385E+01 -0.17635946212E+02  0.20717769310E+02  0.47000000000E+01 0. -1.
<mgrwt>
<rscale>  2 0.10871953E+02</rscale>
<asrwt>0</asrwt>
<pdfrwt beam="1">  1       21 0.40654789E-03 0.10871953E+02</pdfrwt>
<pdfrwt beam="2">  1       21 0.70769421E-02 0.10871953E+02</pdfrwt>
<totfact> 0.95253075E+08</totfact>
</mgrwt>
</event>
<event>
 4    1  0.4144004E+006  0.5317701E+01  0.7546771E-02  0.2513702E+00
         21   -1    0    0  501  502  0.00000000000E+00  0.00000000000E+00  0.20665750803E+00  0.20665750803E+00  0.00000000000E+00 0. -1.
         21   -1    0    0  502  503 -0.00000000000E+00 -0.00000000000E+00 -0.15650146839E+03  0.15650146839E+03  0.00000000000E+00 0. -1.
          5    1    1    2  501    0  0.94936632465E-02 -0.24875402264E+01 -0.50371559324E+02  0.50651475154E+02  0.47000000000E+01 0. -1.
         -5    1    1    2    0  503 -0.94936632465E-02  0.24875402264E+01 -0.10592325156E+03  0.10605665075E+03  0.47000000000E+01 0. -1.
<mgrwt>
<rscale>  2 0.53177012E+01</rscale>
<asrwt>0</asrwt>
<pdfrwt beam="1">  1       21 0.31793460E-04 0.53177012E+01</pdfrwt>
<pdfrwt beam="2">  1       21 0.24077151E-01 0.53177012E+01</pdfrwt>
<totfact> 0.26874611E+09</totfact>
</mgrwt>
</event>
<event>
 4    1  0.4144004E+006  0.4704876E+01  0.7546771E-02  0.2622332E+00
         21   -1    0    0  503  502  0.00000000000E+00  0.00000000000E+00  0.13229010605E+00  0.13229010605E+00  0.00000000000E+00 0. -1.
         21   -1    0    0  501  503 -0.00000000000E+00 -0.00000000000E+00 -0.28935146949E+03  0.28935146949E+03  0.00000000000E+00 0. -1.
          5    1    1    2  501    0  0.78646382378E-01 -0.19917319423E+00 -0.50615006350E+02  0.50833204925E+02  0.47000000000E+01 0. -1.
         -5    1    1    2    0  502 -0.78646382378E-01  0.19917319423E+00 -0.23860417303E+03  0.23865055467E+03  0.47000000000E+01 0. -1.
<mgrwt>
<rscale>  2 0.47048757E+01</rscale>
<asrwt>0</asrwt>
<pdfrwt beam="1">  1       21 0.20352366E-04 0.47048757E+01</pdfrwt>
<pdfrwt beam="2">  1       21 0.44515520E-01 0.47048757E+01</pdfrwt>
<totfact> 0.15478276E+09</totfact>
</mgrwt>
</event>
<event>
 4    1  0.4144004E+006  0.6042515E+01  0.7546771E-02  0.2409923E+00
         21   -1    0    0  503  502  0.00000000000E+00  0.00000000000E+00  0.12443163494E+03  0.12443163494E+03  0.00000000000E+00 0. -1.
         21   -1    0    0  501  503 -0.00000000000E+00 -0.00000000000E+00 -0.69762716604E+00  0.69762716604E+00  0.00000000000E+00 0.  1.
          5    1    1    2  501    0 -0.37761243794E+01  0.40357341214E+00  0.14244330096E+02  0.15472974075E+02  0.47000000000E+01 0.  1.
         -5    1    1    2    0  502  0.37761243794E+01 -0.40357341214E+00  0.10948967768E+03  0.10965628804E+03  0.47000000000E+01 0. -1.
<mgrwt>
<rscale>  2 0.60425149E+01</rscale>
<asrwt>0</asrwt>
<pdfrwt beam="1">  1       21 0.19143311E-01 0.60425149E+01</pdfrwt>
<pdfrwt beam="2">  1       21 0.10732736E-03 0.60425149E+01</pdfrwt>
<totfact> 0.85330669E+08</totfact>
</mgrwt>
</event>
<event>
 4    1  0.4144004E+006  0.8234317E+01  0.7546771E-02  0.2192037E+00
         21   -1    0    0  501  502  0.00000000000E+00  0.00000000000E+00  0.19236698740E+01  0.19236698740E+01  0.00000000000E+00 0. -1.
         21   -1    0    0  502  503 -0.00000000000E+00 -0.00000000000E+00 -0.57309085762E+02  0.57309085762E+02  0.00000000000E+00 0.  1.
          5    1    1    2  501    0  0.44893972880E+01 -0.50556189240E+01 -0.93171071052E+01  0.12434325696E+02  0.47000000000E+01 0. -1.
         -5    1    1    2    0  503 -0.44893972880E+01  0.50556189240E+01 -0.46068308783E+02  0.46798429940E+02  0.47000000000E+01 0.  1.
<mgrwt>
<rscale>  2 0.82343167E+01</rscale>
<asrwt>0</asrwt>
<pdfrwt beam="1">  1       21 0.29594920E-03 0.82343167E+01</pdfrwt>
<pdfrwt beam="2">  1       21 0.88167826E-02 0.82343167E+01</pdfrwt>
<totfact> 0.89833213E+08</totfact>
</mgrwt>
</event>
<event>
 4    1  0.4144004E+006  0.5516560E+01  0.7546771E-02  0.2482939E+00
         21   -1    0    0  501  502  0.00000000000E+00  0.00000000000E+00  0.49744234661E+01  0.49744234661E+01  0.00000000000E+00 0.  1.
         21   -1    0    0  502  503 -0.00000000000E+00 -0.00000000000E+00 -0.81132693503E+01  0.81132693503E+01  0.00000000000E+00 0.  1.
          5    1    1    2  501    0  0.59219406089E+00 -0.28269670397E+01  0.16759131612E+01  0.57655113714E+01  0.47000000000E+01 0.  1.
         -5    1    1    2    0  503 -0.59219406089E+00  0.28269670397E+01 -0.48147590454E+01  0.73221814451E+01  0.47000000000E+01 0.  1.
<mgrwt>
<rscale>  2 0.55165602E+01</rscale>
<asrwt>0</asrwt>
<pdfrwt beam="1">  1       21 0.76529593E-03 0.55165602E+01</pdfrwt>
<pdfrwt beam="2">  1       21 0.12481953E-02 0.55165602E+01</pdfrwt>
<totfact> 0.31118526E+09</totfact>
</mgrwt>
</event>
<event>
 4    1  0.4144004E+006  0.8698417E+01  0.7546771E-02  0.2157632E+00
         21   -1    0    0  501  502  0.00000000000E+00  0.00000000000E+00  0.12824492159E+00  0.12824492159E+00  0.00000000000E+00 0. -1.
         21   -1    0    0  502  503 -0.00000000000E+00 -0.00000000000E+00 -0.62536041412E+03  0.62536041412E+03  0.00000000000E+00 0.  1.
          5    1    1    2  501    0 -0.66708903827E+01 -0.30119224457E+01 -0.23823183468E+03  0.23839058184E+03  0.47000000000E+01 0.  1.
         -5    1    1    2    0  503  0.66708903827E+01  0.30119224457E+01 -0.38700033451E+03  0.38709807720E+03  0.47000000000E+01 0. -1.
<mgrwt>
<rscale>  2 0.86984168E+01</rscale>
<asrwt>0</asrwt>
<pdfrwt beam="1">  1       21 0.19729621E-04 0.86984168E+01</pdfrwt>
<pdfrwt beam="2">  1       21 0.96211083E-01 0.86984168E+01</pdfrwt>
<totfact> 0.57567143E+08</totfact>
</mgrwt>
</event>
<event>
 4    1  0.4144004E+006  0.6107036E+01  0.7546771E-02  0.2401698E+00
         21   -1    0    0  503  502  0.00000000000E+00  0.00000000000E+00  0.53631897522E+01  0.53631897522E+01  0.00000000000E+00 0.  1.
         21   -1    0    0  501  503 -0.00000000000E+00 -0.00000000000E+00 -0.70748399332E+01  0.70748399332E+01  0.00000000000E+00 0. -1.
          5    1    1    2  501    0  0.38892417206E+01 -0.28228477125E+00 -0.43219243581E-01  0.61071886950E+01  0.47000000000E+01 0.  1.
         -5    1    1    2    0  502 -0.38892417206E+01  0.28228477125E+00 -0.16684309374E+01  0.63308409905E+01  0.47000000000E+01 0. -1.
<mgrwt>
<rscale>  2 0.61070358E+01</rscale>
<asrwt>0</asrwt>
<pdfrwt beam="1">  1       21 0.82510612E-03 0.61070358E+01</pdfrwt>
<pdfrwt beam="2">  1       21 0.10884369E-02 0.61070358E+01</pdfrwt>
<totfact> 0.37293850E+09</totfact>
</mgrwt>
</event>
<event>
 4    1  0.4144004E+006  0.1018484E+02  0.7546771E-02  0.2064618E+00
         21   -1    0    0  501  502  0.00000000000E+00  0.00000000000E+00  0.68431435626E+00  0.68431435626E+00  0.00000000000E+00 0. -1.
         21   -1    0    0  502  503 -0.00000000000E+00 -0.00000000000E+00 -0.24232331937E+03  0.24232331937E+03  0.00000000000E+00 0.  1.
          5    1    1    2  501    0 -0.10002351566E+01  0.89800042261E+01 -0.46467847799E+02  0.47570913649E+02  0.47000000000E+01 0. -1.
         -5    1    1    2    0  503  0.10002351566E+01 -0.89800042261E+01 -0.19517115722E+03  0.19543672008E+03  0.47000000000E+01 0.  1.
<mgrwt>
<rscale>  2 0.10184839E+02</rscale>
<asrwt>0</asrwt>
<pdfrwt beam="1">  1       21 0.10527898E-03 0.10184839E+02</pdfrwt>
<pdfrwt beam="2">  1       21 0.37280563E-01 0.10184839E+02</pdfrwt>
<totfact> 0.38971845E+08</totfact>
</mgrwt>
</event>
<event>
 4    1  0.4144004E+006  0.1284542E+02  0.7546771E-02  0.1941953E+00
         21   -1    0    0  503  502  0.00000000000E+00  0.00000000000E+00  0.62114017760E+00  0.62114017760E+00  0.00000000000E+00 0. -1.
         21   -1    0    0  501  503 -0.00000000000E+00 -0.00000000000E+00 -0.36616815539E+03  0.36616815539E+03  0.00000000000E+00 0.  1.
          5    1    1    2  501    0 -0.11647354795E+02  0.26933291648E+01 -0.27886215450E+03  0.27915785159E+03  0.47000000000E+01 0.  1.
         -5    1    1    2    0  502  0.11647354795E+02 -0.26933291648E+01 -0.86684860717E+02  0.87631443975E+02  0.47000000000E+01 0. -1.
<mgrwt>
<rscale>  2 0.12845423E+02</rscale>
<asrwt>0</asrwt>
<pdfrwt beam="1">  1       21 0.95560205E-04 0.12845423E+02</pdfrwt>
<pdfrwt beam="2">  1       21 0.56333458E-01 0.12845423E+02</pdfrwt>
<totfact> 0.22947789E+08</totfact>
</mgrwt>
</event>
<event>
 4    1  0.4144004E+006  0.4702983E+01  0.7546771E-02  0.2622705E+00
         21   -1    0    0  501  502  0.00000000000E+00  0.00000000000E+00  0.17848844478E+03  0.17848844478E+03  0.00000000000E+00 0. -1.
         21   -1    0    0  502  503 -0.00000000000E+00 -0.00000000000E+00 -0.12793826530E+00  0.12793826530E+00  0.00000000000E+00 0. -1.
          5    1    1    2  501    0 -0.72684674577E-01  0.15087044412E+00  0.10501036448E+03  0.10511562535E+03  0.47000000000E+01 0.  1.
         -5    1    1    2    0  503  0.72684674577E-01 -0.15087044412E+00  0.73350142031E+02  0.73500757689E+02  0.47000000000E+01 0.  1.
<mgrwt>
<rscale>  2 0.47029826E+01</rscale>
<asrwt>0</asrwt>
<pdfrwt beam="1">  1       21 0.27459562E-01 0.47029826E+01</pdfrwt>
<pdfrwt beam="2">  1       21 0.19682953E-04 0.47029826E+01</pdfrwt>
<totfact> 0.36445989E+09</totfact>
</mgrwt>
</event>
<event>
 4    1  0.4144004E+006  0.1417382E+02  0.7546771E-02  0.1894379E+00
         21   -1    0    0  503  502  0.00000000000E+00  0.00000000000E+00  0.44656336683E+01  0.44656336683E+01  0.00000000000E+00 0. -1.
         21   -1    0    0  501  503 -0.00000000000E+00 -0.00000000000E+00 -0.49026735215E+02  0.49026735215E+02  0.00000000000E+00 0.  1.
          5    1    1    2  501    0  0.69537660482E+01  0.11421577628E+02 -0.29957694975E+02  0.33141526610E+02  0.47000000000E+01 0.  1.
         -5    1    1    2    0  502 -0.69537660482E+01 -0.11421577628E+02 -0.14603406571E+02  0.20350842274E+02  0.47000000000E+01 0. -1.
<mgrwt>
<rscale>  2 0.14173824E+02</rscale>
<asrwt>0</asrwt>
<pdfrwt beam="1">  1       21 0.68702058E-03 0.14173824E+02</pdfrwt>
<pdfrwt beam="2">  1       21 0.75425745E-02 0.14173824E+02</pdfrwt>
<totfact> 0.46022423E+08</totfact>
</mgrwt>
</event>
<event>
 4    1  0.4144004E+006  0.4964910E+01  0.7546771E-02  0.2573417E+00
         21   -1    0    0  501  502  0.00000000000E+00  0.00000000000E+00  0.12593958914E+03  0.12593958914E+03  0.00000000000E+00 0. -1.
         21   -1    0    0  502  503 -0.00000000000E+00 -0.00000000000E+00 -0.20064315720E+00  0.20064315720E+00  0.00000000000E+00 0.  1.
          5    1    1    2  501    0 -0.96830418355E+00  0.12738605155E+01  0.72737478221E+02  0.72906728575E+02  0.47000000000E+01 0. -1.
         -5    1    1    2    0  503  0.96830418355E+00 -0.12738605155E+01  0.53001467767E+02  0.53233503727E+02  0.47000000000E+01 0.  1.
<mgrwt>
<rscale>  2 0.49649102E+01</rscale>
<asrwt>0</asrwt>
<pdfrwt beam="1">  1       21 0.19375258E-01 0.49649102E+01</pdfrwt>
<pdfrwt beam="2">  1       21 0.30868279E-04 0.49649102E+01</pdfrwt>
<totfact> 0.37152798E+09</totfact>
</mgrwt>
</event>
<event>
 4    1  0.4144004E+006  0.1028354E+02  0.7546771E-02  0.2059202E+00
         21   -1    0    0  503  502  0.00000000000E+00  0.00000000000E+00  0.62533268546E+01  0.62533268546E+01  0.00000000000E+00 0.  1.
         21   -1    0    0  501  503 -0.00000000000E+00 -0.00000000000E+00 -0.20992511952E+02  0.20992511952E+02  0.00000000000E+00 0. -1.
          5    1    1    2  501    0  0.56881601125E+01 -0.71628161962E+01 -0.13376338130E+02  0.16872389372E+02  0.47000000000E+01 0. -1.
         -5    1    1    2    0  502 -0.56881601125E+01  0.71628161962E+01 -0.13628469670E+01  0.10373449435E+02  0.47000000000E+01 0.  1.
<mgrwt>
<rscale>  2 0.10283535E+02</rscale>
<asrwt>0</asrwt>
<pdfrwt beam="1">  1       21 0.96205027E-03 0.10283535E+02</pdfrwt>
<pdfrwt beam="2">  1       21 0.32296173E-02 0.10283535E+02</pdfrwt>
<totfact> 0.89074847E+08</totfact>
</mgrwt>
</event>
<event>
 4    1  0.4144004E+006  0.1239991E+02  0.7546771E-02  0.1959627E+00
         21   -1    0    0  503  502  0.00000000000E+00  0.00000000000E+00  0.70398205182E+00  0.70398205182E+00  0.00000000000E+00 0.  1.
         21   -1    0    0  501  503 -0.00000000000E+00 -0.00000000000E+00 -0.32014171589E+03  0.32014171589E+03  0.00000000000E+00 0. -1.
          5    1    1    2  501    0 -0.72348333151E+01 -0.89064552370E+01 -0.25015044884E+03  0.25045759084E+03  0.47000000000E+01 0. -1.
         -5    1    1    2    0  502  0.72348333151E+01  0.89064552370E+01 -0.69287284999E+02  0.70388107096E+02  0.47000000000E+01 0.  1.
<mgrwt>
<rscale>  2 0.12399910E+02</rscale>
<asrwt>0</asrwt>
<pdfrwt beam="1">  1       21 0.10830490E-03 0.12399910E+02</pdfrwt>
<pdfrwt beam="2">  1       21 0.49252586E-01 0.12399910E+02</pdfrwt>
<totfact> 0.24537562E+08</totfact>
</mgrwt>
</event>
<event>
 4    1  0.4144004E+006  0.7263393E+01  0.7546771E-02  0.2275232E+00
         21   -1    0    0  501  502  0.00000000000E+00  0.00000000000E+00  0.44846131038E+02  0.44846131038E+02  0.00000000000E+00 0. -1.
         21   -1    0    0  502  503 -0.00000000000E+00 -0.00000000000E+00 -0.12125196371E+01  0.12125196371E+01  0.00000000000E+00 0.  1.
          5    1    1    2  501    0  0.23294064378E+01  0.50240161609E+01  0.25791685859E+02  0.26794923627E+02  0.47000000000E+01 0. -1.
         -5    1    1    2    0  503 -0.23294064378E+01 -0.50240161609E+01  0.17841925542E+02  0.19263727048E+02  0.47000000000E+01 0.  1.
<mgrwt>
<rscale>  2 0.72633926E+01</rscale>
<asrwt>0</asrwt>
<pdfrwt beam="1">  1       21 0.68994035E-02 0.72633926E+01</pdfrwt>
<pdfrwt beam="2">  1       21 0.18654152E-03 0.72633926E+01</pdfrwt>
<totfact> 0.22775044E+09</totfact>
</mgrwt>
</event>
<event>
 4    1  0.4144004E+006  0.6274108E+01  0.7546771E-02  0.2381057E+00
         21   -1    0    0  501  502  0.00000000000E+00  0.00000000000E+00  0.11961495171E+01  0.11961495171E+01  0.00000000000E+00 0.  1.
         21   -1    0    0  502  503 -0.00000000000E+00 -0.00000000000E+00 -0.36588424052E+02  0.36588424052E+02  0.00000000000E+00 0. -1.
          5    1    1    2  501    0  0.74973135570E+00 -0.40880719523E+01 -0.11705326803E+02  0.13280779531E+02  0.47000000000E+01 0. -1.
         -5    1    1    2    0  503 -0.74973135570E+00  0.40880719523E+01 -0.23686947732E+02  0.24503794038E+02  0.47000000000E+01 0. -1.
<mgrwt>
<rscale>  2 0.62741079E+01</rscale>
<asrwt>0</asrwt>
<pdfrwt beam="1">  1       21 0.18402300E-03 0.62741079E+01</pdfrwt>
<pdfrwt beam="2">  1       21 0.56289883E-02 0.62741079E+01</pdfrwt>
<totfact> 0.28095355E+09</totfact>
</mgrwt>
</event>
<event>
 4    1  0.4144004E+006  0.1037350E+02  0.7546771E-02  0.2054334E+00
         21   -1    0    0  501  502  0.00000000000E+00  0.00000000000E+00  0.75868439398E+00  0.75868439398E+00  0.00000000000E+00 0. -1.
         21   -1    0    0  502  503 -0.00000000000E+00 -0.00000000000E+00 -0.14505609399E+03  0.14505609399E+03  0.00000000000E+00 0.  1.
          5    1    1    2  501    0 -0.29245397972E+01  0.87730651955E+01 -0.61287885194E+02  0.62159588782E+02  0.47000000000E+01 0.  1.
         -5    1    1    2    0  503  0.29245397972E+01 -0.87730651955E+01 -0.83009524399E+02  0.83655189600E+02  0.47000000000E+01 0.  1.
<mgrwt>
<rscale>  2 0.10373505E+02</rscale>
<asrwt>0</asrwt>
<pdfrwt beam="1">  1       21 0.11672066E-03 0.10373505E+02</pdfrwt>
<pdfrwt beam="2">  1       21 0.22316325E-01 0.10373505E+02</pdfrwt>
<totfact> 0.83273145E+08</totfact>
</mgrwt>
</event>
<event>
 4    1  0.4144004E+006  0.4827517E+01  0.7546771E-02  0.2598693E+00
         21   -1    0    0  503  502  0.00000000000E+00  0.00000000000E+00  0.88450268880E+02  0.88450268880E+02  0.00000000000E+00 0.  1.
         21   -1    0    0  501  503 -0.00000000000E+00 -0.00000000000E+00 -0.56907563339E+00  0.56907563339E+00  0.00000000000E+00 0.  1.
          5    1    1    2  501    0  0.86726360250E+00  0.68027274523E+00  0.11323699076E+02  0.12309796015E+02  0.47000000000E+01 0.  1.
         -5    1    1    2    0  502 -0.86726360250E+00 -0.68027274523E+00  0.76557494171E+02  0.76709548498E+02  0.47000000000E+01 0.  1.
<mgrwt>
<rscale>  2 0.48275167E+01</rscale>
<asrwt>0</asrwt>
<pdfrwt beam="1">  1       21 0.13607723E-01 0.48275167E+01</pdfrwt>
<pdfrwt beam="2">  1       21 0.87550168E-04 0.48275167E+01</pdfrwt>
<totfact> 0.15794140E+09</totfact>
</mgrwt>
</event>
<event>
 4    1  0.4144004E+006  0.5620713E+01  0.7546771E-02  0.2467568E+00
         21   -1    0    0  501  502  0.00000000000E+00  0.00000000000E+00  0.78967791226E+00  0.78967791226E+00  0.00000000000E+00 0.  1.
         21   -1    0    0  502  503 -0.00000000000E+00 -0.00000000000E+00 -0.50914706473E+02  0.50914706473E+02  0.00000000000E+00 0.  1.
          5    1    1    2  501    0  0.14793599416E+00 -0.30790460180E+01 -0.13096530933E+02  0.14251720314E+02  0.47000000000E+01 0.  1.
         -5    1    1    2    0  503 -0.14793599416E+00  0.30790460180E+01 -0.37028497627E+02  0.37452664071E+02  0.47000000000E+01 0.  1.
<mgrwt>
<rscale>  2 0.56207125E+01</rscale>
<asrwt>0</asrwt>
<pdfrwt beam="1">  1       21 0.12148892E-03 0.56207125E+01</pdfrwt>
<pdfrwt beam="2">  1       21 0.78330310E-02 0.56207125E+01</pdfrwt>
<totfact> 0.27269290E+09</totfact>
</mgrwt>
</event>
<event>
 4    1  0.4144004E+006  0.1130160E+02  0.7546771E-02  0.2007694E+00
         21   -1    0    0  503  502  0.00000000000E+00  0.00000000000E+00  0.54606040763E+03  0.54606040763E+03  0.00000000000E+00 0. -1.
         21   -1    0    0  501  503 -0.00000000000E+00 -0.00000000000E+00 -0.31564952418E+00  0.31564952418E+00  0.00000000000E+00 0.  1.
          5    1    1    2  501    0  0.10071891525E+02  0.20477214831E+01  0.13384865945E+03  0.13432494109E+03  0.47000000000E+01 0.  1.
         -5    1    1    2    0  502 -0.10071891525E+02 -0.20477214831E+01  0.41189609865E+03  0.41205111606E+03  0.47000000000E+01 0. -1.
<mgrwt>
<rscale>  2 0.11301600E+02</rscale>
<asrwt>0</asrwt>
<pdfrwt beam="1">  1       21 0.84008538E-01 0.11301600E+02</pdfrwt>
<pdfrwt beam="2">  1       21 0.48561902E-04 0.11301600E+02</pdfrwt>
<totfact> 0.25174079E+08</totfact>
</mgrwt>
</event>
<event>
 4    1  0.4144004E+006  0.5735203E+01  0.7546771E-02  0.2451216E+00
         21   -1    0    0  503  502  0.00000000000E+00  0.00000000000E+00  0.32200050094E+02  0.32200050094E+02  0.00000000000E+00 0. -1.
         21   -1    0    0  501  503 -0.00000000000E+00 -0.00000000000E+00 -0.13566198100E+01  0.13566198100E+01  0.00000000000E+00 0. -1.
          5    1    1    2  501    0  0.30639758693E+01  0.11893724611E+01  0.70826813805E+01  0.91135575115E+01  0.47000000000E+01 0. -1.
         -5    1    1    2    0  502 -0.30639758693E+01 -0.11893724611E+01  0.23760748904E+02  0.24443112393E+02  0.47000000000E+01 0. -1.
<mgrwt>
<rscale>  2 0.57352031E+01</rscale>
<asrwt>0</asrwt>
<pdfrwt beam="1">  1       21 0.49538533E-02 0.57352031E+01</pdfrwt>
<pdfrwt beam="2">  1       21 0.20871076E-03 0.57352031E+01</pdfrwt>
<totfact> 0.26478429E+09</totfact>
</mgrwt>
</event>
<event>
 4    1  0.4144004E+006  0.5447380E+01  0.7546771E-02  0.2493425E+00
         21   -1    0    0  501  502  0.00000000000E+00  0.00000000000E+00  0.65148619442E+02  0.65148619442E+02  0.00000000000E+00 0. -1.
         21   -1    0    0  502  503 -0.00000000000E+00 -0.00000000000E+00 -0.45886046802E+00  0.45886046802E+00  0.00000000000E+00 0. -1.
          5    1    1    2  501    0 -0.17393370243E+01 -0.21351003517E+01  0.35160139986E+02  0.35579620439E+02  0.47000000000E+01 0. -1.
         -5    1    1    2    0  503  0.17393370243E+01  0.21351003517E+01  0.29529618989E+02  0.30027859471E+02  0.47000000000E+01 0. -1.
<mgrwt>
<rscale>  2 0.54473798E+01</rscale>
<asrwt>0</asrwt>
<pdfrwt beam="1">  1       21 0.10022857E-01 0.54473798E+01</pdfrwt>
<pdfrwt beam="2">  1       21 0.70593970E-04 0.54473798E+01</pdfrwt>
<totfact> 0.37691318E+09</totfact>
</mgrwt>
</event>
<event>
 4    1  0.4144004E+006  0.4892316E+01  0.7546771E-02  0.2586619E+00
         21   -1    0    0  503  502  0.00000000000E+00  0.00000000000E+00  0.71946836702E+00  0.71946836702E+00  0.00000000000E+00 0.  1.
         21   -1    0    0  501  503 -0.00000000000E+00 -0.00000000000E+00 -0.73867592673E+02  0.73867592673E+02  0.00000000000E+00 0. -1.
          5    1    1    2  501    0  0.42455945131E+00 -0.12901553213E+01 -0.64222541243E+02  0.64408613983E+02  0.47000000000E+01 0. -1.
         -5    1    1    2    0  502 -0.42455945131E+00  0.12901553213E+01 -0.89255830626E+01  0.10178447057E+02  0.47000000000E+01 0.  1.
<mgrwt>
<rscale>  2 0.48923156E+01</rscale>
<asrwt>0</asrwt>
<pdfrwt beam="1">  1       21 0.11068738E-03 0.48923156E+01</pdfrwt>
<pdfrwt beam="2">  1       21 0.11364251E-01 0.48923156E+01</pdfrwt>
<totfact> 0.15441865E+09</totfact>
</mgrwt>
</event>
<event>
 4    1  0.4144004E+006  0.5654491E+01  0.7546771E-02  0.2462685E+00
         21   -1    0    0  501  502  0.00000000000E+00  0.00000000000E+00  0.85462711164E+02  0.85462711164E+02  0.00000000000E+00 0. -1.
         21   -1    0    0  502  503 -0.00000000000E+00 -0.00000000000E+00 -0.10577592735E+01  0.10577592735E+01  0.00000000000E+00 0. -1.
          5    1    1    2  501    0 -0.51544271566E+00  0.31012232040E+01  0.76980837441E+02  0.77188228375E+02  0.47000000000E+01 0. -1.
         -5    1    1    2    0  503  0.51544271566E+00 -0.31012232040E+01  0.74241144499E+01  0.93322420628E+01  0.47000000000E+01 0. -1.
<mgrwt>
<rscale>  2 0.56544908E+01</rscale>
<asrwt>0</asrwt>
<pdfrwt beam="1">  1       21 0.13148104E-01 0.56544908E+01</pdfrwt>
<pdfrwt beam="2">  1       21 0.16273226E-03 0.56544908E+01</pdfrwt>
<totfact> 0.83741535E+08</totfact>
</mgrwt>
</event>
<event>
 4    1  0.4144004E+006  0.4934566E+01  0.7546771E-02  0.2578894E+00
         21   -1    0    0  501  502  0.00000000000E+00  0.00000000000E+00  0.50834464859E+01  0.50834464859E+01  0.00000000000E+00 0. -1.
         21   -1    0    0  502  503 -0.00000000000E+00 -0.00000000000E+00 -0.79171068728E+01  0.79171068728E+01  0.00000000000E+00 0.  1.
          5    1    1    2  501    0  0.14992788374E+01  0.11001449686E+00  0.26684023948E+01  0.56098406004E+01  0.47000000000E+01 0. -1.
         -5    1    1    2    0  503 -0.14992788374E+01 -0.11001449686E+00 -0.55020627817E+01  0.73907127583E+01  0.47000000000E+01 0.  1.
<mgrwt>
<rscale>  2 0.49345659E+01</rscale>
<asrwt>0</asrwt>
<pdfrwt beam="1">  1       21 0.78206869E-03 0.49345659E+01</pdfrwt>
<pdfrwt beam="2">  1       21 0.12180164E-02 0.49345659E+01</pdfrwt>
<totfact> 0.27957715E+09</totfact>
</mgrwt>
</event>
<event>
 4    1  0.4144004E+006  0.5586474E+01  0.7546771E-02  0.2472567E+00
         21   -1    0    0  503  502  0.00000000000E+00  0.00000000000E+00  0.16655575271E+02  0.16655575271E+02  0.00000000000E+00 0. -1.
         21   -1    0    0  501  503 -0.00000000000E+00 -0.00000000000E+00 -0.20516564525E+01  0.20516564525E+01  0.00000000000E+00 0. -1.
          5    1    1    2  501    0 -0.29558416603E+01  0.61781463491E+00  0.45477288596E+01  0.72035083552E+01  0.47000000000E+01 0. -1.
         -5    1    1    2    0  502  0.29558416603E+01 -0.61781463491E+00  0.10056189959E+02  0.11503723368E+02  0.47000000000E+01 0. -1.
<mgrwt>
<rscale>  2 0.55864743E+01</rscale>
<asrwt>0</asrwt>
<pdfrwt beam="1">  1       21 0.25623961E-02 0.55864743E+01</pdfrwt>
<pdfrwt beam="2">  1       21 0.31563947E-03 0.55864743E+01</pdfrwt>
<totfact> 0.38431763E+09</totfact>
</mgrwt>
</event>
<event>
 4    1  0.4144004E+006  0.4799498E+01  0.7546771E-02  0.2604001E+00
         21   -1    0    0  503  502  0.00000000000E+00  0.00000000000E+00  0.13950901429E+01  0.13950901429E+01  0.00000000000E+00 0.  1.
         21   -1    0    0  501  503 -0.00000000000E+00 -0.00000000000E+00 -0.40035395807E+02  0.40035395807E+02  0.00000000000E+00 0.  1.
          5    1    1    2  501    0  0.96755830610E+00 -0.94915692102E-01 -0.35199096872E+02  0.35524802585E+02  0.47000000000E+01 0.  1.
         -5    1    1    2    0  502 -0.96755830610E+00  0.94915692102E-01 -0.34412087925E+01  0.59056833659E+01  0.47000000000E+01 0.  1.
<mgrwt>
<rscale>  2 0.47994977E+01</rscale>
<asrwt>0</asrwt>
<pdfrwt beam="1">  1       21 0.21462924E-03 0.47994977E+01</pdfrwt>
<pdfrwt beam="2">  1       21 0.61592920E-02 0.47994977E+01</pdfrwt>
<totfact> 0.15631950E+09</totfact>
</mgrwt>
</event>
<event>
 4    1  0.4144004E+006  0.6379717E+01  0.7546771E-02  0.2368476E+00
         21   -1    0    0  503  502  0.00000000000E+00  0.00000000000E+00  0.19835985097E+01  0.19835985097E+01  0.00000000000E+00 0. -1.
         21   -1    0    0  501  503 -0.00000000000E+00 -0.00000000000E+00 -0.21033551822E+02  0.21033551822E+02  0.00000000000E+00 0. -1.
          5    1    1    2  501    0 -0.28941980799E+00  0.43043029407E+01 -0.11325597808E+02  0.12998844308E+02  0.47000000000E+01 0. -1.
         -5    1    1    2    0  502  0.28941980799E+00 -0.43043029407E+01 -0.77243555041E+01  0.10018306024E+02  0.47000000000E+01 0. -1.
<mgrwt>
<rscale>  2 0.63797169E+01</rscale>
<asrwt>0</asrwt>
<pdfrwt beam="1">  1       21 0.30516900E-03 0.63797169E+01</pdfrwt>
<pdfrwt beam="2">  1       21 0.32359311E-02 0.63797169E+01</pdfrwt>
<totfact> 0.32306415E+09</totfact>
</mgrwt>
</event>
<event>
 4    1  0.4144004E+006  0.8698660E+01  0.7546771E-02  0.2157615E+00
         21   -1    0    0  501  502  0.00000000000E+00  0.00000000000E+00  0.13370386677E+02  0.13370386677E+02  0.00000000000E+00 0. -1.
         21   -1    0    0  502  503 -0.00000000000E+00 -0.00000000000E+00 -0.64754974839E+01  0.64754974839E+01  0.00000000000E+00 0.  1.
          5    1    1    2  501    0  0.86077423122E+00 -0.72688202041E+01 -0.75521589449E-01  0.86989874667E+01  0.47000000000E+01 0.  1.
         -5    1    1    2    0  503 -0.86077423122E+00  0.72688202041E+01  0.69704107829E+01  0.11146896695E+02  0.47000000000E+01 0.  1.
<mgrwt>
<rscale>  2 0.86986596E+01</rscale>
<asrwt>0</asrwt>
<pdfrwt beam="1">  1       21 0.20569826E-02 0.86986596E+01</pdfrwt>
<pdfrwt beam="2">  1       21 0.99623039E-03 0.86986596E+01</pdfrwt>
<totfact> 0.14950323E+09</totfact>
</mgrwt>
</event>
<event>
 4    1  0.4144004E+006  0.5397007E+01  0.7546771E-02  0.2501203E+00
         21   -1    0    0  501  502  0.00000000000E+00  0.00000000000E+00  0.31073810164E+03  0.31073810164E+03  0.00000000000E+00 0. -1.
         21   -1    0    0  502  503 -0.00000000000E+00 -0.00000000000E+00 -0.22032290100E+01  0.22032290100E+01  0.00000000000E+00 0.  1.
          5    1    1    2  501    0  0.17483226552E+01 -0.19952564112E+01  0.30737337744E+03  0.30742075538E+03  0.47000000000E+01 0. -1.
         -5    1    1    2    0  503 -0.17483226552E+01  0.19952564112E+01  0.11614951934E+01  0.55205752723E+01  0.47000000000E+01 0.  1.
<mgrwt>
<rscale>  2 0.53970066E+01</rscale>
<asrwt>0</asrwt>
<pdfrwt beam="1">  1       21 0.47805827E-01 0.53970066E+01</pdfrwt>
<pdfrwt beam="2">  1       21 0.33895856E-03 0.53970066E+01</pdfrwt>
<totfact> 0.35609289E+07</totfact>
</mgrwt>
</event>
<event>
 4    1  0.4144004E+006  0.5468805E+01  0.7546771E-02  0.2490153E+00
         21   -1    0    0  501  502  0.00000000000E+00  0.00000000000E+00  0.30565098398E+01  0.30565098398E+01  0.00000000000E+00 0.  1.
         21   -1    0    0  502  503 -0.00000000000E+00 -0.00000000000E+00 -0.18389802290E+02  0.18389802290E+02  0.00000000000E+00 0.  1.
          5    1    1    2  501    0 -0.27946342527E+01 -0.88571183557E-01 -0.33155426555E+00  0.54788460183E+01  0.47000000000E+01 0.  1.
         -5    1    1    2    0  503  0.27946342527E+01  0.88571183557E-01 -0.15001738185E+02  0.15967466112E+02  0.47000000000E+01 0.  1.
<mgrwt>
<rscale>  2 0.54688048E+01</rscale>
<asrwt>0</asrwt>
<pdfrwt beam="1">  1       21 0.47023228E-03 0.54688048E+01</pdfrwt>
<pdfrwt beam="2">  1       21 0.28292004E-02 0.54688048E+01</pdfrwt>
<totfact> 0.18895331E+09</totfact>
</mgrwt>
</event>
<event>
 4    1  0.4144004E+006  0.5976218E+01  0.7546771E-02  0.2418529E+00
         21   -1    0    0  503  502  0.00000000000E+00  0.00000000000E+00  0.78074642850E+01  0.78074642850E+01  0.00000000000E+00 0.  1.
         21   -1    0    0  501  503 -0.00000000000E+00 -0.00000000000E+00 -0.11864008682E+02  0.11864008682E+02  0.00000000000E+00 0.  1.
          5    1    1    2  501    0 -0.24889260901E+01  0.27258801895E+01 -0.97380267258E+01  0.11425600221E+02  0.47000000000E+01 0.  1.
         -5    1    1    2    0  502  0.24889260901E+01 -0.27258801895E+01  0.56814823290E+01  0.82458727461E+01  0.47000000000E+01 0.  1.
<mgrwt>
<rscale>  2 0.59762175E+01</rscale>
<asrwt>0</asrwt>
<pdfrwt beam="1">  1       21 0.12011484E-02 0.59762175E+01</pdfrwt>
<pdfrwt beam="2">  1       21 0.18252321E-02 0.59762175E+01</pdfrwt>
<totfact> 0.10320242E+09</totfact>
</mgrwt>
</event>
<event>
 4    1  0.4144004E+006  0.6453051E+01  0.7546771E-02  0.2359941E+00
         21   -1    0    0  503  502  0.00000000000E+00  0.00000000000E+00  0.31331114095E+03  0.31331114095E+03  0.00000000000E+00 0.  1.
         21   -1    0    0  501  503 -0.00000000000E+00 -0.00000000000E+00 -0.15676136070E+00  0.15676136070E+00  0.00000000000E+00 0. -1.
          5    1    1    2  501    0  0.41594632431E+00  0.44021420521E+01  0.95439449487E+02  0.95657359280E+02  0.47000000000E+01 0. -1.
         -5    1    1    2    0  502 -0.41594632431E+00 -0.44021420521E+01  0.21771493010E+03  0.21781054303E+03  0.47000000000E+01 0.  1.
<mgrwt>
<rscale>  2 0.64530509E+01</rscale>
<asrwt>0</asrwt>
<pdfrwt beam="1">  1       21 0.48201213E-01 0.64530509E+01</pdfrwt>
<pdfrwt beam="2">  1       21 0.24117383E-04 0.64530509E+01</pdfrwt>
<totfact> 0.13840200E+09</totfact>
</mgrwt>
</event>
<event>
 4    1  0.4144004E+006  0.4924884E+01  0.7546771E-02  0.2580654E+00
         21   -1    0    0  503  502  0.00000000000E+00  0.00000000000E+00  0.13887344002E+01  0.13887344002E+01  0.00000000000E+00 0. -1.
         21   -1    0    0  501  503 -0.00000000000E+00 -0.00000000000E+00 -0.27268798679E+02  0.27268798679E+02  0.00000000000E+00 0. -1.
          5    1    1    2  501    0 -0.87164720361E+00  0.11852073257E+01 -0.21531535908E+02  0.22087587551E+02  0.47000000000E+01 0. -1.
         -5    1    1    2    0  502  0.87164720361E+00 -0.11852073257E+01 -0.43485283703E+01  0.65699455279E+01  0.47000000000E+01 0. -1.
<mgrwt>
<rscale>  2 0.49248843E+01</rscale>
<asrwt>0</asrwt>
<pdfrwt beam="1">  1       21 0.21365143E-03 0.49248843E+01</pdfrwt>
<pdfrwt beam="2">  1       21 0.41952002E-02 0.49248843E+01</pdfrwt>
<totfact> 0.28274418E+09</totfact>
</mgrwt>
</event>
<event>
 4    1  0.4144004E+006  0.4867314E+01  0.7546771E-02  0.2591244E+00
         21   -1    0    0  503  502  0.00000000000E+00  0.00000000000E+00  0.49879010338E+00  0.49879010338E+00  0.00000000000E+00 0.  1.
         21   -1    0    0  501  503 -0.00000000000E+00 -0.00000000000E+00 -0.22814171329E+03  0.22814171329E+03  0.00000000000E+00 0.  1.
          5    1    1    2  501    0 -0.21604806850E+00 -0.12466226610E+01 -0.21554797191E+03  0.21560291960E+03  0.47000000000E+01 0.  1.
         -5    1    1    2    0  502  0.21604806850E+00  0.12466226610E+01 -0.12094951276E+02  0.13037583794E+02  0.47000000000E+01 0.  1.
<mgrwt>
<rscale>  2 0.48673139E+01</rscale>
<asrwt>0</asrwt>
<pdfrwt beam="1">  1       21 0.76736875E-04 0.48673139E+01</pdfrwt>
<pdfrwt beam="2">  1       21 0.35098754E-01 0.48673139E+01</pdfrwt>
<totfact> 0.41439661E+08</totfact>
</mgrwt>
</event>
<event>
 4    1  0.4144004E+006  0.6310921E+01  0.7546771E-02  0.2376632E+00
         21   -1    0    0  501  502  0.00000000000E+00  0.00000000000E+00  0.38537706184E+02  0.38537706184E+02  0.00000000000E+00 0. -1.
         21   -1    0    0  502  503 -0.00000000000E+00 -0.00000000000E+00 -0.21857297023E+01  0.21857297023E+01  0.00000000000E+00 0. -1.
          5    1    1    2  501    0 -0.41917206348E+01  0.40889778868E+00  0.32959942622E+02  0.33558687950E+02  0.47000000000E+01 0. -1.
         -5    1    1    2    0  503  0.41917206348E+01 -0.40889778868E+00  0.33920338593E+01  0.71647479359E+01  0.47000000000E+01 0. -1.
<mgrwt>
<rscale>  2 0.63109206E+01</rscale>
<asrwt>0</asrwt>
<pdfrwt beam="1">  1       21 0.59288773E-02 0.63109206E+01</pdfrwt>
<pdfrwt beam="2">  1       21 0.33626614E-03 0.63109206E+01</pdfrwt>
<totfact> 0.11426442E+09</totfact>
</mgrwt>
</event>
<event>
 4    1  0.4144004E+006  0.5210822E+01  0.7546771E-02  0.2531060E+00
         21   -1    0    0  501  502  0.00000000000E+00  0.00000000000E+00  0.10249510698E+03  0.10249510698E+03  0.00000000000E+00 0. -1.
         21   -1    0    0  502  503 -0.00000000000E+00 -0.00000000000E+00 -0.50003394293E+00  0.50003394293E+00  0.00000000000E+00 0.  1.
          5    1    1    2  501    0 -0.18946001828E+01 -0.12137359574E+01  0.86310099842E+02  0.86467253915E+02  0.47000000000E+01 0. -1.
         -5    1    1    2    0  503  0.18946001828E+01  0.12137359574E+01  0.15684973197E+02  0.16527887010E+02  0.47000000000E+01 0.  1.
<mgrwt>
<rscale>  2 0.52108219E+01</rscale>
<asrwt>0</asrwt>
<pdfrwt beam="1">  1       21 0.15768461E-01 0.52108219E+01</pdfrwt>
<pdfrwt beam="2">  1       21 0.76928380E-04 0.52108219E+01</pdfrwt>
<totfact> 0.16027544E+09</totfact>
</mgrwt>
</event>
<event>
 4    1  0.4144004E+006  0.1275194E+02  0.7546771E-02  0.1945583E+00
         21   -1    0    0  501  502  0.00000000000E+00  0.00000000000E+00  0.54417624682E+02  0.54417624682E+02  0.00000000000E+00 0. -1.
         21   -1    0    0  502  503 -0.00000000000E+00 -0.00000000000E+00 -0.34264618160E+01  0.34264618160E+01  0.00000000000E+00 0. -1.
          5    1    1    2  501    0  0.86515217905E+01 -0.81038990634E+01  0.35838934221E+02  0.38039994945E+02  0.47000000000E+01 0. -1.
         -5    1    1    2    0  503 -0.86515217905E+01  0.81038990634E+01  0.15152228644E+02  0.19804091552E+02  0.47000000000E+01 0. -1.
<mgrwt>
<rscale>  2 0.12751941E+02</rscale>
<asrwt>0</asrwt>
<pdfrwt beam="1">  1       21 0.83719416E-02 0.12751941E+02</pdfrwt>
<pdfrwt beam="2">  1       21 0.52714801E-03 0.12751941E+02</pdfrwt>
<totfact> 0.54563212E+08</totfact>
</mgrwt>
</event>
<event>
 4    1  0.4144004E+006  0.5548255E+01  0.7546771E-02  0.2478210E+00
         21   -1    0    0  503  502  0.00000000000E+00  0.00000000000E+00  0.17078461333E+02  0.17078461333E+02  0.00000000000E+00 0. -1.
         21   -1    0    0  501  503 -0.00000000000E+00 -0.00000000000E+00 -0.18521682387E+01  0.18521682387E+01  0.00000000000E+00 0.  1.
          5    1    1    2  501    0 -0.42352741520E+00 -0.29178336475E+01  0.60624087150E+01  0.82180245859E+01  0.47000000000E+01 0.  1.
         -5    1    1    2    0  502  0.42352741520E+00  0.29178336475E+01  0.91638843791E+01  0.10712604986E+02  0.47000000000E+01 0. -1.
<mgrwt>
<rscale>  2 0.55482546E+01</rscale>
<asrwt>0</asrwt>
<pdfrwt beam="1">  1       21 0.26274555E-02 0.55482546E+01</pdfrwt>
<pdfrwt beam="2">  1       21 0.28494897E-03 0.55482546E+01</pdfrwt>
<totfact> 0.42359309E+09</totfact>
</mgrwt>
</event>
<event>
 4    1  0.4144004E+006  0.7389163E+01  0.7546771E-02  0.2263461E+00
         21   -1    0    0  501  502  0.00000000000E+00  0.00000000000E+00  0.20785669974E+00  0.20785669974E+00  0.00000000000E+00 0. -1.
         21   -1    0    0  502  503 -0.00000000000E+00 -0.00000000000E+00 -0.38002269949E+03  0.38002269949E+03  0.00000000000E+00 0.  1.
          5    1    1    2  501    0  0.50231360312E+01 -0.26977449073E+01 -0.84264366195E+02  0.84587724484E+02  0.47000000000E+01 0. -1.
         -5    1    1    2    0  503 -0.50231360312E+01  0.26977449073E+01 -0.29555047659E+03  0.29564283170E+03  0.47000000000E+01 0.  1.
<mgrwt>
<rscale>  2 0.73891625E+01</rscale>
<asrwt>0</asrwt>
<pdfrwt beam="1">  1       21 0.31978089E-04 0.73891625E+01</pdfrwt>
<pdfrwt beam="2">  1       21 0.58464783E-01 0.73891625E+01</pdfrwt>
<totfact> 0.72716106E+08</totfact>
</mgrwt>
</event>
<event>
 4    1  0.4144004E+006  0.5495775E+01  0.7546771E-02  0.2486066E+00
         21   -1    0    0  501  502  0.00000000000E+00  0.00000000000E+00  0.48425954064E+02  0.48425954064E+02  0.00000000000E+00 0. -1.
         21   -1    0    0  502  503 -0.00000000000E+00 -0.00000000000E+00 -0.80873194293E+00  0.80873194293E+00  0.00000000000E+00 0.  1.
          5    1    1    2  501    0  0.24221368293E+01 -0.14989323849E+01  0.35583464394E+02  0.36005367425E+02  0.47000000000E+01 0. -1.
         -5    1    1    2    0  503 -0.24221368293E+01  0.14989323849E+01  0.12033757727E+02  0.13229318582E+02  0.47000000000E+01 0.  1.
<mgrwt>
<rscale>  2 0.54957752E+01</rscale>
<asrwt>0</asrwt>
<pdfrwt beam="1">  1       21 0.74501445E-02 0.54957752E+01</pdfrwt>
<pdfrwt beam="2">  1       21 0.12442034E-03 0.54957752E+01</pdfrwt>
<totfact> 0.27907443E+09</totfact>
</mgrwt>
</event>
<event>
 4    1  0.4144004E+006  0.6498480E+01  0.7546771E-02  0.2354735E+00
         21   -1    0    0  501  502  0.00000000000E+00  0.00000000000E+00  0.97641441861E+02  0.97641441861E+02  0.00000000000E+00 0.  1.
         21   -1    0    0  502  503 -0.00000000000E+00 -0.00000000000E+00 -0.65352378265E+00  0.65352378265E+00  0.00000000000E+00 0.  1.
          5    1    1    2  501    0  0.33392550257E+01  0.29982682097E+01  0.77075585405E+02  0.77349053659E+02  0.47000000000E+01 0.  1.
         -5    1    1    2    0  503 -0.33392550257E+01 -0.29982682097E+01  0.19912332673E+02  0.20945911985E+02  0.47000000000E+01 0.  1.
<mgrwt>
<rscale>  2 0.64984795E+01</rscale>
<asrwt>0</asrwt>
<pdfrwt beam="1">  1       21 0.15021749E-01 0.64984795E+01</pdfrwt>
<pdfrwt beam="2">  1       21 0.10054220E-03 0.64984795E+01</pdfrwt>
<totfact> 0.14513850E+09</totfact>
</mgrwt>
</event>
<event>
 4    1  0.4144004E+006  0.8492245E+01  0.7546771E-02  0.2172545E+00
         21   -1    0    0  501  502  0.00000000000E+00  0.00000000000E+00  0.12328983633E+00  0.12328983633E+00  0.00000000000E+00 0. -1.
         21   -1    0    0  502  503 -0.00000000000E+00 -0.00000000000E+00 -0.83463878837E+03  0.83463878837E+03  0.00000000000E+00 0.  1.
          5    1    1    2  501    0 -0.17835897711E+01 -0.68444886569E+01 -0.64554632071E+03  0.64560217658E+03  0.47000000000E+01 0.  1.
         -5    1    1    2    0  503  0.17835897711E+01  0.68444886569E+01 -0.18896917782E+03  0.18915990163E+03  0.47000000000E+01 0. -1.
<mgrwt>
<rscale>  2 0.84922445E+01</rscale>
<asrwt>0</asrwt>
<pdfrwt beam="1">  1       21 0.18967585E-04 0.84922445E+01</pdfrwt>
<pdfrwt beam="2">  1       21 0.12840652E+00 0.84922445E+01</pdfrwt>
<totfact> 0.32605921E+08</totfact>
</mgrwt>
</event>
<event>
 4    1  0.4144004E+006  0.5072381E+01  0.7546771E-02  0.2554472E+00
         21   -1    0    0  503  502  0.00000000000E+00  0.00000000000E+00  0.14261421579E+02  0.14261421579E+02  0.00000000000E+00 0.  1.
         21   -1    0    0  501  503 -0.00000000000E+00 -0.00000000000E+00 -0.10475464028E+02  0.10475464028E+02  0.00000000000E+00 0. -1.
          5    1    1    2  501    0  0.59925352103E-01 -0.19066875925E+01 -0.93601183644E+01  0.10646166654E+02  0.47000000000E+01 0. -1.
         -5    1    1    2    0  502 -0.59925352103E-01  0.19066875925E+01  0.13146075915E+02  0.14090718952E+02  0.47000000000E+01 0.  1.
<mgrwt>
<rscale>  2 0.50723810E+01</rscale>
<asrwt>0</asrwt>
<pdfrwt beam="1">  1       21 0.21940649E-02 0.50723810E+01</pdfrwt>
<pdfrwt beam="2">  1       21 0.16116099E-02 0.50723810E+01</pdfrwt>
<totfact> 0.45526128E+08</totfact>
</mgrwt>
</event>
<event>
 4    1  0.4144004E+006  0.8349698E+01  0.7546771E-02  0.2183198E+00
         21   -1    0    0  503  502  0.00000000000E+00  0.00000000000E+00  0.53491040550E+02  0.53491040550E+02  0.00000000000E+00 0.  1.
         21   -1    0    0  501  503 -0.00000000000E+00 -0.00000000000E+00 -0.14147904832E+01  0.14147904832E+01  0.00000000000E+00 0.  1.
          5    1    1    2  501    0  0.50315291853E+01  0.47234710561E+01  0.18333226510E+02  0.20145090197E+02  0.47000000000E+01 0.  1.
         -5    1    1    2    0  502 -0.50315291853E+01 -0.47234710561E+01  0.33743023557E+02  0.34760740837E+02  0.47000000000E+01 0.  1.
<mgrwt>
<rscale>  2 0.83496985E+01</rscale>
<asrwt>0</asrwt>
<pdfrwt beam="1">  1       21 0.82293893E-02 0.83496985E+01</pdfrwt>
<pdfrwt beam="2">  1       21 0.21766012E-03 0.83496985E+01</pdfrwt>
<totfact> 0.15478190E+09</totfact>
</mgrwt>
</event>
<event>
 4    1  0.4144004E+006  0.7841597E+01  0.7546771E-02  0.2223678E+00
         21   -1    0    0  501  502  0.00000000000E+00  0.00000000000E+00  0.24743118788E+02  0.24743118788E+02  0.00000000000E+00 0.  1.
         21   -1    0    0  502  503 -0.00000000000E+00 -0.00000000000E+00 -0.36199663284E+01  0.36199663284E+01  0.00000000000E+00 0. -1.
          5    1    1    2  501    0  0.26866800819E+01 -0.56729527231E+01  0.26213692481E+01  0.82681448461E+01  0.47000000000E+01 0. -1.
         -5    1    1    2    0  503 -0.26866800819E+01  0.56729527231E+01  0.18501783212E+02  0.20094940270E+02  0.47000000000E+01 0. -1.
<mgrwt>
<rscale>  2 0.78415969E+01</rscale>
<asrwt>0</asrwt>
<pdfrwt beam="1">  1       21 0.38066336E-02 0.78415969E+01</pdfrwt>
<pdfrwt beam="2">  1       21 0.55691791E-03 0.78415969E+01</pdfrwt>
<totfact> 0.12855602E+09</totfact>
</mgrwt>
</event>
<event>
 4    1  0.4144004E+006  0.4837588E+01  0.7546771E-02  0.2596798E+00
         21   -1    0    0  503  502  0.00000000000E+00  0.00000000000E+00  0.48661109017E+01  0.48661109017E+01  0.00000000000E+00 0.  1.
         21   -1    0    0  501  503 -0.00000000000E+00 -0.00000000000E+00 -0.21357188398E+02  0.21357188398E+02  0.00000000000E+00 0.  1.
          5    1    1    2  501    0 -0.88023961654E+00  0.73310320619E+00 -0.19786911429E+02  0.20369686448E+02  0.47000000000E+01 0.  1.
         -5    1    1    2    0  502  0.88023961654E+00 -0.73310320619E+00  0.32958339333E+01  0.58536128510E+01  0.47000000000E+01 0.  1.
<mgrwt>
<rscale>  2 0.48375885E+01</rscale>
<asrwt>0</asrwt>
<pdfrwt beam="1">  1       21 0.74863243E-03 0.48375885E+01</pdfrwt>
<pdfrwt beam="2">  1       21 0.32857214E-02 0.48375885E+01</pdfrwt>
<totfact> 0.71421205E+08</totfact>
</mgrwt>
</event>
<event>
 4    1  0.4144004E+006  0.5231975E+01  0.7546771E-02  0.2527577E+00
         21   -1    0    0  501  502  0.00000000000E+00  0.00000000000E+00  0.39945649851E+02  0.39945649851E+02  0.00000000000E+00 0. -1.
         21   -1    0    0  502  503 -0.00000000000E+00 -0.00000000000E+00 -0.12405551086E+01  0.12405551086E+01  0.00000000000E+00 0.  1.
          5    1    1    2  501    0  0.22982066952E+01  0.42567733740E-01  0.33130086723E+02  0.33540665054E+02  0.47000000000E+01 0. -1.
         -5    1    1    2    0  503 -0.22982066952E+01 -0.42567733740E-01  0.55750080195E+01  0.76455399053E+01  0.47000000000E+01 0.  1.
<mgrwt>
<rscale>  2 0.52319753E+01</rscale>
<asrwt>0</asrwt>
<pdfrwt beam="1">  1       21 0.61454836E-02 0.52319753E+01</pdfrwt>
<pdfrwt beam="2">  1       21 0.19085466E-03 0.52319753E+01</pdfrwt>
<totfact> 0.19974431E+09</totfact>
</mgrwt>
</event>
<event>
 4    1  0.4144004E+006  0.5218701E+01  0.7546771E-02  0.2529760E+00
         21   -1    0    0  501  502  0.00000000000E+00  0.00000000000E+00  0.82135346966E+03  0.82135346966E+03  0.00000000000E+00 0. -1.
         21   -1    0    0  502  503 -0.00000000000E+00 -0.00000000000E+00 -0.18031384329E+00  0.18031384329E+00  0.00000000000E+00 0. -1.
          5    1    1    2  501    0  0.33597672210E+00  0.22432026434E+01  0.78166776198E+03  0.78168518277E+03  0.47000000000E+01 0. -1.
         -5    1    1    2    0  503 -0.33597672210E+00 -0.22432026434E+01  0.39505393836E+02  0.39848600736E+02  0.47000000000E+01 0. -1.
<mgrwt>
<rscale>  2 0.52187008E+01</rscale>
<asrwt>0</asrwt>
<pdfrwt beam="1">  1       21 0.12635908E+00 0.52187008E+01</pdfrwt>
<pdfrwt beam="2">  1       21 0.27741249E-04 0.52187008E+01</pdfrwt>
<totfact> 0.15358655E+08</totfact>
</mgrwt>
</event>
<event>
 4    1  0.4144004E+006  0.9064416E+01  0.7546771E-02  0.2132501E+00
         21   -1    0    0  501  502  0.00000000000E+00  0.00000000000E+00  0.95205795525E+01  0.95205795525E+01  0.00000000000E+00 0.  1.
         21   -1    0    0  502  503 -0.00000000000E+00 -0.00000000000E+00 -0.33386895766E+02  0.33386895766E+02  0.00000000000E+00 0. -1.
          5    1    1    2  501    0  0.31381045566E+01  0.70870259556E+01  0.65408906325E+01  0.11177964366E+02  0.47000000000E+01 0.  1.
         -5    1    1    2    0  503 -0.31381045566E+01 -0.70870259556E+01 -0.30407206846E+02  0.31729510952E+02  0.47000000000E+01 0. -1.
<mgrwt>
<rscale>  2 0.90644160E+01</rscale>
<asrwt>0</asrwt>
<pdfrwt beam="1">  1       21 0.14647045E-02 0.90644160E+01</pdfrwt>
<pdfrwt beam="2">  1       21 0.51364456E-02 0.90644160E+01</pdfrwt>
<totfact> 0.22311287E+08</totfact>
</mgrwt>
</event>
<event>
 4    1  0.4144004E+006  0.5680220E+01  0.7546771E-02  0.2458999E+00
         21   -1    0    0  501  502  0.00000000000E+00  0.00000000000E+00  0.12745337447E+03  0.12745337447E+03  0.00000000000E+00 0.  1.
         21   -1    0    0  502  503 -0.00000000000E+00 -0.00000000000E+00 -0.31829899808E+00  0.31829899808E+00  0.00000000000E+00 0. -1.
          5    1    1    2  501    0  0.20982199508E+01 -0.24025750967E+01  0.92470272076E+02  0.92644568712E+02  0.47000000000E+01 0.  1.
         -5    1    1    2    0  503 -0.20982199508E+01  0.24025750967E+01  0.34664803399E+02  0.35127104759E+02  0.47000000000E+01 0. -1.
<mgrwt>
<rscale>  2 0.56802195E+01</rscale>
<asrwt>0</asrwt>
<pdfrwt beam="1">  1       21 0.19608171E-01 0.56802195E+01</pdfrwt>
<pdfrwt beam="2">  1       21 0.48969178E-04 0.56802195E+01</pdfrwt>
<totfact> 0.22327974E+09</totfact>
</mgrwt>
</event>
<event>
 4    1  0.4144004E+006  0.1021083E+02  0.7546771E-02  0.2063184E+00
         21   -1    0    0  503  502  0.00000000000E+00  0.00000000000E+00  0.28076260997E+02  0.28076260997E+02  0.00000000000E+00 0.  1.
         21   -1    0    0  501  503 -0.00000000000E+00 -0.00000000000E+00 -0.37604172232E+01  0.37604172232E+01  0.00000000000E+00 0. -1.
          5    1    1    2  501    0 -0.64761013988E+01  0.63428079303E+01  0.13936042797E+02  0.17276411392E+02  0.47000000000E+01 0.  1.
         -5    1    1    2    0  502  0.64761013988E+01 -0.63428079303E+01  0.10379800977E+02  0.14560266827E+02  0.47000000000E+01 0. -1.
<mgrwt>
<rscale>  2 0.10210833E+02</rscale>
<asrwt>0</asrwt>
<pdfrwt beam="1">  1       21 0.43194246E-02 0.10210833E+02</pdfrwt>
<pdfrwt beam="2">  1       21 0.57852575E-03 0.10210833E+02</pdfrwt>
<totfact> 0.11894156E+09</totfact>
</mgrwt>
</event>
<event>
 4    1  0.4144004E+006  0.5007746E+01  0.7546771E-02  0.2565781E+00
         21   -1    0    0  501  502  0.00000000000E+00  0.00000000000E+00  0.81430060361E+03  0.81430060361E+03  0.00000000000E+00 0.  1.
         21   -1    0    0  502  503 -0.00000000000E+00 -0.00000000000E+00 -0.51554681316E-01  0.51554681316E-01  0.00000000000E+00 0.  1.
          5    1    1    2  501    0  0.19890410496E+00  0.17169618079E+01  0.66549565277E+03  0.66551449374E+03  0.47000000000E+01 0.  1.
         -5    1    1    2    0  503 -0.19890410496E+00 -0.17169618079E+01  0.14875339615E+03  0.14883766454E+03  0.47000000000E+01 0.  1.
<mgrwt>
<rscale>  2 0.50077461E+01</rscale>
<asrwt>0</asrwt>
<pdfrwt beam="1">  1       21 0.12526672E+00 0.50077461E+01</pdfrwt>
<pdfrwt beam="2">  1       21 0.79321416E-05 0.50077461E+01</pdfrwt>
<totfact> 0.79827240E+08</totfact>
</mgrwt>
</event>
<event>
 4    1  0.4144004E+006  0.6245031E+01  0.7546771E-02  0.2384583E+00
         21   -1    0    0  503  502  0.00000000000E+00  0.00000000000E+00  0.27334534967E+02  0.27334534967E+02  0.00000000000E+00 0. -1.
         21   -1    0    0  501  503 -0.00000000000E+00 -0.00000000000E+00 -0.15488742451E+01  0.15488742451E+01  0.00000000000E+00 0.  1.
          5    1    1    2  501    0  0.56134822831E+00  0.40737327879E+01  0.16947497307E+02  0.18061508122E+02  0.47000000000E+01 0.  1.
         -5    1    1    2    0  502 -0.56134822831E+00 -0.40737327879E+01  0.88381634147E+01  0.10821901090E+02  0.47000000000E+01 0. -1.
<mgrwt>
<rscale>  2 0.62450309E+01</rscale>
<asrwt>0</asrwt>
<pdfrwt beam="1">  1       21 0.42053127E-02 0.62450309E+01</pdfrwt>
<pdfrwt beam="2">  1       21 0.23828837E-03 0.62450309E+01</pdfrwt>
<totfact> 0.30318826E+09</totfact>
</mgrwt>
</event>
<event>
 4    1  0.4144004E+006  0.1220833E+02  0.7546771E-02  0.1967529E+00
         21   -1    0    0  501  502  0.00000000000E+00  0.00000000000E+00  0.13486959414E+03  0.13486959414E+03  0.00000000000E+00 0.  1.
         21   -1    0    0  502  503 -0.00000000000E+00 -0.00000000000E+00 -0.39450928732E+01  0.39450928732E+01  0.00000000000E+00 0. -1.
          5    1    1    2  501    0  0.10962694211E+02 -0.26024533440E+01  0.12435149429E+03  0.12494933998E+03  0.47000000000E+01 0.  1.
         -5    1    1    2    0  503 -0.10962694211E+02  0.26024533440E+01  0.65730069749E+01  0.13865347037E+02  0.47000000000E+01 0. -1.
<mgrwt>
<rscale>  2 0.12208334E+02</rscale>
<asrwt>0</asrwt>
<pdfrwt beam="1">  1       21 0.20749165E-01 0.12208334E+02</pdfrwt>
<pdfrwt beam="2">  1       21 0.60693747E-03 0.12208334E+02</pdfrwt>
<totfact> 0.98593038E+07</totfact>
</mgrwt>
</event>
<event>
 4    1  0.4144004E+006  0.6051975E+01  0.7546771E-02  0.2408708E+00
         21   -1    0    0  501  502  0.00000000000E+00  0.00000000000E+00  0.16421993473E+02  0.16421993473E+02  0.00000000000E+00 0. -1.
         21   -1    0    0  502  503 -0.00000000000E+00 -0.00000000000E+00 -0.63192086519E+01  0.63192086519E+01  0.00000000000E+00 0.  1.
          5    1    1    2  501    0  0.71823040650E+00  0.37444024291E+01  0.14197880657E+02  0.15433930789E+02  0.47000000000E+01 0. -1.
         -5    1    1    2    0  503 -0.71823040650E+00 -0.37444024291E+01 -0.40950958357E+01  0.73072713356E+01  0.47000000000E+01 0.  1.
<mgrwt>
<rscale>  2 0.60519753E+01</rscale>
<asrwt>0</asrwt>
<pdfrwt beam="1">  1       21 0.25264605E-02 0.60519753E+01</pdfrwt>
<pdfrwt beam="2">  1       21 0.97218595E-03 0.60519753E+01</pdfrwt>
<totfact> 0.88059900E+08</totfact>
</mgrwt>
</event>
<event>
 4    1  0.4144004E+006  0.9788521E+01  0.7546771E-02  0.2087227E+00
         21   -1    0    0  503  502  0.00000000000E+00  0.00000000000E+00  0.53128142984E+01  0.53128142984E+01  0.00000000000E+00 0.  1.
         21   -1    0    0  501  503 -0.00000000000E+00 -0.00000000000E+00 -0.32609820562E+02  0.32609820562E+02  0.00000000000E+00 0. -1.
          5    1    1    2  501    0 -0.43415018838E+01  0.74078681857E+01 -0.26325021679E+02  0.28085973653E+02  0.47000000000E+01 0. -1.
         -5    1    1    2    0  502  0.43415018838E+01 -0.74078681857E+01 -0.97198458450E+00  0.98366612067E+01  0.47000000000E+01 0.  1.
<mgrwt>
<rscale>  2 0.97885213E+01</rscale>
<asrwt>0</asrwt>
<pdfrwt beam="1">  1       21 0.81735604E-03 0.97885213E+01</pdfrwt>
<pdfrwt beam="2">  1       21 0.50168955E-02 0.97885213E+01</pdfrwt>
<totfact> 0.56233384E+08</totfact>
</mgrwt>
</event>
<event>
 4    1  0.4144004E+006  0.9625986E+01  0.7546771E-02  0.2096920E+00
         21   -1    0    0  501  502  0.00000000000E+00  0.00000000000E+00  0.16491127149E+02  0.16491127149E+02  0.00000000000E+00 0.  1.
         21   -1    0    0  502  503 -0.00000000000E+00 -0.00000000000E+00 -0.56736431826E+01  0.56736431826E+01  0.00000000000E+00 0. -1.
          5    1    1    2  501    0 -0.80995639282E+01  0.22286011451E+01  0.64987825751E+01  0.11614377893E+02  0.47000000000E+01 0.  1.
         -5    1    1    2    0  503  0.80995639282E+01 -0.22286011451E+01  0.43187013910E+01  0.10550392438E+02  0.47000000000E+01 0. -1.
<mgrwt>
<rscale>  2 0.96259856E+01</rscale>
<asrwt>0</asrwt>
<pdfrwt beam="1">  1       21 0.25370965E-02 0.96259856E+01</pdfrwt>
<pdfrwt beam="2">  1       21 0.87286819E-03 0.96259856E+01</pdfrwt>
<totfact> 0.14158638E+09</totfact>
</mgrwt>
</event>
<event>
 4    1  0.4144004E+006  0.4861361E+01  0.7546771E-02  0.2592352E+00
         21   -1    0    0  501  502  0.00000000000E+00  0.00000000000E+00  0.41178656210E+01  0.41178656210E+01  0.00000000000E+00 0.  1.
         21   -1    0    0  502  503 -0.00000000000E+00 -0.00000000000E+00 -0.56996053632E+02  0.56996053632E+02  0.00000000000E+00 0.  1.
          5    1    1    2  501    0  0.12334816092E+01  0.14614216430E+00  0.25386219511E+01  0.54842899105E+01  0.47000000000E+01 0.  1.
         -5    1    1    2    0  503 -0.12334816092E+01 -0.14614216430E+00 -0.55416809962E+02  0.55629629342E+02  0.47000000000E+01 0.  1.
<mgrwt>
<rscale>  2 0.48613614E+01</rscale>
<asrwt>0</asrwt>
<pdfrwt beam="1">  1       21 0.63351779E-03 0.48613614E+01</pdfrwt>
<pdfrwt beam="2">  1       21 0.87686237E-02 0.48613614E+01</pdfrwt>
<totfact> 0.21464936E+08</totfact>
</mgrwt>
</event>
<event>
 4    1  0.4144004E+006  0.2751584E+02  0.7546771E-02  0.1627291E+00
         21   -1    0    0  503  502  0.00000000000E+00  0.00000000000E+00  0.19757349041E+01  0.19757349041E+01  0.00000000000E+00 0. -1.
         21   -1    0    0  501  503 -0.00000000000E+00 -0.00000000000E+00 -0.11101697715E+04  0.11101697715E+04  0.00000000000E+00 0.  1.
          5    1    1    2  501    0  0.18097856556E+02  0.20186604094E+02 -0.10040758693E+04  0.10044528225E+04  0.47000000000E+01 0.  1.
         -5    1    1    2    0  502 -0.18097856556E+02 -0.20186604094E+02 -0.10411816727E+03  0.10769268384E+03  0.47000000000E+01 0. -1.
<mgrwt>
<rscale>  2 0.27515839E+02</rscale>
<asrwt>0</asrwt>
<pdfrwt beam="1">  1       21 0.30395894E-03 0.27515839E+02</pdfrwt>
<pdfrwt beam="2">  1       21 0.17079550E+00 0.27515839E+02</pdfrwt>
<totfact> 0.47471118E+06</totfact>
</mgrwt>
</event>
<event>
 4    1  0.4144004E+006  0.4902379E+01  0.7546771E-02  0.2584768E+00
         21   -1    0    0  503  502  0.00000000000E+00  0.00000000000E+00  0.38935176829E+02  0.38935176829E+02  0.00000000000E+00 0.  1.
         21   -1    0    0  501  503 -0.00000000000E+00 -0.00000000000E+00 -0.61726496634E+00  0.61726496634E+00  0.00000000000E+00 0.  1.
          5    1    1    2  501    0  0.12469054302E+01  0.62333476481E+00  0.19163436327E+02  0.19780561449E+02  0.47000000000E+01 0.  1.
         -5    1    1    2    0  502 -0.12469054302E+01 -0.62333476481E+00  0.19154475535E+02  0.19771880346E+02  0.47000000000E+01 0.  1.
<mgrwt>
<rscale>  2 0.49023790E+01</rscale>
<asrwt>0</asrwt>
<pdfrwt beam="1">  1       21 0.59900253E-02 0.49023790E+01</pdfrwt>
<pdfrwt beam="2">  1       21 0.94963872E-04 0.49023790E+01</pdfrwt>
<totfact> 0.49392324E+09</totfact>
</mgrwt>
</event>
<event>
 4    1  0.4144004E+006  0.5301852E+01  0.7546771E-02  0.2516239E+00
         21   -1    0    0  503  502  0.00000000000E+00  0.00000000000E+00  0.18681575991E+03  0.18681575991E+03  0.00000000000E+00 0.  1.
         21   -1    0    0  501  503 -0.00000000000E+00 -0.00000000000E+00 -0.40312940890E+00  0.40312940890E+00  0.00000000000E+00 0.  1.
          5    1    1    2  501    0  0.24239115923E+01  0.37985008591E+00  0.19097883676E+02  0.19820161311E+02  0.47000000000E+01 0.  1.
         -5    1    1    2    0  502 -0.24239115923E+01 -0.37985008591E+00  0.16731474683E+03  0.16739872801E+03  0.47000000000E+01 0.  1.
<mgrwt>
<rscale>  2 0.53018519E+01</rscale>
<asrwt>0</asrwt>
<pdfrwt beam="1">  1       21 0.28740817E-01 0.53018519E+01</pdfrwt>
<pdfrwt beam="2">  1       21 0.62020058E-04 0.53018519E+01</pdfrwt>
<totfact> 0.82478800E+08</totfact>
</mgrwt>
</event>
<event>
 4    1  0.4144004E+006  0.4967046E+01  0.7546771E-02  0.2573033E+00
         21   -1    0    0  503  502  0.00000000000E+00  0.00000000000E+00  0.13993711451E+04  0.13993711451E+04  0.00000000000E+00 0. -1.
         21   -1    0    0  501  503 -0.00000000000E+00 -0.00000000000E+00 -0.19251241683E-01  0.19251241683E-01  0.00000000000E+00 0.  1.
          5    1    1    2  501    0  0.72329447940E+00  0.14347093626E+01  0.49665406605E+03  0.49667890319E+03  0.47000000000E+01 0.  1.
         -5    1    1    2    0  502 -0.72329447940E+00 -0.14347093626E+01  0.90269782785E+03  0.90271149319E+03  0.47000000000E+01 0. -1.
<mgrwt>
<rscale>  2 0.49670460E+01</rscale>
<asrwt>0</asrwt>
<pdfrwt beam="1">  1       21 0.21520643E+00 0.49670460E+01</pdfrwt>
<pdfrwt beam="2">  1       21 0.29628503E-05 0.49670460E+01</pdfrwt>
<totfact> 0.94831620E+08</totfact>
</mgrwt>
</event>
<event>
 4    1  0.4144004E+006  0.5403253E+01  0.7546771E-02  0.2500232E+00
         21   -1    0    0  503  502  0.00000000000E+00  0.00000000000E+00  0.47640568534E+01  0.47640568534E+01  0.00000000000E+00 0. -1.
         21   -1    0    0  501  503 -0.00000000000E+00 -0.00000000000E+00 -0.62828781039E+01  0.62828781039E+01  0.00000000000E+00 0. -1.
          5    1    1    2  501    0 -0.32103270102E+00  0.26461445651E+01 -0.16260376251E+01  0.56426183118E+01  0.47000000000E+01 0. -1.
         -5    1    1    2    0  502  0.32103270102E+00 -0.26461445651E+01  0.10721637459E+00  0.54043166455E+01  0.47000000000E+01 0. -1.
<mgrwt>
<rscale>  2 0.54032530E+01</rscale>
<asrwt>0</asrwt>
<pdfrwt beam="1">  1       21 0.73293182E-03 0.54032530E+01</pdfrwt>
<pdfrwt beam="2">  1       21 0.96659663E-03 0.54032530E+01</pdfrwt>
<totfact> 0.46407460E+09</totfact>
</mgrwt>
</event>
<event>
 4    1  0.4144004E+006  0.5241348E+01  0.7546771E-02  0.2526041E+00
         21   -1    0    0  503  502  0.00000000000E+00  0.00000000000E+00  0.23773480870E+03  0.23773480870E+03  0.00000000000E+00 0. -1.
         21   -1    0    0  501  503 -0.00000000000E+00 -0.00000000000E+00 -0.11583365916E+00  0.11583365916E+00  0.00000000000E+00 0. -1.
          5    1    1    2  501    0 -0.22394614671E+01  0.60542707180E+00  0.12463000252E+03  0.12474016698E+03  0.47000000000E+01 0. -1.
         -5    1    1    2    0  502  0.22394614671E+01 -0.60542707180E+00  0.11298897252E+03  0.11311047538E+03  0.47000000000E+01 0. -1.
<mgrwt>
<rscale>  2 0.52413481E+01</rscale>
<asrwt>0</asrwt>
<pdfrwt beam="1">  1       21 0.36574195E-01 0.52413481E+01</pdfrwt>
<pdfrwt beam="2">  1       21 0.17820753E-04 0.52413481E+01</pdfrwt>
<totfact> 0.28511220E+09</totfact>
</mgrwt>
</event>
<event>
 4    1  0.4144004E+006  0.6096822E+01  0.7546771E-02  0.2402990E+00
         21   -1    0    0  501  502  0.00000000000E+00  0.00000000000E+00  0.16946315908E+01  0.16946315908E+01  0.00000000000E+00 0. -1.
         21   -1    0    0  502  503 -0.00000000000E+00 -0.00000000000E+00 -0.25469021011E+02  0.25469021011E+02  0.00000000000E+00 0.  1.
          5    1    1    2  501    0  0.36114832331E+01 -0.14277356536E+01 -0.68277264880E+01  0.91536380327E+01  0.47000000000E+01 0. -1.
         -5    1    1    2    0  503 -0.36114832331E+01  0.14277356536E+01 -0.16946662932E+02  0.18010014569E+02  0.47000000000E+01 0.  1.
<mgrwt>
<rscale>  2 0.60968221E+01</rscale>
<asrwt>0</asrwt>
<pdfrwt beam="1">  1       21 0.26071253E-03 0.60968221E+01</pdfrwt>
<pdfrwt beam="2">  1       21 0.39183113E-02 0.60968221E+01</pdfrwt>
<totfact> 0.29134131E+09</totfact>
</mgrwt>
</event>
<event>
 4    1  0.4144004E+006  0.8058655E+01  0.7546771E-02  0.2205883E+00
         21   -1    0    0  503  502  0.00000000000E+00  0.00000000000E+00  0.10539021898E+02  0.10539021898E+02  0.00000000000E+00 0. -1.
         21   -1    0    0  501  503 -0.00000000000E+00 -0.00000000000E+00 -0.24035702721E+03  0.24035702721E+03  0.00000000000E+00 0. -1.
          5    1    1    2  501    0 -0.10505059790E+01 -0.64612972020E+01 -0.23873852794E+03  0.23887449978E+03  0.47000000000E+01 0. -1.
         -5    1    1    2    0  502  0.10505059790E+01  0.64612972020E+01  0.89205226240E+01  0.12021549327E+02  0.47000000000E+01 0. -1.
<mgrwt>
<rscale>  2 0.80586552E+01</rscale>
<asrwt>0</asrwt>
<pdfrwt beam="1">  1       21 0.16213880E-02 0.80586552E+01</pdfrwt>
<pdfrwt beam="2">  1       21 0.36978004E-01 0.80586552E+01</pdfrwt>
<totfact> 0.74660337E+06</totfact>
</mgrwt>
</event>
<event>
 4    1  0.4144004E+006  0.5253631E+01  0.7546771E-02  0.2524035E+00
         21   -1    0    0  501  502  0.00000000000E+00  0.00000000000E+00  0.57880043626E+02  0.57880043626E+02  0.00000000000E+00 0.  1.
         21   -1    0    0  502  503 -0.00000000000E+00 -0.00000000000E+00 -0.61695092621E+00  0.61695092621E+00  0.00000000000E+00 0.  1.
          5    1    1    2  501    0 -0.23444968842E+00  0.23357373741E+01  0.42569030038E+02  0.42891991725E+02  0.47000000000E+01 0.  1.
         -5    1    1    2    0  503  0.23444968842E+00 -0.23357373741E+01  0.14694062661E+02  0.15605002827E+02  0.47000000000E+01 0.  1.
<mgrwt>
<rscale>  2 0.52536307E+01</rscale>
<asrwt>0</asrwt>
<pdfrwt beam="1">  1       21 0.89046178E-02 0.52536307E+01</pdfrwt>
<pdfrwt beam="2">  1       21 0.94915573E-04 0.52536307E+01</pdfrwt>
<totfact> 0.29366892E+09</totfact>
</mgrwt>
</event>
<event>
 4    1  0.4144004E+006  0.7356607E+01  0.7546771E-02  0.2266477E+00
         21   -1    0    0  501  502  0.00000000000E+00  0.00000000000E+00  0.14675285595E+03  0.14675285595E+03  0.00000000000E+00 0.  1.
         21   -1    0    0  502  503 -0.00000000000E+00 -0.00000000000E+00 -0.54761902191E+00  0.54761902191E+00  0.00000000000E+00 0. -1.
          5    1    1    2  501    0  0.27563311914E+00  0.56527597554E+01  0.11519124999E+03  0.11542592318E+03  0.47000000000E+01 0.  1.
         -5    1    1    2    0  503 -0.27563311914E+00 -0.56527597554E+01  0.31013986932E+02  0.31874551792E+02  0.47000000000E+01 0. -1.
<mgrwt>
<rscale>  2 0.73566070E+01</rscale>
<asrwt>0</asrwt>
<pdfrwt beam="1">  1       21 0.22577331E-01 0.73566070E+01</pdfrwt>
<pdfrwt beam="2">  1       21 0.84249197E-04 0.73566070E+01</pdfrwt>
<totfact> 0.10401514E+09</totfact>
</mgrwt>
</event>
<event>
 4    1  0.4144004E+006  0.6690295E+01  0.7546771E-02  0.2333397E+00
         21   -1    0    0  501  502  0.00000000000E+00  0.00000000000E+00  0.45628970758E+01  0.45628970758E+01  0.00000000000E+00 0.  1.
         21   -1    0    0  502  503 -0.00000000000E+00 -0.00000000000E+00 -0.11591095379E+02  0.11591095379E+02  0.00000000000E+00 0.  1.
          5    1    1    2  501    0 -0.20239644386E+01  0.43097123003E+01 -0.34756766956E+00  0.66993175358E+01  0.47000000000E+01 0.  1.
         -5    1    1    2    0  503  0.20239644386E+01 -0.43097123003E+01 -0.66806306333E+01  0.94546749187E+01  0.47000000000E+01 0.  1.
<mgrwt>
<rscale>  2 0.66902954E+01</rscale>
<asrwt>0</asrwt>
<pdfrwt beam="1">  1       21 0.70198418E-03 0.66902954E+01</pdfrwt>
<pdfrwt beam="2">  1       21 0.17832454E-02 0.66902954E+01</pdfrwt>
<totfact> 0.25009381E+09</totfact>
</mgrwt>
</event>
<event>
 4    1  0.4144004E+006  0.5681832E+01  0.7546771E-02  0.2458769E+00
         21   -1    0    0  503  502  0.00000000000E+00  0.00000000000E+00  0.68196684374E+02  0.68196684374E+02  0.00000000000E+00 0.  1.
         21   -1    0    0  501  503 -0.00000000000E+00 -0.00000000000E+00 -0.56460062853E+00  0.56460062853E+00  0.00000000000E+00 0.  1.
          5    1    1    2  501    0 -0.70296115471E+00  0.31143316953E+01  0.19996920838E+02  0.20788459762E+02  0.47000000000E+01 0.  1.
         -5    1    1    2    0  502  0.70296115471E+00 -0.31143316953E+01  0.47635162908E+02  0.47972825240E+02  0.47000000000E+01 0.  1.
<mgrwt>
<rscale>  2 0.56818321E+01</rscale>
<asrwt>0</asrwt>
<pdfrwt beam="1">  1       21 0.10491791E-01 0.56818321E+01</pdfrwt>
<pdfrwt beam="2">  1       21 0.86861689E-04 0.56818321E+01</pdfrwt>
<totfact> 0.27682973E+09</totfact>
</mgrwt>
</event>
<event>
 4    1  0.4144004E+006  0.7884354E+01  0.7546771E-02  0.2220110E+00
         21   -1    0    0  503  502  0.00000000000E+00  0.00000000000E+00  0.95891345606E+02  0.95891345606E+02  0.00000000000E+00 0. -1.
         21   -1    0    0  501  503 -0.00000000000E+00 -0.00000000000E+00 -0.87047642849E+00  0.87047642849E+00  0.00000000000E+00 0.  1.
          5    1    1    2  501    0 -0.10182139923E+01  0.62479023326E+01  0.23066094302E+02  0.24376376877E+02  0.47000000000E+01 0.  1.
         -5    1    1    2    0  502  0.10182139923E+01 -0.62479023326E+01  0.71954774875E+02  0.72385445157E+02  0.47000000000E+01 0. -1.
<mgrwt>
<rscale>  2 0.78843543E+01</rscale>
<asrwt>0</asrwt>
<pdfrwt beam="1">  1       21 0.14752506E-01 0.78843543E+01</pdfrwt>
<pdfrwt beam="2">  1       21 0.13391953E-03 0.78843543E+01</pdfrwt>
<totfact> 0.11597003E+09</totfact>
</mgrwt>
</event>
<event>
 4    1  0.4144004E+006  0.4843677E+01  0.7546771E-02  0.2595655E+00
         21   -1    0    0  503  502  0.00000000000E+00  0.00000000000E+00  0.49623271777E+01  0.49623271777E+01  0.00000000000E+00 0. -1.
         21   -1    0    0  501  503 -0.00000000000E+00 -0.00000000000E+00 -0.62495906953E+01  0.62495906953E+01  0.00000000000E+00 0. -1.
          5    1    1    2  501    0 -0.11626969954E+01  0.13906504623E+00 -0.34098891515E+01  0.59235586783E+01  0.47000000000E+01 0. -1.
         -5    1    1    2    0  502  0.11626969954E+01 -0.13906504623E+00  0.21226256338E+01  0.52883591946E+01  0.47000000000E+01 0. -1.
<mgrwt>
<rscale>  2 0.48436766E+01</rscale>
<asrwt>0</asrwt>
<pdfrwt beam="1">  1       21 0.76343495E-03 0.48436766E+01</pdfrwt>
<pdfrwt beam="2">  1       21 0.96147549E-03 0.48436766E+01</pdfrwt>
<totfact> 0.39425622E+09</totfact>
</mgrwt>
</event>
<event>
 4    1  0.4144004E+006  0.4701730E+01  0.7546771E-02  0.2622952E+00
         21   -1    0    0  501  502  0.00000000000E+00  0.00000000000E+00  0.80615470823E-01  0.80615470823E-01  0.00000000000E+00 0.  1.
         21   -1    0    0  502  503 -0.00000000000E+00 -0.00000000000E+00 -0.12319753915E+04  0.12319753915E+04  0.00000000000E+00 0.  1.
          5    1    1    2  501    0 -0.12748880714E+00  0.28202076195E-02 -0.72788289251E+02  0.72939984326E+02  0.47000000000E+01 0.  1.
         -5    1    1    2    0  503  0.12748880714E+00 -0.28202076195E-02 -0.11591064867E+04  0.11591160226E+04  0.47000000000E+01 0.  1.
<mgrwt>
<rscale>  2 0.47017296E+01</rscale>
<asrwt>0</asrwt>
<pdfrwt beam="1">  1       21 0.12404052E-04 0.47017296E+01</pdfrwt>
<pdfrwt beam="2">  1       21 0.18950913E+00 0.47017296E+01</pdfrwt>
<totfact> 0.17577023E+08</totfact>
</mgrwt>
</event>
<event>
 4    1  0.4144004E+006  0.5179112E+01  0.7546771E-02  0.2536328E+00
         21   -1    0    0  501  502  0.00000000000E+00  0.00000000000E+00  0.20812908517E+02  0.20812908517E+02  0.00000000000E+00 0. -1.
         21   -1    0    0  502  503 -0.00000000000E+00 -0.00000000000E+00 -0.14448213319E+01  0.14448213319E+01  0.00000000000E+00 0. -1.
          5    1    1    2  501    0 -0.21607831270E+01  0.25341183513E+00  0.60266848199E+01  0.79463281582E+01  0.47000000000E+01 0. -1.
         -5    1    1    2    0  503  0.21607831270E+01 -0.25341183513E+00  0.13341402366E+02  0.14311401691E+02  0.47000000000E+01 0. -1.
<mgrwt>
<rscale>  2 0.51791120E+01</rscale>
<asrwt>0</asrwt>
<pdfrwt beam="1">  1       21 0.32019857E-02 0.51791120E+01</pdfrwt>
<pdfrwt beam="2">  1       21 0.22228022E-03 0.51791120E+01</pdfrwt>
<totfact> 0.41702652E+09</totfact>
</mgrwt>
</event>
<event>
 4    1  0.4144004E+006  0.9136369E+01  0.7546771E-02  0.2127749E+00
         21   -1    0    0  503  502  0.00000000000E+00  0.00000000000E+00  0.25299066015E+03  0.25299066015E+03  0.00000000000E+00 0.  1.
         21   -1    0    0  501  503 -0.00000000000E+00 -0.00000000000E+00 -0.49982715885E+00  0.49982715885E+00  0.00000000000E+00 0.  1.
          5    1    1    2  501    0  0.58597810955E+01 -0.52005968119E+01  0.52353926008E+02  0.53145148510E+02  0.47000000000E+01 0.  1.
         -5    1    1    2    0  502 -0.58597810955E+01  0.52005968119E+01  0.20013690698E+03  0.20034533880E+03  0.47000000000E+01 0.  1.
<mgrwt>
<rscale>  2 0.91363692E+01</rscale>
<asrwt>0</asrwt>
<pdfrwt beam="1">  1       21 0.38921538E-01 0.91363692E+01</pdfrwt>
<pdfrwt beam="2">  1       21 0.76896688E-04 0.91363692E+01</pdfrwt>
<totfact> 0.52568801E+08</totfact>
</mgrwt>
</event>
<event>
 4    1  0.4144004E+006  0.5365512E+01  0.7546771E-02  0.2506129E+00
         21   -1    0    0  503  502  0.00000000000E+00  0.00000000000E+00  0.12365590436E+01  0.12365590436E+01  0.00000000000E+00 0. -1.
         21   -1    0    0  501  503 -0.00000000000E+00 -0.00000000000E+00 -0.23334136243E+02  0.23334136243E+02  0.00000000000E+00 0. -1.
          5    1    1    2  501    0  0.67704951622E+00  0.24980646196E+01 -0.11633293708E+02  0.12811020466E+02  0.47000000000E+01 0. -1.
         -5    1    1    2    0  502 -0.67704951622E+00 -0.24980646196E+01 -0.10464283492E+02  0.11759674821E+02  0.47000000000E+01 0. -1.
<mgrwt>
<rscale>  2 0.53655124E+01</rscale>
<asrwt>0</asrwt>
<pdfrwt beam="1">  1       21 0.19023986E-03 0.53655124E+01</pdfrwt>
<pdfrwt beam="2">  1       21 0.35898669E-02 0.53655124E+01</pdfrwt>
<totfact> 0.45201852E+09</totfact>
</mgrwt>
</event>
<event>
 4    1  0.4144004E+006  0.7168544E+01  0.7546771E-02  0.2284330E+00
         21   -1    0    0  501  502  0.00000000000E+00  0.00000000000E+00  0.65918661281E+00  0.65918661281E+00  0.00000000000E+00 0. -1.
         21   -1    0    0  502  503 -0.00000000000E+00 -0.00000000000E+00 -0.27103097141E+03  0.27103097141E+03  0.00000000000E+00 0. -1.
          5    1    1    2  501    0  0.43823357574E+01 -0.31769738941E+01 -0.20529935413E+02  0.21745488679E+02  0.47000000000E+01 0. -1.
         -5    1    1    2    0  503 -0.43823357574E+01  0.31769738941E+01 -0.24984184938E+03  0.24994466934E+03  0.47000000000E+01 0. -1.
<mgrwt>
<rscale>  2 0.71685445E+01</rscale>
<asrwt>0</asrwt>
<pdfrwt beam="1">  1       21 0.10141353E-03 0.71685445E+01</pdfrwt>
<pdfrwt beam="2">  1       21 0.41696990E-01 0.71685445E+01</pdfrwt>
<totfact> 0.27804893E+08</totfact>
</mgrwt>
</event>
<event>
 4    1  0.4144004E+006  0.5127571E+01  0.7546771E-02  0.2545009E+00
         21   -1    0    0  503  502  0.00000000000E+00  0.00000000000E+00  0.95150514324E+00  0.95150514324E+00  0.00000000000E+00 0. -1.
         21   -1    0    0  501  503 -0.00000000000E+00 -0.00000000000E+00 -0.29261213697E+02  0.29261213697E+02  0.00000000000E+00 0.  1.
          5    1    1    2  501    0 -0.20081812000E+01 -0.41132851589E+00 -0.17719395862E+02  0.18446381017E+02  0.47000000000E+01 0. -1.
         -5    1    1    2    0  502  0.20081812000E+01  0.41132851589E+00 -0.10590312691E+02  0.11766337824E+02  0.47000000000E+01 0.  1.
<mgrwt>
<rscale>  2 0.51275709E+01</rscale>
<asrwt>0</asrwt>
<pdfrwt beam="1">  1       21 0.14638544E-03 0.51275709E+01</pdfrwt>
<pdfrwt beam="2">  1       21 0.45017242E-02 0.51275709E+01</pdfrwt>
<totfact> 0.44175680E+09</totfact>
</mgrwt>
</event>
<event>
 4    1  0.4144004E+006  0.5272492E+01  0.7546771E-02  0.2520971E+00
         21   -1    0    0  503  502  0.00000000000E+00  0.00000000000E+00  0.21071990091E+02  0.21071990091E+02  0.00000000000E+00 0. -1.
         21   -1    0    0  501  503 -0.00000000000E+00 -0.00000000000E+00 -0.22024167180E+01  0.22024167180E+01  0.00000000000E+00 0. -1.
          5    1    1    2  501    0 -0.22858985424E+01 -0.69558645533E+00  0.20655787438E+01  0.56626661750E+01  0.47000000000E+01 0. -1.
         -5    1    1    2    0  502  0.22858985424E+01  0.69558645533E+00  0.16803994629E+02  0.17611740634E+02  0.47000000000E+01 0. -1.
<mgrwt>
<rscale>  2 0.52724921E+01</rscale>
<asrwt>0</asrwt>
<pdfrwt beam="1">  1       21 0.32418445E-02 0.52724921E+01</pdfrwt>
<pdfrwt beam="2">  1       21 0.33883336E-03 0.52724921E+01</pdfrwt>
<totfact> 0.23513929E+09</totfact>
</mgrwt>
</event>
<event>
 4    1  0.4144004E+006  0.5887168E+01  0.7546771E-02  0.2430344E+00
         21   -1    0    0  501  502  0.00000000000E+00  0.00000000000E+00  0.89668702566E+00  0.89668702566E+00  0.00000000000E+00 0.  1.
         21   -1    0    0  502  503 -0.00000000000E+00 -0.00000000000E+00 -0.66927001833E+02  0.66927001833E+02  0.00000000000E+00 0.  1.
          5    1    1    2  501    0 -0.34052869379E+01  0.98629013841E+00 -0.10973104359E+02  0.12452620874E+02  0.47000000000E+01 0.  1.
         -5    1    1    2    0  503  0.34052869379E+01 -0.98629013841E+00 -0.55057210449E+02  0.55371067985E+02  0.47000000000E+01 0.  1.
<mgrwt>
<rscale>  2 0.58871680E+01</rscale>
<asrwt>0</asrwt>
<pdfrwt beam="1">  1       21 0.13795188E-03 0.58871680E+01</pdfrwt>
<pdfrwt beam="2">  1       21 0.10296459E-01 0.58871680E+01</pdfrwt>
<totfact> 0.15779627E+09</totfact>
</mgrwt>
</event>
<event>
 4    1  0.4144004E+006  0.5923578E+01  0.7546771E-02  0.2425477E+00
         21   -1    0    0  501  502  0.00000000000E+00  0.00000000000E+00  0.28106514939E+03  0.28106514939E+03  0.00000000000E+00 0. -1.
         21   -1    0    0  502  503 -0.00000000000E+00 -0.00000000000E+00 -0.13602304046E+00  0.13602304046E+00  0.00000000000E+00 0. -1.
          5    1    1    2  501    0  0.32600975256E+01 -0.15396543716E+01  0.18077518604E+03  0.18087221085E+03  0.47000000000E+01 0. -1.
         -5    1    1    2    0  503 -0.32600975256E+01  0.15396543716E+01  0.10015394031E+03  0.10032896158E+03  0.47000000000E+01 0. -1.
<mgrwt>
<rscale>  2 0.59235776E+01</rscale>
<asrwt>0</asrwt>
<pdfrwt beam="1">  1       21 0.43240327E-01 0.59235776E+01</pdfrwt>
<pdfrwt beam="2">  1       21 0.20926847E-04 0.59235776E+01</pdfrwt>
<totfact> 0.19054640E+09</totfact>
</mgrwt>
</event>
<event>
 4    1  0.4144004E+006  0.7214995E+01  0.7546771E-02  0.2279850E+00
         21   -1    0    0  501  502  0.00000000000E+00  0.00000000000E+00  0.57449254781E+03  0.57449254781E+03  0.00000000000E+00 0. -1.
         21   -1    0    0  502  503 -0.00000000000E+00 -0.00000000000E+00 -0.92425900639E-01  0.92425900639E-01  0.00000000000E+00 0. -1.
          5    1    1    2  501    0 -0.50983219454E+01 -0.19933068592E+01  0.32744248393E+03  0.32752196329E+03  0.47000000000E+01 0. -1.
         -5    1    1    2    0  503  0.50983219454E+01  0.19933068592E+01  0.24695763799E+03  0.24706301042E+03  0.47000000000E+01 0. -1.
<mgrwt>
<rscale>  2 0.72149954E+01</rscale>
<asrwt>0</asrwt>
<pdfrwt beam="1">  1       21 0.88380610E-01 0.72149954E+01</pdfrwt>
<pdfrwt beam="2">  1       21 0.14219829E-04 0.72149954E+01</pdfrwt>
<totfact> 0.95652151E+08</totfact>
</mgrwt>
</event>
<event>
 4    1  0.4144004E+006  0.5537295E+01  0.7546771E-02  0.2479840E+00
         21   -1    0    0  501  502  0.00000000000E+00  0.00000000000E+00  0.78385700039E+00  0.78385700039E+00  0.00000000000E+00 0.  1.
         21   -1    0    0  502  503 -0.00000000000E+00 -0.00000000000E+00 -0.39131781694E+02  0.39131781694E+02  0.00000000000E+00 0. -1.
          5    1    1    2  501    0 -0.20849887178E+01 -0.20553485380E+01 -0.18777810838E+02  0.19577226959E+02  0.47000000000E+01 0. -1.
         -5    1    1    2    0  503  0.20849887178E+01  0.20553485380E+01 -0.19570113856E+02  0.20338411735E+02  0.47000000000E+01 0. -1.
<mgrwt>
<rscale>  2 0.55372950E+01</rscale>
<asrwt>0</asrwt>
<pdfrwt beam="1">  1       21 0.12059339E-03 0.55372950E+01</pdfrwt>
<pdfrwt beam="2">  1       21 0.60202741E-02 0.55372950E+01</pdfrwt>
<totfact> 0.40277579E+09</totfact>
</mgrwt>
</event>
<event>
 4    1  0.4144004E+006  0.5180236E+01  0.7546771E-02  0.2536140E+00
         21   -1    0    0  501  502  0.00000000000E+00  0.00000000000E+00  0.25305695191E+03  0.25305695191E+03  0.00000000000E+00 0.  1.
         21   -1    0    0  502  503 -0.00000000000E+00 -0.00000000000E+00 -0.12428692408E+00  0.12428692408E+00  0.00000000000E+00 0. -1.
          5    1    1    2  501    0  0.21760444759E+01 -0.98351709355E-01  0.17496742206E+03  0.17504409052E+03  0.47000000000E+01 0.  1.
         -5    1    1    2    0  503 -0.21760444759E+01  0.98351709355E-01  0.77965242930E+02  0.78137148321E+02  0.47000000000E+01 0. -1.
<mgrwt>
<rscale>  2 0.51802358E+01</rscale>
<asrwt>0</asrwt>
<pdfrwt beam="1">  1       21 0.38931426E-01 0.51802358E+01</pdfrwt>
<pdfrwt beam="2">  1       21 0.19121268E-04 0.51802358E+01</pdfrwt>
<totfact> 0.23097650E+09</totfact>
</mgrwt>
</event>
<event>
 4    1  0.4144004E+006  0.1867866E+02  0.7546771E-02  0.1772957E+00
         21   -1    0    0  503  502  0.00000000000E+00  0.00000000000E+00  0.14075736456E+02  0.14075736456E+02  0.00000000000E+00 0. -1.
         21   -1    0    0  501  503 -0.00000000000E+00 -0.00000000000E+00 -0.30493850705E+02  0.30493850705E+02  0.00000000000E+00 0.  1.
          5    1    1    2  501    0  0.18046674528E+02  0.10582929840E+01 -0.17849753319E+02  0.25836140174E+02  0.47000000000E+01 0.  1.
         -5    1    1    2    0  502 -0.18046674528E+02 -0.10582929840E+01  0.14316390706E+01  0.18733446986E+02  0.47000000000E+01 0. -1.
<mgrwt>
<rscale>  2 0.18678663E+02</rscale>
<asrwt>0</asrwt>
<pdfrwt beam="1">  1       21 0.21654979E-02 0.18678663E+02</pdfrwt>
<pdfrwt beam="2">  1       21 0.46913617E-02 0.18678663E+02</pdfrwt>
<totfact> 0.19609233E+08</totfact>
</mgrwt>
</event>
<event>
 4    1  0.4144004E+006  0.5531563E+01  0.7546771E-02  0.2480695E+00
         21   -1    0    0  503  502  0.00000000000E+00  0.00000000000E+00  0.56184392712E+00  0.56184392712E+00  0.00000000000E+00 0. -1.
         21   -1    0    0  501  503 -0.00000000000E+00 -0.00000000000E+00 -0.54639011219E+02  0.54639011219E+02  0.00000000000E+00 0. -1.
          5    1    1    2  501    0 -0.17905915260E+01 -0.23026015766E+01 -0.28617042851E+02  0.29146755112E+02  0.47000000000E+01 0. -1.
         -5    1    1    2    0  502  0.17905915260E+01  0.23026015766E+01 -0.25460124441E+02  0.26054100034E+02  0.47000000000E+01 0. -1.
<mgrwt>
<rscale>  2 0.55315633E+01</rscale>
<asrwt>0</asrwt>
<pdfrwt beam="1">  1       21 0.86437518E-04 0.55315633E+01</pdfrwt>
<pdfrwt beam="2">  1       21 0.84060026E-02 0.55315633E+01</pdfrwt>
<totfact> 0.38109144E+09</totfact>
</mgrwt>
</event>
<event>
 4    1  0.4144004E+006  0.5356741E+01  0.7546771E-02  0.2507510E+00
         21   -1    0    0  501  502  0.00000000000E+00  0.00000000000E+00  0.51236464237E+00  0.51236464237E+00  0.00000000000E+00 0. -1.
         21   -1    0    0  502  503 -0.00000000000E+00 -0.00000000000E+00 -0.56027557548E+02  0.56027557548E+02  0.00000000000E+00 0. -1.
          5    1    1    2  501    0  0.24801990302E+01 -0.67326869721E+00 -0.28332248449E+02  0.28834198102E+02  0.47000000000E+01 0. -1.
         -5    1    1    2    0  503 -0.24801990302E+01  0.67326869721E+00 -0.27182944456E+02  0.27705724089E+02  0.47000000000E+01 0. -1.
<mgrwt>
<rscale>  2 0.53567414E+01</rscale>
<asrwt>0</asrwt>
<pdfrwt beam="1">  1       21 0.78825365E-04 0.53567414E+01</pdfrwt>
<pdfrwt beam="2">  1       21 0.86196203E-02 0.53567414E+01</pdfrwt>
<totfact> 0.40252405E+09</totfact>
</mgrwt>
</event>
<event>
 4    1  0.4144004E+006  0.7520775E+01  0.7546771E-02  0.2251488E+00
         21   -1    0    0  503  502  0.00000000000E+00  0.00000000000E+00  0.23900271212E+03  0.23900271212E+03  0.00000000000E+00 0. -1.
         21   -1    0    0  501  503 -0.00000000000E+00 -0.00000000000E+00 -0.23936493656E+00  0.23936493656E+00  0.00000000000E+00 0.  1.
          5    1    1    2  501    0  0.54427578698E+01 -0.22019181176E+01  0.13210102762E+03  0.13231494079E+03  0.47000000000E+01 0.  1.
         -5    1    1    2    0  502 -0.54427578698E+01  0.22019181176E+01  0.10666231956E+03  0.10692713627E+03  0.47000000000E+01 0. -1.
<mgrwt>
<rscale>  2 0.75207750E+01</rscale>
<asrwt>0</asrwt>
<pdfrwt beam="1">  1       21 0.36769457E-01 0.75207750E+01</pdfrwt>
<pdfrwt beam="2">  1       21 0.36825566E-04 0.75207750E+01</pdfrwt>
<totfact> 0.14077123E+09</totfact>
</mgrwt>
</event>
<event>
 4    1  0.4144004E+006  0.5619448E+01  0.7546771E-02  0.2467751E+00
         21   -1    0    0  501  502  0.00000000000E+00  0.00000000000E+00  0.10903083259E+02  0.10903083259E+02  0.00000000000E+00 0.  1.
         21   -1    0    0  502  503 -0.00000000000E+00 -0.00000000000E+00 -0.54698148931E+01  0.54698148931E+01  0.00000000000E+00 0.  1.
          5    1    1    2  501    0 -0.10030407675E+00  0.30786575600E+01  0.83319700910E+01  0.10049871585E+02  0.47000000000E+01 0.  1.
         -5    1    1    2    0  503  0.10030407675E+00 -0.30786575600E+01 -0.28987017249E+01  0.63230265672E+01  0.47000000000E+01 0.  1.
<mgrwt>
<rscale>  2 0.56194478E+01</rscale>
<asrwt>0</asrwt>
<pdfrwt beam="1">  1       21 0.16773974E-02 0.56194478E+01</pdfrwt>
<pdfrwt beam="2">  1       21 0.84150999E-03 0.56194478E+01</pdfrwt>
<totfact> 0.18232028E+09</totfact>
</mgrwt>
</event>
<event>
 4    1  0.4144004E+006  0.5276787E+01  0.7546771E-02  0.2520276E+00
         21   -1    0    0  501  502  0.00000000000E+00  0.00000000000E+00  0.19007447567E+02  0.19007447567E+02  0.00000000000E+00 0. -1.
         21   -1    0    0  502  503 -0.00000000000E+00 -0.00000000000E+00 -0.15224788705E+01  0.15224788705E+01  0.00000000000E+00 0. -1.
          5    1    1    2  501    0 -0.23987920229E+01  0.16613474837E-01  0.10738299013E+02  0.11964762633E+02  0.47000000000E+01 0. -1.
         -5    1    1    2    0  503  0.23987920229E+01 -0.16613474837E-01  0.67466696838E+01  0.85651638046E+01  0.47000000000E+01 0. -1.
<mgrwt>
<rscale>  2 0.52767868E+01</rscale>
<asrwt>0</asrwt>
<pdfrwt beam="1">  1       21 0.29242225E-02 0.52767868E+01</pdfrwt>
<pdfrwt beam="2">  1       21 0.23422753E-03 0.52767868E+01</pdfrwt>
<totfact> 0.45126276E+09</totfact>
</mgrwt>
</event>
<event>
 4    1  0.4144004E+006  0.1406240E+02  0.7546771E-02  0.1898105E+00
         21   -1    0    0  503  502  0.00000000000E+00  0.00000000000E+00  0.23927544973E+00  0.23927544973E+00  0.00000000000E+00 0. -1.
         21   -1    0    0  501  503 -0.00000000000E+00 -0.00000000000E+00 -0.83849878492E+03  0.83849878492E+03  0.00000000000E+00 0.  1.
          5    1    1    2  501    0 -0.59086567911E+01  0.11863764633E+02 -0.36887576775E+03  0.36914371614E+03  0.47000000000E+01 0.  1.
         -5    1    1    2    0  502  0.59086567911E+01 -0.11863764633E+02 -0.46938374172E+03  0.46959434423E+03  0.47000000000E+01 0. -1.
<mgrwt>
<rscale>  2 0.14062402E+02</rscale>
<asrwt>0</asrwt>
<pdfrwt beam="1">  1       21 0.36811323E-04 0.14062402E+02</pdfrwt>
<pdfrwt beam="2">  1       21 0.12900081E+00 0.14062402E+02</pdfrwt>
<totfact> 0.16002894E+08</totfact>
</mgrwt>
</event>
<event>
 4    1  0.4144004E+006  0.6845842E+01  0.7546771E-02  0.2316821E+00
         21   -1    0    0  503  502  0.00000000000E+00  0.00000000000E+00  0.48912775651E+01  0.48912775651E+01  0.00000000000E+00 0. -1.
         21   -1    0    0  501  503 -0.00000000000E+00 -0.00000000000E+00 -0.23982492363E+02  0.23982492363E+02  0.00000000000E+00 0.  1.
          5    1    1    2  501    0 -0.17378110439E+00  0.49744706686E+01 -0.20732854213E+02  0.21833845335E+02  0.47000000000E+01 0.  1.
         -5    1    1    2    0  502  0.17378110439E+00 -0.49744706686E+01  0.16416394150E+01  0.70399245929E+01  0.47000000000E+01 0. -1.
<mgrwt>
<rscale>  2 0.68458424E+01</rscale>
<asrwt>0</asrwt>
<pdfrwt beam="1">  1       21 0.75250423E-03 0.68458424E+01</pdfrwt>
<pdfrwt beam="2">  1       21 0.36896143E-02 0.68458424E+01</pdfrwt>
<totfact> 0.79889662E+08</totfact>
</mgrwt>
</event>
<event>
 4    1  0.4144004E+006  0.6974963E+01  0.7546771E-02  0.2303525E+00
         21   -1    0    0  503  502  0.00000000000E+00  0.00000000000E+00  0.20689972228E+04  0.20689972228E+04  0.00000000000E+00 0. -1.
         21   -1    0    0  501  503 -0.00000000000E+00 -0.00000000000E+00 -0.38813089968E-01  0.38813089968E-01  0.00000000000E+00 0.  1.
          5    1    1    2  501    0 -0.39031864210E+01 -0.33653001064E+01  0.38497233403E+03  0.38503551535E+03  0.47000000000E+01 0. -1.
         -5    1    1    2    0  502  0.39031864210E+01  0.33653001064E+01  0.16839860756E+04  0.16840005205E+04  0.47000000000E+01 0. -1.
<mgrwt>
<rscale>  2 0.69749630E+01</rscale>
<asrwt>0</asrwt>
<pdfrwt beam="1">  1       21 0.31821895E+00 0.69749630E+01</pdfrwt>
<pdfrwt beam="2">  1       21 0.59729017E-05 0.69749630E+01</pdfrwt>
<totfact> 0.16434998E+08</totfact>
</mgrwt>
</event>
<event>
 4    1  0.4144004E+006  0.1106349E+02  0.7546771E-02  0.2019078E+00
         21   -1    0    0  501  502  0.00000000000E+00  0.00000000000E+00  0.97568179096E+01  0.97568179096E+01  0.00000000000E+00 0. -1.
         21   -1    0    0  502  503 -0.00000000000E+00 -0.00000000000E+00 -0.31407510028E+02  0.31407510028E+02  0.00000000000E+00 0.  1.
          5    1    1    2  501    0 -0.50299208444E+01 -0.86608767760E+01  0.51250739279E+01  0.12192918969E+02  0.47000000000E+01 0. -1.
         -5    1    1    2    0  503  0.50299208444E+01  0.86608767760E+01 -0.26775766047E+02  0.28971408969E+02  0.47000000000E+01 0.  1.
<mgrwt>
<rscale>  2 0.11063494E+02</rscale>
<asrwt>0</asrwt>
<pdfrwt beam="1">  1       21 0.15010489E-02 0.11063494E+02</pdfrwt>
<pdfrwt beam="2">  1       21 0.48319247E-02 0.11063494E+02</pdfrwt>
<totfact> 0.26169584E+08</totfact>
</mgrwt>
</event>
<event>
 4    1  0.4144004E+006  0.6149885E+01  0.7546771E-02  0.2396315E+00
         21   -1    0    0  501  502  0.00000000000E+00  0.00000000000E+00  0.29990324860E+01  0.29990324860E+01  0.00000000000E+00 0.  1.
         21   -1    0    0  502  503 -0.00000000000E+00 -0.00000000000E+00 -0.18602530053E+02  0.18602530053E+02  0.00000000000E+00 0. -1.
          5    1    1    2  501    0 -0.34051198925E+01  0.20337763709E+01 -0.16721148248E+01  0.63731511669E+01  0.47000000000E+01 0.  1.
         -5    1    1    2    0  503  0.34051198925E+01 -0.20337763709E+01 -0.13931382742E+02  0.15228411372E+02  0.47000000000E+01 0. -1.
<mgrwt>
<rscale>  2 0.61498852E+01</rscale>
<asrwt>0</asrwt>
<pdfrwt beam="1">  1       21 0.46138960E-03 0.61498852E+01</pdfrwt>
<pdfrwt beam="2">  1       21 0.28619278E-02 0.61498852E+01</pdfrwt>
<totfact> 0.21138765E+09</totfact>
</mgrwt>
</event>
<event>
 4    1  0.4144004E+006  0.5692972E+01  0.7546771E-02  0.2457183E+00
         21   -1    0    0  503  502  0.00000000000E+00  0.00000000000E+00  0.14453635400E+02  0.14453635400E+02  0.00000000000E+00 0. -1.
         21   -1    0    0  501  503 -0.00000000000E+00 -0.00000000000E+00 -0.13149977594E+02  0.13149977594E+02  0.00000000000E+00 0. -1.
          5    1    1    2  501    0  0.28964112257E+01  0.13895089510E+01 -0.11918273668E+02  0.13208148256E+02  0.47000000000E+01 0. -1.
         -5    1    1    2    0  502 -0.28964112257E+01 -0.13895089510E+01  0.13221931475E+02  0.14395464739E+02  0.47000000000E+01 0. -1.
<mgrwt>
<rscale>  2 0.56929723E+01</rscale>
<asrwt>0</asrwt>
<pdfrwt beam="1">  1       21 0.22236362E-02 0.56929723E+01</pdfrwt>
<pdfrwt beam="2">  1       21 0.20230735E-02 0.56929723E+01</pdfrwt>
<totfact> 0.35601669E+08</totfact>
</mgrwt>
</event>
<event>
 4    1  0.4144004E+006  0.5217013E+01  0.7546771E-02  0.2530038E+00
         21   -1    0    0  501  502  0.00000000000E+00  0.00000000000E+00  0.10491323959E+01  0.10491323959E+01  0.00000000000E+00 0. -1.
         21   -1    0    0  502  503 -0.00000000000E+00 -0.00000000000E+00 -0.28487697264E+02  0.28487697264E+02  0.00000000000E+00 0. -1.
          5    1    1    2  501    0 -0.78328466927E+00  0.21245456337E+01 -0.93050333192E+01  0.10667749252E+02  0.47000000000E+01 0. -1.
         -5    1    1    2    0  503  0.78328466927E+00 -0.21245456337E+01 -0.18133531549E+02  0.18869080408E+02  0.47000000000E+01 0. -1.
<mgrwt>
<rscale>  2 0.52170134E+01</rscale>
<asrwt>0</asrwt>
<pdfrwt beam="1">  1       21 0.16140497E-03 0.52170134E+01</pdfrwt>
<pdfrwt beam="2">  1       21 0.43827230E-02 0.52170134E+01</pdfrwt>
<totfact> 0.41011381E+09</totfact>
</mgrwt>
</event>
<event>
 4    1  0.4144004E+006  0.6934609E+01  0.7546771E-02  0.2307637E+00
         21   -1    0    0  503  502  0.00000000000E+00  0.00000000000E+00  0.11605304326E+02  0.11605304326E+02  0.00000000000E+00 0. -1.
         21   -1    0    0  501  503 -0.00000000000E+00 -0.00000000000E+00 -0.14570500947E+02  0.14570500947E+02  0.00000000000E+00 0. -1.
          5    1    1    2  501    0 -0.50136762501E+01 -0.92836306179E+00 -0.12554150722E+02  0.14342088686E+02  0.47000000000E+01 0. -1.
         -5    1    1    2    0  502  0.50136762501E+01  0.92836306179E+00  0.95889541007E+01  0.11833716587E+02  0.47000000000E+01 0. -1.
<mgrwt>
<rscale>  2 0.69346094E+01</rscale>
<asrwt>0</asrwt>
<pdfrwt beam="1">  1       21 0.17854314E-02 0.69346094E+01</pdfrwt>
<pdfrwt beam="2">  1       21 0.22416155E-02 0.69346094E+01</pdfrwt>
<totfact> 0.48720510E+08</totfact>
</mgrwt>
</event>
<event>
 4    1  0.4144004E+006  0.7093348E+01  0.7546771E-02  0.2291685E+00
         21   -1    0    0  501  502  0.00000000000E+00  0.00000000000E+00  0.72433715264E+01  0.72433715264E+01  0.00000000000E+00 0. -1.
         21   -1    0    0  502  503 -0.00000000000E+00 -0.00000000000E+00 -0.97556905830E+01  0.97556905830E+01  0.00000000000E+00 0. -1.
          5    1    1    2  501    0 -0.41678080161E+01 -0.32946878760E+01  0.33048583090E+01  0.78254508050E+01  0.47000000000E+01 0. -1.
         -5    1    1    2    0  503  0.41678080161E+01  0.32946878760E+01 -0.58171773656E+01  0.91736113043E+01  0.47000000000E+01 0. -1.
<mgrwt>
<rscale>  2 0.70933484E+01</rscale>
<asrwt>0</asrwt>
<pdfrwt beam="1">  1       21 0.11143648E-02 0.70933484E+01</pdfrwt>
<pdfrwt beam="2">  1       21 0.15008755E-02 0.70933484E+01</pdfrwt>
<totfact> 0.17420451E+09</totfact>
</mgrwt>
</event>
<event>
 4    1  0.4144004E+006  0.9143145E+01  0.7546771E-02  0.2127305E+00
         21   -1    0    0  503  502  0.00000000000E+00  0.00000000000E+00  0.22645379768E+01  0.22645379768E+01  0.00000000000E+00 0. -1.
         21   -1    0    0  501  503 -0.00000000000E+00 -0.00000000000E+00 -0.39798764331E+02  0.39798764331E+02  0.00000000000E+00 0.  1.
          5    1    1    2  501    0  0.50428836742E+01 -0.60063650752E+01 -0.24427715730E+02  0.26082760455E+02  0.47000000000E+01 0.  1.
         -5    1    1    2    0  502 -0.50428836742E+01  0.60063650752E+01 -0.13106510624E+02  0.15980541853E+02  0.47000000000E+01 0. -1.
<mgrwt>
<rscale>  2 0.91431448E+01</rscale>
<asrwt>0</asrwt>
<pdfrwt beam="1">  1       21 0.34839046E-03 0.91431448E+01</pdfrwt>
<pdfrwt beam="2">  1       21 0.61228867E-02 0.91431448E+01</pdfrwt>
<totfact> 0.13417354E+09</totfact>
</mgrwt>
</event>
<event>
 4    1  0.4144004E+006  0.5076529E+01  0.7546771E-02  0.2553754E+00
         21   -1    0    0  501  502  0.00000000000E+00  0.00000000000E+00  0.38125238991E+00  0.38125238991E+00  0.00000000000E+00 0. -1.
         21   -1    0    0  502  503 -0.00000000000E+00 -0.00000000000E+00 -0.74072039882E+02  0.74072039882E+02  0.00000000000E+00 0. -1.
          5    1    1    2  501    0 -0.15904537828E+01  0.10731276145E+01 -0.25838097000E+02  0.26332079346E+02  0.47000000000E+01 0. -1.
         -5    1    1    2    0  503  0.15904537828E+01 -0.10731276145E+01 -0.47852690493E+02  0.48121212926E+02  0.47000000000E+01 0. -1.
<mgrwt>
<rscale>  2 0.50765289E+01</rscale>
<asrwt>0</asrwt>
<pdfrwt beam="1">  1       21 0.58654177E-04 0.50765289E+01</pdfrwt>
<pdfrwt beam="2">  1       21 0.11395706E-01 0.50765289E+01</pdfrwt>
<totfact> 0.37019543E+09</totfact>
</mgrwt>
</event>
<event>
 4    1  0.4144004E+006  0.6393752E+01  0.7546771E-02  0.2366830E+00
         21   -1    0    0  503  502  0.00000000000E+00  0.00000000000E+00  0.69467228319E+00  0.69467228319E+00  0.00000000000E+00 0.  1.
         21   -1    0    0  501  503 -0.00000000000E+00 -0.00000000000E+00 -0.95756173502E+02  0.95756173502E+02  0.00000000000E+00 0. -1.
          5    1    1    2  501    0 -0.11200078583E+00  0.43333043413E+01 -0.77470899961E+02  0.77734293664E+02  0.47000000000E+01 0. -1.
         -5    1    1    2    0  502  0.11200078583E+00 -0.43333043413E+01 -0.17590601258E+02  0.18716552121E+02  0.47000000000E+01 0.  1.
<mgrwt>
<rscale>  2 0.63937525E+01</rscale>
<asrwt>0</asrwt>
<pdfrwt beam="1">  1       21 0.10687261E-03 0.63937525E+01</pdfrwt>
<pdfrwt beam="2">  1       21 0.14731725E-01 0.63937525E+01</pdfrwt>
<totfact> 0.13613524E+09</totfact>
</mgrwt>
</event>
<event>
 4    1  0.4144004E+006  0.4817496E+01  0.7546771E-02  0.2600585E+00
         21   -1    0    0  501  502  0.00000000000E+00  0.00000000000E+00  0.54975296708E+03  0.54975296708E+03  0.00000000000E+00 0. -1.
         21   -1    0    0  502  503 -0.00000000000E+00 -0.00000000000E+00 -0.44205662123E-01  0.44205662123E-01  0.00000000000E+00 0. -1.
          5    1    1    2  501    0 -0.35182561454E+00  0.99723952306E+00  0.33317790176E+03  0.33321272858E+03  0.47000000000E+01 0. -1.
         -5    1    1    2    0  503  0.35182561454E+00 -0.99723952306E+00  0.21653085966E+03  0.21658444416E+03  0.47000000000E+01 0. -1.
<mgrwt>
<rscale>  2 0.48174960E+01</rscale>
<asrwt>0</asrwt>
<pdfrwt beam="1">  1       21 0.84571904E-01 0.48174960E+01</pdfrwt>
<pdfrwt beam="2">  1       21 0.68013114E-05 0.48174960E+01</pdfrwt>
<totfact> 0.20864359E+09</totfact>
</mgrwt>
</event>
<event>
 4    1  0.4144004E+006  0.7147333E+01  0.7546771E-02  0.2286392E+00
         21   -1    0    0  501  502  0.00000000000E+00  0.00000000000E+00  0.15917503802E+01  0.15917503802E+01  0.00000000000E+00 0.  1.
         21   -1    0    0  502  503 -0.00000000000E+00 -0.00000000000E+00 -0.50643496041E+02  0.50643496041E+02  0.00000000000E+00 0.  1.
          5    1    1    2  501    0 -0.52243834133E+01 -0.13039148040E+01 -0.87189569183E+01  0.11274066951E+02  0.47000000000E+01 0.  1.
         -5    1    1    2    0  503  0.52243834133E+01  0.13039148040E+01 -0.40332788742E+02  0.40961179470E+02  0.47000000000E+01 0.  1.
<mgrwt>
<rscale>  2 0.71473335E+01</rscale>
<asrwt>0</asrwt>
<pdfrwt beam="1">  1       21 0.24488471E-03 0.71473335E+01</pdfrwt>
<pdfrwt beam="2">  1       21 0.77913059E-02 0.71473335E+01</pdfrwt>
<totfact> 0.12848409E+09</totfact>
</mgrwt>
</event>
<event>
 4    1  0.4144004E+006  0.6014661E+01  0.7546771E-02  0.2413519E+00
         21   -1    0    0  501  502  0.00000000000E+00  0.00000000000E+00  0.12096091225E+00  0.12096091225E+00  0.00000000000E+00 0. -1.
         21   -1    0    0  502  503 -0.00000000000E+00 -0.00000000000E+00 -0.31771424284E+03  0.31771424284E+03  0.00000000000E+00 0.  1.
          5    1    1    2  501    0 -0.32401201199E+01 -0.18941420987E+01 -0.19729038477E+03  0.19738204598E+03  0.47000000000E+01 0.  1.
         -5    1    1    2    0  503  0.32401201199E+01  0.18941420987E+01 -0.12030289716E+03  0.12045315777E+03  0.47000000000E+01 0.  1.
<mgrwt>
<rscale>  2 0.60146615E+01</rscale>
<asrwt>0</asrwt>
<pdfrwt beam="1">  1       21 0.18609418E-04 0.60146615E+01</pdfrwt>
<pdfrwt beam="2">  1       21 0.48878992E-01 0.60146615E+01</pdfrwt>
<totfact> 0.18126433E+09</totfact>
</mgrwt>
</event>
<event>
 4    1  0.4144004E+006  0.1011968E+02  0.7546771E-02  0.2068240E+00
         21   -1    0    0  501  502  0.00000000000E+00  0.00000000000E+00  0.15317760000E+04  0.15317760000E+04  0.00000000000E+00 0.  1.
         21   -1    0    0  502  503 -0.00000000000E+00 -0.00000000000E+00 -0.12503479413E+00  0.12503479413E+00  0.00000000000E+00 0. -1.
          5    1    1    2  501    0  0.49746312117E+01 -0.74545996218E+01  0.12883042146E+04  0.12883439593E+04  0.47000000000E+01 0.  1.
         -5    1    1    2    0  503 -0.49746312117E+01  0.74545996218E+01  0.24334675054E+03  0.24355707547E+03  0.47000000000E+01 0. -1.
<mgrwt>
<rscale>  2 0.10119684E+02</rscale>
<asrwt>0</asrwt>
<pdfrwt beam="1">  1       21 0.23564282E+00 0.10119684E+02</pdfrwt>
<pdfrwt beam="2">  1       21 0.19237349E-04 0.10119684E+02</pdfrwt>
<totfact> 0.84980021E+07</totfact>
</mgrwt>
</event>
<event>
 4    1  0.4144004E+006  0.6890608E+01  0.7546771E-02  0.2312165E+00
         21   -1    0    0  503  502  0.00000000000E+00  0.00000000000E+00  0.14940935834E+01  0.14940935834E+01  0.00000000000E+00 0.  1.
         21   -1    0    0  501  503 -0.00000000000E+00 -0.00000000000E+00 -0.42877756421E+02  0.42877756421E+02  0.00000000000E+00 0.  1.
          5    1    1    2  501    0  0.24916594640E+00  0.50327322530E+01 -0.31979464817E+02  0.32713401651E+02  0.47000000000E+01 0.  1.
         -5    1    1    2    0  502 -0.24916594640E+00 -0.50327322530E+01 -0.94041980203E+01  0.11658448353E+02  0.47000000000E+01 0.  1.
<mgrwt>
<rscale>  2 0.68906079E+01</rscale>
<asrwt>0</asrwt>
<pdfrwt beam="1">  1       21 0.22986055E-03 0.68906079E+01</pdfrwt>
<pdfrwt beam="2">  1       21 0.65965778E-02 0.68906079E+01</pdfrwt>
<totfact> 0.17588405E+09</totfact>
</mgrwt>
</event>
<event>
 4    1  0.4144004E+006  0.5128864E+01  0.7546771E-02  0.2544789E+00
         21   -1    0    0  501  502  0.00000000000E+00  0.00000000000E+00  0.70110578994E-01  0.70110578994E-01  0.00000000000E+00 0. -1.
         21   -1    0    0  502  503 -0.00000000000E+00 -0.00000000000E+00 -0.68986277729E+03  0.68986277729E+03  0.00000000000E+00 0. -1.
          5    1    1    2  501    0  0.78839255630E+00 -0.18957006921E+01 -0.11191528464E+03  0.11203274601E+03  0.47000000000E+01 0. -1.
         -5    1    1    2    0  503 -0.78839255630E+00  0.18957006921E+01 -0.57787738207E+03  0.57790014186E+03  0.47000000000E+01 0. -1.
<mgrwt>
<rscale>  2 0.51288638E+01</rscale>
<asrwt>0</asrwt>
<pdfrwt beam="1">  1       21 0.10785904E-04 0.51288638E+01</pdfrwt>
<pdfrwt beam="2">  1       21 0.10613607E+00 0.51288638E+01</pdfrwt>
<totfact> 0.75875877E+08</totfact>
</mgrwt>
</event>
<event>
 4    1  0.4144004E+006  0.5937636E+01  0.7546771E-02  0.2423612E+00
         21   -1    0    0  503  502  0.00000000000E+00  0.00000000000E+00  0.10430246908E+01  0.10430246908E+01  0.00000000000E+00 0.  1.
         21   -1    0    0  501  503 -0.00000000000E+00 -0.00000000000E+00 -0.23773463185E+03  0.23773463185E+03  0.00000000000E+00 0. -1.
          5    1    1    2  501    0 -0.36261300349E+01  0.12922806250E+00 -0.22892199931E+03  0.22899898971E+03  0.47000000000E+01 0. -1.
         -5    1    1    2    0  502  0.36261300349E+01 -0.12922806250E+00 -0.77696078524E+01  0.97786668366E+01  0.47000000000E+01 0.  1.
<mgrwt>
<rscale>  2 0.59376358E+01</rscale>
<asrwt>0</asrwt>
<pdfrwt beam="1">  1       21 0.16046523E-03 0.59376358E+01</pdfrwt>
<pdfrwt beam="2">  1       21 0.36574584E-01 0.59376358E+01</pdfrwt>
<totfact> 0.16696971E+08</totfact>
</mgrwt>
</event>
<event>
 4    1  0.4144004E+006  0.6911180E+01  0.7546771E-02  0.2310042E+00
         21   -1    0    0  501  502  0.00000000000E+00  0.00000000000E+00  0.10577050616E+03  0.10577050616E+03  0.00000000000E+00 0. -1.
         21   -1    0    0  502  503 -0.00000000000E+00 -0.00000000000E+00 -0.11195166929E+01  0.11195166929E+01  0.00000000000E+00 0.  1.
          5    1    1    2  501    0 -0.33581567106E+01  0.37943624999E+01  0.93607218459E+02  0.93862003766E+02  0.47000000000E+01 0. -1.
         -5    1    1    2    0  503  0.33581567106E+01 -0.37943624999E+01  0.11043771012E+02  0.13028019091E+02  0.47000000000E+01 0.  1.
<mgrwt>
<rscale>  2 0.69111796E+01</rscale>
<asrwt>0</asrwt>
<pdfrwt beam="1">  1       21 0.16272378E-01 0.69111796E+01</pdfrwt>
<pdfrwt beam="2">  1       21 0.17223342E-03 0.69111796E+01</pdfrwt>
<totfact> 0.64259117E+08</totfact>
</mgrwt>
</event>
<event>
 4    1  0.4144004E+006  0.6212337E+01  0.7546771E-02  0.2388581E+00
         21   -1    0    0  503  502  0.00000000000E+00  0.00000000000E+00  0.34018450066E+00  0.34018450066E+00  0.00000000000E+00 0. -1.
         21   -1    0    0  501  503 -0.00000000000E+00 -0.00000000000E+00 -0.13819436395E+03  0.13819436395E+03  0.00000000000E+00 0.  1.
          5    1    1    2  501    0 -0.99839541155E+00  0.39378087308E+01 -0.98238838605E+02  0.98435067641E+02  0.47000000000E+01 0.  1.
         -5    1    1    2    0  502  0.99839541155E+00 -0.39378087308E+01 -0.39615340840E+02  0.40099480805E+02  0.47000000000E+01 0. -1.
<mgrwt>
<rscale>  2 0.62123370E+01</rscale>
<asrwt>0</asrwt>
<pdfrwt beam="1">  1       21 0.52336078E-04 0.62123370E+01</pdfrwt>
<pdfrwt beam="2">  1       21 0.21260671E-01 0.62123370E+01</pdfrwt>
<totfact> 0.19284138E+09</totfact>
</mgrwt>
</event>
<event>
 4    1  0.4144004E+006  0.7652932E+01  0.7546771E-02  0.2239804E+00
         21   -1    0    0  501  502  0.00000000000E+00  0.00000000000E+00  0.90862906776E+02  0.90862906776E+02  0.00000000000E+00 0.  1.
         21   -1    0    0  502  503 -0.00000000000E+00 -0.00000000000E+00 -0.64962245931E+00  0.64962245931E+00  0.00000000000E+00 0.  1.
          5    1    1    2  501    0  0.30963236273E+01  0.51855717121E+01  0.41070812170E+02  0.41777733140E+02  0.47000000000E+01 0.  1.
         -5    1    1    2    0  503 -0.30963236273E+01 -0.51855717121E+01  0.49142472147E+02  0.49734796096E+02  0.47000000000E+01 0.  1.
<mgrwt>
<rscale>  2 0.76529324E+01</rscale>
<asrwt>0</asrwt>
<pdfrwt beam="1">  1       21 0.13978899E-01 0.76529324E+01</pdfrwt>
<pdfrwt beam="2">  1       21 0.99941989E-04 0.76529324E+01</pdfrwt>
<totfact> 0.18475586E+09</totfact>
</mgrwt>
</event>
<event>
 4    1  0.4144004E+006  0.7526563E+01  0.7546771E-02  0.2250970E+00
         21   -1    0    0  503  502  0.00000000000E+00  0.00000000000E+00  0.88008566562E+02  0.88008566562E+02  0.00000000000E+00 0.  1.
         21   -1    0    0  501  503 -0.00000000000E+00 -0.00000000000E+00 -0.10280373770E+01  0.10280373770E+01  0.00000000000E+00 0. -1.
          5    1    1    2  501    0  0.39551979568E+01 -0.43492026902E+01  0.16269330263E+02  0.17925966142E+02  0.47000000000E+01 0. -1.
         -5    1    1    2    0  502 -0.39551979568E+01  0.43492026902E+01  0.70711198922E+02  0.71110637797E+02  0.47000000000E+01 0.  1.
<mgrwt>
<rscale>  2 0.75265633E+01</rscale>
<asrwt>0</asrwt>
<pdfrwt beam="1">  1       21 0.13539774E-01 0.75265633E+01</pdfrwt>
<pdfrwt beam="2">  1       21 0.15815966E-03 0.75265633E+01</pdfrwt>
<totfact> 0.10263801E+09</totfact>
</mgrwt>
</event>
<event>
 4    1  0.4144004E+006  0.5763061E+01  0.7546771E-02  0.2447321E+00
         21   -1    0    0  501  502  0.00000000000E+00  0.00000000000E+00  0.55380367200E+01  0.55380367200E+01  0.00000000000E+00 0.  1.
         21   -1    0    0  502  503 -0.00000000000E+00 -0.00000000000E+00 -0.70274934747E+01  0.70274934747E+01  0.00000000000E+00 0. -1.
          5    1    1    2  501    0  0.83264182456E+00  0.32294855384E+01  0.16608812662E+01  0.59976158456E+01  0.47000000000E+01 0.  1.
         -5    1    1    2    0  503 -0.83264182456E+00 -0.32294855384E+01 -0.31503380210E+01  0.65679143491E+01  0.47000000000E+01 0. -1.
<mgrwt>
<rscale>  2 0.57630608E+01</rscale>
<asrwt>0</asrwt>
<pdfrwt beam="1">  1       21 0.85200565E-03 0.57630608E+01</pdfrwt>
<pdfrwt beam="2">  1       21 0.10811528E-02 0.57630608E+01</pdfrwt>
<totfact> 0.34149072E+09</totfact>
</mgrwt>
</event>
<event>
 4    1  0.4144004E+006  0.7065744E+01  0.7546771E-02  0.2294416E+00
         21   -1    0    0  503  502  0.00000000000E+00  0.00000000000E+00  0.17712447617E+01  0.17712447617E+01  0.00000000000E+00 0.  1.
         21   -1    0    0  501  503 -0.00000000000E+00 -0.00000000000E+00 -0.32258618840E+02  0.32258618840E+02  0.00000000000E+00 0. -1.
          5    1    1    2  501    0 -0.14621158817E+01  0.50692161469E+01 -0.21289173549E+02  0.22431086590E+02  0.47000000000E+01 0. -1.
         -5    1    1    2    0  502  0.14621158817E+01 -0.50692161469E+01 -0.91982005290E+01  0.11598777012E+02  0.47000000000E+01 0.  1.
<mgrwt>
<rscale>  2 0.70657438E+01</rscale>
<asrwt>0</asrwt>
<pdfrwt beam="1">  1       21 0.27249921E-03 0.70657438E+01</pdfrwt>
<pdfrwt beam="2">  1       21 0.49628642E-02 0.70657438E+01</pdfrwt>
<totfact> 0.21765106E+09</totfact>
</mgrwt>
</event>
<event>
 4    1  0.4144004E+006  0.6293926E+01  0.7546771E-02  0.2378670E+00
         21   -1    0    0  501  502  0.00000000000E+00  0.00000000000E+00  0.84642028659E+00  0.84642028659E+00  0.00000000000E+00 0. -1.
         21   -1    0    0  502  503 -0.00000000000E+00 -0.00000000000E+00 -0.44112591980E+03  0.44112591980E+03  0.00000000000E+00 0. -1.
          5    1    1    2  501    0  0.41780334883E+01  0.25988285396E+00 -0.11204942516E+02  0.12851624011E+02  0.47000000000E+01 0. -1.
         -5    1    1    2    0  503 -0.41780334883E+01 -0.25988285396E+00 -0.42907455700E+03  0.42912071608E+03  0.47000000000E+01 0. -1.
<mgrwt>
<rscale>  2 0.62939259E+01</rscale>
<asrwt>0</asrwt>
<pdfrwt beam="1">  1       21 0.13021819E-03 0.62939259E+01</pdfrwt>
<pdfrwt beam="2">  1       21 0.67865693E-01 0.62939259E+01</pdfrwt>
<totfact> 0.75192294E+07</totfact>
</mgrwt>
</event>
<event>
 4    1  0.4144004E+006  0.5849491E+01  0.7546771E-02  0.2435434E+00
         21   -1    0    0  501  502  0.00000000000E+00  0.00000000000E+00  0.11482421986E+03  0.11482421986E+03  0.00000000000E+00 0. -1.
         21   -1    0    0  502  503 -0.00000000000E+00 -0.00000000000E+00 -0.56526887086E+00  0.56526887086E+00  0.00000000000E+00 0. -1.
          5    1    1    2  501    0 -0.34819617407E+01 -0.49927821163E-01  0.96802056800E+02  0.96978630384E+02  0.47000000000E+01 0. -1.
         -5    1    1    2    0  503  0.34819617407E+01  0.49927821163E-01  0.17456894187E+02  0.18410858345E+02  0.47000000000E+01 0. -1.
<mgrwt>
<rscale>  2 0.58494915E+01</rscale>
<asrwt>0</asrwt>
<pdfrwt beam="1">  1       21 0.17665246E-01 0.58494915E+01</pdfrwt>
<pdfrwt beam="2">  1       21 0.86964533E-04 0.58494915E+01</pdfrwt>
<totfact> 0.12550790E+09</totfact>
</mgrwt>
</event>
<event>
 4    1  0.4144004E+006  0.5953177E+01  0.7546771E-02  0.2421558E+00
         21   -1    0    0  503  502  0.00000000000E+00  0.00000000000E+00  0.73832778964E-01  0.73832778964E-01  0.00000000000E+00 0. -1.
         21   -1    0    0  501  503 -0.00000000000E+00 -0.00000000000E+00 -0.48178869125E+03  0.48178869125E+03  0.00000000000E+00 0. -1.
          5    1    1    2  501    0  0.35205867300E+01  0.97764101138E+00 -0.25550543426E+03  0.25557477819E+03  0.47000000000E+01 0. -1.
         -5    1    1    2    0  502 -0.35205867300E+01 -0.97764101138E+00 -0.22620942421E+03  0.22628774583E+03  0.47000000000E+01 0. -1.
<mgrwt>
<rscale>  2 0.59531767E+01</rscale>
<asrwt>0</asrwt>
<pdfrwt beam="1">  1       21 0.11358831E-04 0.59531767E+01</pdfrwt>
<pdfrwt beam="2">  1       21 0.74121718E-01 0.59531767E+01</pdfrwt>
<totfact> 0.16039530E+09</totfact>
</mgrwt>
</event>
<event>
 4    1  0.4144004E+006  0.8921037E+01  0.7546771E-02  0.2142151E+00
         21   -1    0    0  501  502  0.00000000000E+00  0.00000000000E+00  0.16841723233E+02  0.16841723233E+02  0.00000000000E+00 0. -1.
         21   -1    0    0  502  503 -0.00000000000E+00 -0.00000000000E+00 -0.11940040287E+02  0.11940040287E+02  0.00000000000E+00 0.  1.
          5    1    1    2  501    0 -0.54601503724E+01  0.52613358346E+01  0.13637233395E+02  0.16295982067E+02  0.47000000000E+01 0.  1.
         -5    1    1    2    0  503  0.54601503724E+01 -0.52613358346E+01 -0.87355504495E+01  0.12485781454E+02  0.47000000000E+01 0. -1.
<mgrwt>
<rscale>  2 0.89210368E+01</rscale>
<asrwt>0</asrwt>
<pdfrwt beam="1">  1       21 0.25910343E-02 0.89210368E+01</pdfrwt>
<pdfrwt beam="2">  1       21 0.18369293E-02 0.89210368E+01</pdfrwt>
<totfact> 0.44387651E+08</totfact>
</mgrwt>
</event>
<event>
 4    1  0.4144004E+006  0.5004118E+01  0.7546771E-02  0.2566424E+00
         21   -1    0    0  501  502  0.00000000000E+00  0.00000000000E+00  0.12698174809E+02  0.12698174809E+02  0.00000000000E+00 0. -1.
         21   -1    0    0  502  503 -0.00000000000E+00 -0.00000000000E+00 -0.24437613015E+01  0.24437613015E+01  0.00000000000E+00 0. -1.
          5    1    1    2  501    0 -0.23826200419E+00 -0.17013022787E+01  0.84535630750E+01  0.98236412235E+01  0.47000000000E+01 0. -1.
         -5    1    1    2    0  503  0.23826200419E+00  0.17013022787E+01  0.18008504328E+01  0.53182948872E+01  0.47000000000E+01 0. -1.
<mgrwt>
<rscale>  2 0.50041181E+01</rscale>
<asrwt>0</asrwt>
<pdfrwt beam="1">  1       21 0.19535653E-02 0.50041181E+01</pdfrwt>
<pdfrwt beam="2">  1       21 0.37596328E-03 0.50041181E+01</pdfrwt>
<totfact> 0.39937357E+09</totfact>
</mgrwt>
</event>
<event>
 4    1  0.4144004E+006  0.4783288E+01  0.7546771E-02  0.2607096E+00
         21   -1    0    0  501  502  0.00000000000E+00  0.00000000000E+00  0.58814386344E+02  0.58814386344E+02  0.00000000000E+00 0.  1.
         21   -1    0    0  502  503 -0.00000000000E+00 -0.00000000000E+00 -0.40775034715E+00  0.40775034715E+00  0.00000000000E+00 0.  1.
          5    1    1    2  501    0 -0.91687042662E-02 -0.88868233648E+00  0.35550133601E+02  0.35870487025E+02  0.47000000000E+01 0. -1.
         -5    1    1    2    0  503  0.91687042662E-02  0.88868233648E+00  0.22856502397E+02  0.23351649667E+02  0.47000000000E+01 0. -1.
<mgrwt>
<rscale>  2 0.47832876E+01</rscale>
<asrwt>0</asrwt>
<pdfrwt beam="1">  1       21 0.90483604E-02 0.47832876E+01</pdfrwt>
<pdfrwt beam="2">  1       21 0.62730869E-04 0.47832876E+01</pdfrwt>
<totfact> 0.45173753E+09</totfact>
</mgrwt>
</event>
<event>
 4    1  0.4144004E+006  0.7303241E+01  0.7546771E-02  0.2271467E+00
         21   -1    0    0  501  502  0.00000000000E+00  0.00000000000E+00  0.47803375022E+02  0.47803375022E+02  0.00000000000E+00 0.  1.
         21   -1    0    0  502  503 -0.00000000000E+00 -0.00000000000E+00 -0.52597532099E+01  0.52597532099E+01  0.00000000000E+00 0. -1.
          5    1    1    2  501    0  0.48015859083E+01  0.28621858448E+01  0.44821730196E+02  0.45412826744E+02  0.47000000000E+01 0.  1.
         -5    1    1    2    0  503 -0.48015859083E+01 -0.28621858448E+01 -0.22781083847E+01  0.76503014880E+01  0.47000000000E+01 0. -1.
<mgrwt>
<rscale>  2 0.73032414E+01</rscale>
<asrwt>0</asrwt>
<pdfrwt beam="1">  1       21 0.73543651E-02 0.73032414E+01</pdfrwt>
<pdfrwt beam="2">  1       21 0.80919283E-03 0.73032414E+01</pdfrwt>
<totfact> 0.26709052E+08</totfact>
</mgrwt>
</event>
<event>
 4    1  0.4144004E+006  0.6357906E+01  0.7546771E-02  0.2371046E+00
         21   -1    0    0  501  502  0.00000000000E+00  0.00000000000E+00  0.93538556931E+00  0.93538556931E+00  0.00000000000E+00 0. -1.
         21   -1    0    0  502  503 -0.00000000000E+00 -0.00000000000E+00 -0.43235031311E+02  0.43235031311E+02  0.00000000000E+00 0.  1.
          5    1    1    2  501    0 -0.27533805594E+01  0.32790031495E+01 -0.20677995459E+02  0.21633364564E+02  0.47000000000E+01 0. -1.
         -5    1    1    2    0  503  0.27533805594E+01 -0.32790031495E+01 -0.21621650283E+02  0.22537052316E+02  0.47000000000E+01 0. -1.
<mgrwt>
<rscale>  2 0.63579058E+01</rscale>
<asrwt>0</asrwt>
<pdfrwt beam="1">  1       21 0.14390553E-03 0.63579058E+01</pdfrwt>
<pdfrwt beam="2">  1       21 0.66515404E-02 0.63579058E+01</pdfrwt>
<totfact> 0.30890668E+09</totfact>
</mgrwt>
</event>
<event>
 4    1  0.4144004E+006  0.5575028E+01  0.7546771E-02  0.2474250E+00
         21   -1    0    0  501  502  0.00000000000E+00  0.00000000000E+00  0.33329397488E+00  0.33329397488E+00  0.00000000000E+00 0.  1.
         21   -1    0    0  502  503 -0.00000000000E+00 -0.00000000000E+00 -0.93835463788E+02  0.93835463788E+02  0.00000000000E+00 0. -1.
          5    1    1    2  501    0 -0.29898918393E+01  0.22689574662E+00 -0.43044076979E+02  0.43403611576E+02  0.47000000000E+01 0.  1.
         -5    1    1    2    0  503  0.29898918393E+01 -0.22689574662E+00 -0.50458092835E+02  0.50765146187E+02  0.47000000000E+01 0. -1.
<mgrwt>
<rscale>  2 0.55750278E+01</rscale>
<asrwt>0</asrwt>
<pdfrwt beam="1">  1       21 0.51275936E-04 0.55750278E+01</pdfrwt>
<pdfrwt beam="2">  1       21 0.14436242E-01 0.55750278E+01</pdfrwt>
<totfact> 0.33557574E+09</totfact>
</mgrwt>
</event>
<event>
 4    1  0.4144004E+006  0.5416916E+01  0.7546771E-02  0.2498114E+00
         21   -1    0    0  503  502  0.00000000000E+00  0.00000000000E+00  0.13675386893E+01  0.13675386893E+01  0.00000000000E+00 0. -1.
         21   -1    0    0  501  503 -0.00000000000E+00 -0.00000000000E+00 -0.28881075744E+02  0.28881075744E+02  0.00000000000E+00 0. -1.
          5    1    1    2  501    0 -0.15142949569E+01  0.22270807198E+01 -0.21425021280E+02  0.22099197148E+02  0.47000000000E+01 0. -1.
         -5    1    1    2    0  502  0.15142949569E+01 -0.22270807198E+01 -0.60885157753E+01  0.81494172857E+01  0.47000000000E+01 0. -1.
<mgrwt>
<rscale>  2 0.54169159E+01</rscale>
<asrwt>0</asrwt>
<pdfrwt beam="1">  1       21 0.21039059E-03 0.54169159E+01</pdfrwt>
<pdfrwt beam="2">  1       21 0.44432419E-02 0.54169159E+01</pdfrwt>
<totfact> 0.29182916E+09</totfact>
</mgrwt>
</event>
<event>
 4    1  0.4144004E+006  0.6281276E+01  0.7546771E-02  0.2380192E+00
         21   -1    0    0  501  502  0.00000000000E+00  0.00000000000E+00  0.69332669659E+00  0.69332669659E+00  0.00000000000E+00 0. -1.
         21   -1    0    0  502  503 -0.00000000000E+00 -0.00000000000E+00 -0.22442689234E+03  0.22442689234E+03  0.00000000000E+00 0. -1.
          5    1    1    2  501    0  0.17162051829E+01  0.37972446729E+01 -0.14618579043E+02  0.15910917025E+02  0.47000000000E+01 0. -1.
         -5    1    1    2    0  503 -0.17162051829E+01 -0.37972446729E+01 -0.20911498660E+03  0.20920930201E+03  0.47000000000E+01 0. -1.
<mgrwt>
<rscale>  2 0.62812759E+01</rscale>
<asrwt>0</asrwt>
<pdfrwt beam="1">  1       21 0.10666557E-03 0.62812759E+01</pdfrwt>
<pdfrwt beam="2">  1       21 0.34527239E-01 0.62812759E+01</pdfrwt>
<totfact> 0.33227568E+08</totfact>
</mgrwt>
</event>
<event>
 4    1  0.4144004E+006  0.4855014E+01  0.7546771E-02  0.2593535E+00
         21   -1    0    0  503  502  0.00000000000E+00  0.00000000000E+00  0.81270868265E+00  0.81270868265E+00  0.00000000000E+00 0.  1.
         21   -1    0    0  501  503 -0.00000000000E+00 -0.00000000000E+00 -0.46175497200E+02  0.46175497200E+02  0.00000000000E+00 0.  1.
          5    1    1    2  501    0 -0.11698345503E+01  0.33563259233E+00 -0.37008785653E+02  0.37325880802E+02  0.47000000000E+01 0.  1.
         -5    1    1    2    0  502  0.11698345503E+01 -0.33563259233E+00 -0.83540028641E+01  0.96623250807E+01  0.47000000000E+01 0.  1.
<mgrwt>
<rscale>  2 0.48550141E+01</rscale>
<asrwt>0</asrwt>
<pdfrwt beam="1">  1       21 0.12503211E-03 0.48550141E+01</pdfrwt>
<pdfrwt beam="2">  1       21 0.71039222E-02 0.48550141E+01</pdfrwt>
<totfact> 0.26377952E+09</totfact>
</mgrwt>
</event>
<event>
 4    1  0.4144004E+006  0.4968961E+01  0.7546771E-02  0.2572690E+00
         21   -1    0    0  501  502  0.00000000000E+00  0.00000000000E+00  0.15528094250E+02  0.15528094250E+02  0.00000000000E+00 0.  1.
         21   -1    0    0  502  503 -0.00000000000E+00 -0.00000000000E+00 -0.82507498882E+01  0.82507498882E+01  0.00000000000E+00 0.  1.
          5    1    1    2  501    0  0.16086978340E+01  0.11252164489E+00  0.14321191996E+02  0.15158730489E+02  0.47000000000E+01 0.  1.
         -5    1    1    2    0  503 -0.16086978340E+01 -0.11252164489E+00 -0.70438476341E+01  0.86201136497E+01  0.47000000000E+01 0.  1.
<mgrwt>
<rscale>  2 0.49689606E+01</rscale>
<asrwt>0</asrwt>
<pdfrwt beam="1">  1       21 0.23889376E-02 0.49689606E+01</pdfrwt>
<pdfrwt beam="2">  1       21 0.12693461E-02 0.49689606E+01</pdfrwt>
<totfact> 0.55384474E+08</totfact>
</mgrwt>
</event>
<event>
 4    1  0.4144004E+006  0.5723568E+01  0.7546771E-02  0.2452853E+00
         21   -1    0    0  501  502  0.00000000000E+00  0.00000000000E+00  0.11330898523E+02  0.11330898523E+02  0.00000000000E+00 0.  1.
         21   -1    0    0  502  503 -0.00000000000E+00 -0.00000000000E+00 -0.30009635308E+01  0.30009635308E+01  0.00000000000E+00 0.  1.
          5    1    1    2  501    0  0.13568173910E+01 -0.29712413087E+01  0.55358096627E+01  0.79626890539E+01  0.47000000000E+01 0.  1.
         -5    1    1    2    0  503 -0.13568173910E+01  0.29712413087E+01  0.27941253295E+01  0.63691730000E+01  0.47000000000E+01 0.  1.
<mgrwt>
<rscale>  2 0.57235678E+01</rscale>
<asrwt>0</asrwt>
<pdfrwt beam="1">  1       21 0.17432151E-02 0.57235678E+01</pdfrwt>
<pdfrwt beam="2">  1       21 0.46168670E-03 0.57235678E+01</pdfrwt>
<totfact> 0.40454006E+09</totfact>
</mgrwt>
</event>
<event>
 4    1  0.4144004E+006  0.4953487E+01  0.7546771E-02  0.2575472E+00
         21   -1    0    0  501  502  0.00000000000E+00  0.00000000000E+00  0.93695585069E+00  0.93695585069E+00  0.00000000000E+00 0. -1.
         21   -1    0    0  502  503 -0.00000000000E+00 -0.00000000000E+00 -0.40230945390E+02  0.40230945390E+02  0.00000000000E+00 0. -1.
          5    1    1    2  501    0  0.33383158694E+00 -0.15282649045E+01 -0.74857760405E+01  0.89762954539E+01  0.47000000000E+01 0. -1.
         -5    1    1    2    0  503 -0.33383158694E+00  0.15282649045E+01 -0.31808213498E+02  0.32191605786E+02  0.47000000000E+01 0. -1.
<mgrwt>
<rscale>  2 0.49534874E+01</rscale>
<asrwt>0</asrwt>
<pdfrwt beam="1">  1       21 0.14414709E-03 0.49534874E+01</pdfrwt>
<pdfrwt beam="2">  1       21 0.61893745E-02 0.49534874E+01</pdfrwt>
<totfact> 0.27299651E+09</totfact>
</mgrwt>
</event>
<event>
 4    1  0.4144004E+006  0.5157697E+01  0.7546771E-02  0.2539917E+00
         21   -1    0    0  501  502  0.00000000000E+00  0.00000000000E+00  0.36679407284E+01  0.36679407284E+01  0.00000000000E+00 0. -1.
         21   -1    0    0  502  503 -0.00000000000E+00 -0.00000000000E+00 -0.13874473638E+02  0.13874473638E+02  0.00000000000E+00 0. -1.
          5    1    1    2  501    0  0.32227685894E+00 -0.20995171458E+01  0.95633401388E+00  0.52456085791E+01  0.47000000000E+01 0. -1.
         -5    1    1    2    0  503 -0.32227685894E+00  0.20995171458E+01 -0.11162866923E+02  0.12296805787E+02  0.47000000000E+01 0. -1.
<mgrwt>
<rscale>  2 0.51576966E+01</rscale>
<asrwt>0</asrwt>
<pdfrwt beam="1">  1       21 0.56429857E-03 0.51576966E+01</pdfrwt>
<pdfrwt beam="2">  1       21 0.21345344E-02 0.51576966E+01</pdfrwt>
<totfact> 0.20797809E+09</totfact>
</mgrwt>
</event>
<event>
 4    1  0.4144004E+006  0.5937636E+01  0.7546771E-02  0.2423612E+00
         21   -1    0    0  503  502  0.00000000000E+00  0.00000000000E+00  0.43207545840E+01  0.43207545840E+01  0.00000000000E+00 0. -1.
         21   -1    0    0  501  503 -0.00000000000E+00 -0.00000000000E+00 -0.84462076739E+01  0.84462076739E+01  0.00000000000E+00 0. -1.
          5    1    1    2  501    0 -0.20637719193E+01  0.29843540416E+01 -0.88677585562E+00  0.60034902348E+01  0.47000000000E+01 0. -1.
         -5    1    1    2    0  502  0.20637719193E+01 -0.29843540416E+01 -0.32386772342E+01  0.67634720232E+01  0.47000000000E+01 0. -1.
<mgrwt>
<rscale>  2 0.59376362E+01</rscale>
<asrwt>0</asrwt>
<pdfrwt beam="1">  1       21 0.66473149E-03 0.59376362E+01</pdfrwt>
<pdfrwt beam="2">  1       21 0.12994165E-02 0.59376362E+01</pdfrwt>
<totfact> 0.38294083E+09</totfact>
</mgrwt>
</event>
<event>
 4    1  0.4144004E+006  0.5093079E+01  0.7546771E-02  0.2550902E+00
         21   -1    0    0  501  502  0.00000000000E+00  0.00000000000E+00  0.39106474788E-01  0.39106474788E-01  0.00000000000E+00 0. -1.
         21   -1    0    0  502  503 -0.00000000000E+00 -0.00000000000E+00 -0.78315750421E+03  0.78315750421E+03  0.00000000000E+00 0. -1.
          5    1    1    2  501    0  0.15590048101E+01  0.11911998801E+01 -0.23836479104E+03  0.23841919608E+03  0.47000000000E+01 0.  1.
         -5    1    1    2    0  503 -0.15590048101E+01 -0.11911998801E+01 -0.54475360670E+03  0.54477741460E+03  0.47000000000E+01 0.  1.
<mgrwt>
<rscale>  2 0.50930789E+01</rscale>
<asrwt>0</asrwt>
<pdfrwt beam="1">  1       21 0.60157958E-05 0.50930789E+01</pdfrwt>
<pdfrwt beam="2">  1       21 0.12049748E+00 0.50930789E+01</pdfrwt>
<totfact> 0.12679786E+09</totfact>
</mgrwt>
</event>
<event>
 4    1  0.4144004E+006  0.5350843E+01  0.7546771E-02  0.2508440E+00
         21   -1    0    0  501  502  0.00000000000E+00  0.00000000000E+00  0.90124360103E+02  0.90124360103E+02  0.00000000000E+00 0. -1.
         21   -1    0    0  502  503 -0.00000000000E+00 -0.00000000000E+00 -0.33981337505E+00  0.33981337505E+00  0.00000000000E+00 0.  1.
          5    1    1    2  501    0  0.74857209599E-01  0.25565444147E+01  0.33350797727E+02  0.33777318306E+02  0.47000000000E+01 0. -1.
         -5    1    1    2    0  503 -0.74857209599E-01 -0.25565444147E+01  0.56433749001E+02  0.56686855172E+02  0.47000000000E+01 0. -1.
<mgrwt>
<rscale>  2 0.53508432E+01</rscale>
<asrwt>0</asrwt>
<pdfrwt beam="1">  1       21 0.13865267E-01 0.53508432E+01</pdfrwt>
<pdfrwt beam="2">  1       21 0.52279053E-04 0.53508432E+01</pdfrwt>
<totfact> 0.33545842E+09</totfact>
</mgrwt>
</event>
<event>
 4    1  0.4144004E+006  0.6903918E+01  0.7546771E-02  0.2310791E+00
         21   -1    0    0  501  502  0.00000000000E+00  0.00000000000E+00  0.60738227141E+02  0.60738227141E+02  0.00000000000E+00 0. -1.
         21   -1    0    0  502  503 -0.00000000000E+00 -0.00000000000E+00 -0.89435619520E+00  0.89435619520E+00  0.00000000000E+00 0. -1.
          5    1    1    2  501    0 -0.52950775047E+00  0.50292844821E+01  0.40710175230E+02  0.41291433108E+02  0.47000000000E+01 0. -1.
         -5    1    1    2    0  503  0.52950775047E+00 -0.50292844821E+01  0.19133695716E+02  0.20341150229E+02  0.47000000000E+01 0. -1.
<mgrwt>
<rscale>  2 0.69039178E+01</rscale>
<asrwt>0</asrwt>
<pdfrwt beam="1">  1       21 0.93443394E-02 0.69039178E+01</pdfrwt>
<pdfrwt beam="2">  1       21 0.13759331E-03 0.69039178E+01</pdfrwt>
<totfact> 0.20870705E+09</totfact>
</mgrwt>
</event>
<event>
 4    1  0.4144004E+006  0.4840576E+01  0.7546771E-02  0.2596237E+00
         21   -1    0    0  501  502  0.00000000000E+00  0.00000000000E+00  0.39732259047E+02  0.39732259047E+02  0.00000000000E+00 0. -1.
         21   -1    0    0  502  503 -0.00000000000E+00 -0.00000000000E+00 -0.59515978578E+00  0.59515978578E+00  0.00000000000E+00 0. -1.
          5    1    1    2  501    0 -0.11512183002E+01  0.12597133218E+00  0.21495092118E+02  0.22033387337E+02  0.47000000000E+01 0. -1.
         -5    1    1    2    0  503  0.11512183002E+01 -0.12597133218E+00  0.17642007143E+02  0.18294031496E+02  0.47000000000E+01 0. -1.
<mgrwt>
<rscale>  2 0.48405756E+01</rscale>
<asrwt>0</asrwt>
<pdfrwt beam="1">  1       21 0.61126532E-02 0.48405756E+01</pdfrwt>
<pdfrwt beam="2">  1       21 0.91563075E-04 0.48405756E+01</pdfrwt>
<totfact> 0.49644946E+09</totfact>
</mgrwt>
</event>
<event>
 4    1  0.4144004E+006  0.5872982E+01  0.7546771E-02  0.2432254E+00
         21   -1    0    0  501  502  0.00000000000E+00  0.00000000000E+00  0.79315822584E+02  0.79315822584E+02  0.00000000000E+00 0. -1.
         21   -1    0    0  502  503 -0.00000000000E+00 -0.00000000000E+00 -0.70568578882E+00  0.70568578882E+00  0.00000000000E+00 0. -1.
          5    1    1    2  501    0 -0.44911701655E+00  0.34928793215E+01  0.64091251681E+02  0.64359773571E+02  0.47000000000E+01 0. -1.
         -5    1    1    2    0  503  0.44911701655E+00 -0.34928793215E+01  0.14518885114E+02  0.15661734802E+02  0.47000000000E+01 0. -1.
<mgrwt>
<rscale>  2 0.58729815E+01</rscale>
<asrwt>0</asrwt>
<pdfrwt beam="1">  1       21 0.12202427E-01 0.58729815E+01</pdfrwt>
<pdfrwt beam="2">  1       21 0.10856711E-03 0.58729815E+01</pdfrwt>
<totfact> 0.16728741E+09</totfact>
</mgrwt>
</event>
<event>
 4    1  0.4144004E+006  0.4893856E+01  0.7546771E-02  0.2586335E+00
         21   -1    0    0  501  502  0.00000000000E+00  0.00000000000E+00  0.10986047894E+03  0.10986047894E+03  0.00000000000E+00 0.  1.
         21   -1    0    0  502  503 -0.00000000000E+00 -0.00000000000E+00 -0.10884368837E+01  0.10884368837E+01  0.00000000000E+00 0.  1.
          5    1    1    2  501    0 -0.13599332857E+01  0.10200318306E+00  0.10399491476E+03  0.10411000009E+03  0.47000000000E+01 0.  1.
         -5    1    1    2    0  503  0.13599332857E+01 -0.10200318306E+00  0.47771272985E+01  0.68389157340E+01  0.47000000000E+01 0.  1.
<mgrwt>
<rscale>  2 0.48938557E+01</rscale>
<asrwt>0</asrwt>
<pdfrwt beam="1">  1       21 0.16901603E-01 0.48938557E+01</pdfrwt>
<pdfrwt beam="2">  1       21 0.16745191E-03 0.48938557E+01</pdfrwt>
<totfact> 0.48210082E+08</totfact>
</mgrwt>
</event>
<event>
 4    1  0.4144004E+006  0.5130623E+01  0.7546771E-02  0.2544490E+00
         21   -1    0    0  503  502  0.00000000000E+00  0.00000000000E+00  0.11187953666E+01  0.11187953666E+01  0.00000000000E+00 0. -1.
         21   -1    0    0  501  503 -0.00000000000E+00 -0.00000000000E+00 -0.23611131061E+02  0.23611131061E+02  0.00000000000E+00 0. -1.
          5    1    1    2  501    0  0.19968948499E+01  0.49568457686E+00 -0.10513556859E+02  0.11698639668E+02  0.47000000000E+01 0. -1.
         -5    1    1    2    0  502 -0.19968948499E+01 -0.49568457686E+00 -0.11978778836E+02  0.13031286760E+02  0.47000000000E+01 0. -1.
<mgrwt>
<rscale>  2 0.51306230E+01</rscale>
<asrwt>0</asrwt>
<pdfrwt beam="1">  1       21 0.17212235E-03 0.51306230E+01</pdfrwt>
<pdfrwt beam="2">  1       21 0.36324821E-02 0.51306230E+01</pdfrwt>
<totfact> 0.48581466E+09</totfact>
</mgrwt>
</event>
<event>
 4    1  0.4144004E+006  0.4997265E+01  0.7546771E-02  0.2567639E+00
         21   -1    0    0  501  502  0.00000000000E+00  0.00000000000E+00  0.86956736230E+02  0.86956736230E+02  0.00000000000E+00 0. -1.
         21   -1    0    0  502  503 -0.00000000000E+00 -0.00000000000E+00 -0.31208712008E+00  0.31208712008E+00  0.00000000000E+00 0. -1.
          5    1    1    2  501    0 -0.96251130461E+00 -0.13986513456E+01  0.55648008793E+02  0.55871938719E+02  0.47000000000E+01 0. -1.
         -5    1    1    2    0  503  0.96251130461E+00  0.13986513456E+01  0.30996640316E+02  0.31396884631E+02  0.47000000000E+01 0. -1.
<mgrwt>
<rscale>  2 0.49972646E+01</rscale>
<asrwt>0</asrwt>
<pdfrwt beam="1">  1       21 0.13377940E-01 0.49972646E+01</pdfrwt>
<pdfrwt beam="2">  1       21 0.48013473E-04 0.49972646E+01</pdfrwt>
<totfact> 0.37155104E+09</totfact>
</mgrwt>
</event>
<event>
 4    1  0.4144004E+006  0.5948379E+01  0.7546771E-02  0.2422191E+00
         21   -1    0    0  501  502  0.00000000000E+00  0.00000000000E+00  0.69544104878E+01  0.69544104878E+01  0.00000000000E+00 0. -1.
         21   -1    0    0  502  503 -0.00000000000E+00 -0.00000000000E+00 -0.51124639843E+01  0.51124639843E+01  0.00000000000E+00 0. -1.
          5    1    1    2  501    0 -0.17853056006E+01  0.31789766025E+01  0.13393551533E+01  0.60973010877E+01  0.47000000000E+01 0. -1.
         -5    1    1    2    0  503  0.17853056006E+01 -0.31789766025E+01  0.50259135016E+00  0.59695733845E+01  0.47000000000E+01 0. -1.
<mgrwt>
<rscale>  2 0.59483786E+01</rscale>
<asrwt>0</asrwt>
<pdfrwt beam="1">  1       21 0.10699093E-02 0.59483786E+01</pdfrwt>
<pdfrwt beam="2">  1       21 0.78653292E-03 0.59483786E+01</pdfrwt>
<totfact> 0.39907796E+09</totfact>
</mgrwt>
</event>
<event>
 4    1  0.4144004E+006  0.5348192E+01  0.7546771E-02  0.2508859E+00
         21   -1    0    0  501  502  0.00000000000E+00  0.00000000000E+00  0.28190442652E+02  0.28190442652E+02  0.00000000000E+00 0. -1.
         21   -1    0    0  502  503 -0.00000000000E+00 -0.00000000000E+00 -0.21544127733E+01  0.21544127733E+01  0.00000000000E+00 0. -1.
          5    1    1    2  501    0  0.18998705278E+01 -0.17040097208E+01  0.24053710601E+02  0.24641106932E+02  0.47000000000E+01 0. -1.
         -5    1    1    2    0  503 -0.18998705278E+01  0.17040097208E+01  0.19823192769E+01  0.57037484926E+01  0.47000000000E+01 0. -1.
<mgrwt>
<rscale>  2 0.53481920E+01</rscale>
<asrwt>0</asrwt>
<pdfrwt beam="1">  1       21 0.43369909E-02 0.53481920E+01</pdfrwt>
<pdfrwt beam="2">  1       21 0.33144814E-03 0.53481920E+01</pdfrwt>
<totfact> 0.16095994E+09</totfact>
</mgrwt>
</event>
<event>
 4    1  0.4144004E+006  0.5817073E+01  0.7546771E-02  0.2439858E+00
         21   -1    0    0  501  502  0.00000000000E+00  0.00000000000E+00  0.31367564754E+02  0.31367564754E+02  0.00000000000E+00 0.  1.
         21   -1    0    0  502  503 -0.00000000000E+00 -0.00000000000E+00 -0.15544555962E+01  0.15544555962E+01  0.00000000000E+00 0.  1.
          5    1    1    2  501    0  0.33434670608E+01 -0.75469491893E+00  0.24012563510E+02  0.24707115225E+02  0.47000000000E+01 0.  1.
         -5    1    1    2    0  503 -0.33434670608E+01  0.75469491893E+00  0.58005456478E+01  0.82149051254E+01  0.47000000000E+01 0.  1.
<mgrwt>
<rscale>  2 0.58170728E+01</rscale>
<asrwt>0</asrwt>
<pdfrwt beam="1">  1       21 0.48257787E-02 0.58170728E+01</pdfrwt>
<pdfrwt beam="2">  1       21 0.23914704E-03 0.58170728E+01</pdfrwt>
<totfact> 0.23154423E+09</totfact>
</mgrwt>
</event>
<event>
 4    1  0.4144004E+006  0.6992044E+01  0.7546771E-02  0.2301797E+00
         21   -1    0    0  503  502  0.00000000000E+00  0.00000000000E+00  0.16320328457E+01  0.16320328457E+01  0.00000000000E+00 0.  1.
         21   -1    0    0  501  503 -0.00000000000E+00 -0.00000000000E+00 -0.39391491824E+02  0.39391491824E+02  0.00000000000E+00 0. -1.
          5    1    1    2  501    0 -0.20632084043E+01  0.47478265395E+01 -0.88407181549E+01  0.11271512022E+02  0.47000000000E+01 0.  1.
         -5    1    1    2    0  502  0.20632084043E+01 -0.47478265395E+01 -0.28918740824E+02  0.29752012648E+02  0.47000000000E+01 0. -1.
<mgrwt>
<rscale>  2 0.69920445E+01</rscale>
<asrwt>0</asrwt>
<pdfrwt beam="1">  1       21 0.25108196E-03 0.69920445E+01</pdfrwt>
<pdfrwt beam="2">  1       21 0.60602298E-02 0.69920445E+01</pdfrwt>
<totfact> 0.17901558E+09</totfact>
</mgrwt>
</event>
<event>
 4    1  0.4144004E+006  0.5146666E+01  0.7546771E-02  0.2541775E+00
         21   -1    0    0  501  502  0.00000000000E+00  0.00000000000E+00  0.15186293650E+01  0.15186293650E+01  0.00000000000E+00 0.  1.
         21   -1    0    0  502  503 -0.00000000000E+00 -0.00000000000E+00 -0.24664963491E+02  0.24664963491E+02  0.00000000000E+00 0.  1.
          5    1    1    2  501    0 -0.16890410259E+01 -0.12431061068E+01 -0.18657712396E+02  0.19354544796E+02  0.47000000000E+01 0.  1.
         -5    1    1    2    0  503  0.16890410259E+01  0.12431061068E+01 -0.44886217299E+01  0.68290480606E+01  0.47000000000E+01 0.  1.
<mgrwt>
<rscale>  2 0.51466661E+01</rscale>
<asrwt>0</asrwt>
<pdfrwt beam="1">  1       21 0.23363531E-03 0.51466661E+01</pdfrwt>
<pdfrwt beam="2">  1       21 0.37946094E-02 0.51466661E+01</pdfrwt>
<totfact> 0.30305633E+09</totfact>
</mgrwt>
</event>
<event>
 4    1  0.4144004E+006  0.5106829E+01  0.7546771E-02  0.2548544E+00
         21   -1    0    0  501  502  0.00000000000E+00  0.00000000000E+00  0.17985947583E+02  0.17985947583E+02  0.00000000000E+00 0. -1.
         21   -1    0    0  502  503 -0.00000000000E+00 -0.00000000000E+00 -0.20076854255E+01  0.20076854255E+01  0.00000000000E+00 0. -1.
          5    1    1    2  501    0  0.18963120853E+01  0.62745464958E+00  0.13257872854E+02  0.14207423815E+02  0.47000000000E+01 0. -1.
         -5    1    1    2    0  503 -0.18963120853E+01 -0.62745464958E+00  0.27203893037E+01  0.57862091931E+01  0.47000000000E+01 0. -1.
<mgrwt>
<rscale>  2 0.51068287E+01</rscale>
<asrwt>0</asrwt>
<pdfrwt beam="1">  1       21 0.27670687E-02 0.51068287E+01</pdfrwt>
<pdfrwt beam="2">  1       21 0.30887469E-03 0.51068287E+01</pdfrwt>
<totfact> 0.32457426E+09</totfact>
</mgrwt>
</event>
<event>
 4    1  0.4144004E+006  0.5900690E+01  0.7546771E-02  0.2428531E+00
         21   -1    0    0  503  502  0.00000000000E+00  0.00000000000E+00  0.15803495339E+02  0.15803495339E+02  0.00000000000E+00 0.  1.
         21   -1    0    0  501  503 -0.00000000000E+00 -0.00000000000E+00 -0.22844780622E+01  0.22844780622E+01  0.00000000000E+00 0.  1.
          5    1    1    2  501    0 -0.24458436635E+01  0.25973054264E+01  0.84654826035E+01  0.10319037863E+02  0.47000000000E+01 0.  1.
         -5    1    1    2    0  502  0.24458436635E+01 -0.25973054264E+01  0.50535346733E+01  0.77689355383E+01  0.47000000000E+01 0.  1.
<mgrwt>
<rscale>  2 0.59006904E+01</rscale>
<asrwt>0</asrwt>
<pdfrwt beam="1">  1       21 0.24313069E-02 0.59006904E+01</pdfrwt>
<pdfrwt beam="2">  1       21 0.35145817E-03 0.59006904E+01</pdfrwt>
<totfact> 0.37611739E+09</totfact>
</mgrwt>
</event>
<event>
 4    1  0.4144004E+006  0.8045456E+01  0.7546771E-02  0.2206943E+00
         21   -1    0    0  503  502  0.00000000000E+00  0.00000000000E+00  0.26164833132E+02  0.26164833132E+02  0.00000000000E+00 0. -1.
         21   -1    0    0  501  503 -0.00000000000E+00 -0.00000000000E+00 -0.30262998597E+01  0.30262998597E+01  0.00000000000E+00 0. -1.
          5    1    1    2  501    0 -0.56684082713E+01  0.32416828415E+01  0.53335113555E+01  0.96527562569E+01  0.47000000000E+01 0. -1.
         -5    1    1    2    0  502  0.56684082713E+01 -0.32416828415E+01  0.17805021917E+02  0.19538376735E+02  0.47000000000E+01 0. -1.
<mgrwt>
<rscale>  2 0.80454559E+01</rscale>
<asrwt>0</asrwt>
<pdfrwt beam="1">  1       21 0.40253588E-02 0.80454559E+01</pdfrwt>
<pdfrwt beam="2">  1       21 0.46558461E-03 0.80454559E+01</pdfrwt>
<totfact> 0.15497115E+09</totfact>
</mgrwt>
</event>
<event>
 4    1  0.4144004E+006  0.5433490E+01  0.7546771E-02  0.2495557E+00
         21   -1    0    0  503  502  0.00000000000E+00  0.00000000000E+00  0.23603311524E+00  0.23603311524E+00  0.00000000000E+00 0. -1.
         21   -1    0    0  501  503 -0.00000000000E+00 -0.00000000000E+00 -0.32864510824E+03  0.32864510824E+03  0.00000000000E+00 0. -1.
          5    1    1    2  501    0 -0.16974884306E+01 -0.21333889646E+01 -0.29362352365E+03  0.29367379259E+03  0.47000000000E+01 0. -1.
         -5    1    1    2    0  502  0.16974884306E+01  0.21333889646E+01 -0.34785551474E+02  0.35207348761E+02  0.47000000000E+01 0. -1.
<mgrwt>
<rscale>  2 0.54334902E+01</rscale>
<asrwt>0</asrwt>
<pdfrwt beam="1">  1       21 0.36312867E-04 0.54334902E+01</pdfrwt>
<pdfrwt beam="2">  1       21 0.50560674E-01 0.54334902E+01</pdfrwt>
<totfact> 0.64836934E+08</totfact>
</mgrwt>
</event>
<event>
 4    1  0.4144004E+006  0.5410442E+01  0.7546771E-02  0.2499116E+00
         21   -1    0    0  503  502  0.00000000000E+00  0.00000000000E+00  0.42998138930E+01  0.42998138930E+01  0.00000000000E+00 0. -1.
         21   -1    0    0  501  503 -0.00000000000E+00 -0.00000000000E+00 -0.84946982653E+01  0.84946982653E+01  0.00000000000E+00 0. -1.
          5    1    1    2  501    0 -0.22935201477E+01  0.13865952729E+01 -0.49481059629E+01  0.73318915525E+01  0.47000000000E+01 0. -1.
         -5    1    1    2    0  502  0.22935201477E+01 -0.13865952729E+01  0.75322159059E+00  0.54626206058E+01  0.47000000000E+01 0. -1.
<mgrwt>
<rscale>  2 0.54104419E+01</rscale>
<asrwt>0</asrwt>
<pdfrwt beam="1">  1       21 0.66150983E-03 0.54104419E+01</pdfrwt>
<pdfrwt beam="2">  1       21 0.13068767E-02 0.54104419E+01</pdfrwt>
<totfact> 0.35072567E+09</totfact>
</mgrwt>
</event>
<event>
 4    1  0.4144004E+006  0.5710896E+01  0.7546771E-02  0.2454641E+00
         21   -1    0    0  503  502  0.00000000000E+00  0.00000000000E+00  0.16912197324E+02  0.16912197324E+02  0.00000000000E+00 0.  1.
         21   -1    0    0  501  503 -0.00000000000E+00 -0.00000000000E+00 -0.21168386202E+01  0.21168386202E+01  0.00000000000E+00 0. -1.
          5    1    1    2  501    0 -0.94074466787E+00  0.31047267638E+01  0.45593020821E+01  0.73076373941E+01  0.47000000000E+01 0. -1.
         -5    1    1    2    0  502  0.94074466787E+00 -0.31047267638E+01  0.10236056622E+02  0.11721398550E+02  0.47000000000E+01 0. -1.
<mgrwt>
<rscale>  2 0.57108956E+01</rscale>
<asrwt>0</asrwt>
<pdfrwt beam="1">  1       21 0.26018764E-02 0.57108956E+01</pdfrwt>
<pdfrwt beam="2">  1       21 0.32566749E-03 0.57108956E+01</pdfrwt>
<totfact> 0.36759748E+09</totfact>
</mgrwt>
</event>
<event>
 4    1  0.4144004E+006  0.5067192E+01  0.7546771E-02  0.2555370E+00
         21   -1    0    0  501  502  0.00000000000E+00  0.00000000000E+00  0.34148399547E+01  0.34148399547E+01  0.00000000000E+00 0. -1.
         21   -1    0    0  502  503 -0.00000000000E+00 -0.00000000000E+00 -0.62947522506E+02  0.62947522506E+02  0.00000000000E+00 0. -1.
          5    1    1    2  501    0 -0.18911901768E+01 -0.99187210622E-01  0.13700931649E+01  0.52491517094E+01  0.47000000000E+01 0. -1.
         -5    1    1    2    0  503  0.18911901768E+01  0.99187210622E-01 -0.60902775716E+02  0.61113210751E+02  0.47000000000E+01 0. -1.
<mgrwt>
<rscale>  2 0.50671924E+01</rscale>
<asrwt>0</asrwt>
<pdfrwt beam="1">  1       21 0.52536002E-03 0.50671924E+01</pdfrwt>
<pdfrwt beam="2">  1       21 0.96842338E-02 0.50671924E+01</pdfrwt>
<totfact> 0.24760950E+08</totfact>
</mgrwt>
</event>
<event>
 4    1  0.4144004E+006  0.8475854E+01  0.7546771E-02  0.2173755E+00
         21   -1    0    0  501  502  0.00000000000E+00  0.00000000000E+00  0.88111528375E+02  0.88111528375E+02  0.00000000000E+00 0. -1.
         21   -1    0    0  502  503 -0.00000000000E+00 -0.00000000000E+00 -0.83143136729E+00  0.83143136729E+00  0.00000000000E+00 0.  1.
          5    1    1    2  501    0 -0.22291129514E+01  0.66918729159E+01  0.49828458178E+02  0.50544192071E+02  0.47000000000E+01 0.  1.
         -5    1    1    2    0  503  0.22291129514E+01 -0.66918729159E+01  0.37451638830E+02  0.38398767672E+02  0.47000000000E+01 0.  1.
<mgrwt>
<rscale>  2 0.84758544E+01</rscale>
<asrwt>0</asrwt>
<pdfrwt beam="1">  1       21 0.13555612E-01 0.84758544E+01</pdfrwt>
<pdfrwt beam="2">  1       21 0.12791259E-03 0.84758544E+01</pdfrwt>
<totfact> 0.14822733E+09</totfact>
</mgrwt>
</event>
<event>
 4    1  0.4144004E+006  0.6112983E+01  0.7546771E-02  0.2400947E+00
         21   -1    0    0  501  502  0.00000000000E+00  0.00000000000E+00  0.50289009863E+01  0.50289009863E+01  0.00000000000E+00 0. -1.
         21   -1    0    0  502  503 -0.00000000000E+00 -0.00000000000E+00 -0.12018917878E+02  0.12018917878E+02  0.00000000000E+00 0. -1.
          5    1    1    2  501    0 -0.11848317368E+00 -0.39069831442E+01  0.17715308196E+01  0.63645013156E+01  0.47000000000E+01 0. -1.
         -5    1    1    2    0  503  0.11848317368E+00  0.39069831442E+01 -0.87615477118E+01  0.10683317549E+02  0.47000000000E+01 0. -1.
<mgrwt>
<rscale>  2 0.61129825E+01</rscale>
<asrwt>0</asrwt>
<pdfrwt beam="1">  1       21 0.77367708E-03 0.61129825E+01</pdfrwt>
<pdfrwt beam="2">  1       21 0.18490643E-02 0.61129825E+01</pdfrwt>
<totfact> 0.19201660E+09</totfact>
</mgrwt>
</event>
<event>
 4    1  0.4144004E+006  0.7506409E+01  0.7546771E-02  0.2252779E+00
         21   -1    0    0  503  502  0.00000000000E+00  0.00000000000E+00  0.82700716659E+01  0.82700716659E+01  0.00000000000E+00 0. -1.
         21   -1    0    0  501  503 -0.00000000000E+00 -0.00000000000E+00 -0.10821708563E+02  0.10821708563E+02  0.00000000000E+00 0. -1.
          5    1    1    2  501    0  0.39455216187E+01 -0.43230816643E+01 -0.70855556996E+01  0.10322367727E+02  0.47000000000E+01 0. -1.
         -5    1    1    2    0  502 -0.39455216187E+01  0.43230816643E+01  0.45339188025E+01  0.87694125019E+01  0.47000000000E+01 0. -1.
<mgrwt>
<rscale>  2 0.75064090E+01</rscale>
<asrwt>0</asrwt>
<pdfrwt beam="1">  1       21 0.12723187E-02 0.75064090E+01</pdfrwt>
<pdfrwt beam="2">  1       21 0.16648782E-02 0.75064090E+01</pdfrwt>
<totfact> 0.12933628E+09</totfact>
</mgrwt>
</event>
<event>
 4    1  0.4144004E+006  0.1041131E+02  0.7546771E-02  0.2052309E+00
         21   -1    0    0  501  502  0.00000000000E+00  0.00000000000E+00  0.25091139807E+02  0.25091139807E+02  0.00000000000E+00 0. -1.
         21   -1    0    0  502  503 -0.00000000000E+00 -0.00000000000E+00 -0.92328974609E+01  0.92328974609E+01  0.00000000000E+00 0. -1.
          5    1    1    2  501    0  0.89257750078E+01  0.25760134444E+01  0.20447999783E+02  0.22945936457E+02  0.47000000000E+01 0. -1.
         -5    1    1    2    0  503 -0.89257750078E+01 -0.25760134444E+01 -0.45897574363E+01  0.11378100812E+02  0.47000000000E+01 0. -1.
<mgrwt>
<rscale>  2 0.10411307E+02</rscale>
<asrwt>0</asrwt>
<pdfrwt beam="1">  1       21 0.38601753E-02 0.10411307E+02</pdfrwt>
<pdfrwt beam="2">  1       21 0.14204458E-02 0.10411307E+02</pdfrwt>
<totfact> 0.38778517E+08</totfact>
</mgrwt>
</event>
<event>
 4    1  0.4144004E+006  0.1913908E+02  0.7546771E-02  0.1763011E+00
         21   -1    0    0  501  502  0.00000000000E+00  0.00000000000E+00  0.12542657294E+01  0.12542657294E+01  0.00000000000E+00 0.  1.
         21   -1    0    0  502  503 -0.00000000000E+00 -0.00000000000E+00 -0.33192276499E+03  0.33192276499E+03  0.00000000000E+00 0. -1.
          5    1    1    2  501    0 -0.12093445863E+02 -0.14069932724E+02 -0.10759362171E+03  0.10928262383E+03  0.47000000000E+01 0.  1.
         -5    1    1    2    0  503  0.12093445863E+02  0.14069932724E+02 -0.22307487755E+03  0.22389440689E+03  0.47000000000E+01 0. -1.
<mgrwt>
<rscale>  2 0.19139081E+02</rscale>
<asrwt>0</asrwt>
<pdfrwt beam="1">  1       21 0.19296404E-03 0.19139081E+02</pdfrwt>
<pdfrwt beam="2">  1       21 0.51065019E-01 0.19139081E+02</pdfrwt>
<totfact> 0.11763329E+08</totfact>
</mgrwt>
</event>
<event>
 4    1  0.4144004E+006  0.6139639E+01  0.7546771E-02  0.2397596E+00
         21   -1    0    0  501  502  0.00000000000E+00  0.00000000000E+00  0.77264304672E+01  0.77264304672E+01  0.00000000000E+00 0.  1.
         21   -1    0    0  502  503 -0.00000000000E+00 -0.00000000000E+00 -0.53011568573E+01  0.53011568573E+01  0.00000000000E+00 0. -1.
          5    1    1    2  501    0  0.38491355727E+01  0.88843969770E+00  0.30513937320E+01  0.68561048315E+01  0.47000000000E+01 0.  1.
         -5    1    1    2    0  503 -0.38491355727E+01 -0.88843969770E+00 -0.62612012201E+00  0.61714824930E+01  0.47000000000E+01 0. -1.
<mgrwt>
<rscale>  2 0.61396392E+01</rscale>
<asrwt>0</asrwt>
<pdfrwt beam="1">  1       21 0.11886816E-02 0.61396392E+01</pdfrwt>
<pdfrwt beam="2">  1       21 0.81556260E-03 0.61396392E+01</pdfrwt>
<totfact> 0.33618284E+09</totfact>
</mgrwt>
</event>
<event>
 4    1  0.4144004E+006  0.7559636E+01  0.7546771E-02  0.2248018E+00
         21   -1    0    0  501  502  0.00000000000E+00  0.00000000000E+00  0.13600051288E+00  0.13600051288E+00  0.00000000000E+00 0. -1.
         21   -1    0    0  502  503 -0.00000000000E+00 -0.00000000000E+00 -0.42996862196E+03  0.42996862196E+03  0.00000000000E+00 0.  1.
          5    1    1    2  501    0 -0.10230969190E+00  0.59201043300E+01 -0.18250996508E+03  0.18266645958E+03  0.47000000000E+01 0.  1.
         -5    1    1    2    0  503  0.10230969190E+00 -0.59201043300E+01 -0.24732265636E+03  0.24743816289E+03  0.47000000000E+01 0. -1.
<mgrwt>
<rscale>  2 0.75596364E+01</rscale>
<asrwt>0</asrwt>
<pdfrwt beam="1">  1       21 0.20923244E-04 0.75596364E+01</pdfrwt>
<pdfrwt beam="2">  1       21 0.66148739E-01 0.75596364E+01</pdfrwt>
<totfact> 0.10331244E+09</totfact>
</mgrwt>
</event>
<event>
 4    1  0.4144004E+006  0.6168629E+01  0.7546771E-02  0.2393980E+00
         21   -1    0    0  503  502  0.00000000000E+00  0.00000000000E+00  0.54994485999E+00  0.54994485999E+00  0.00000000000E+00 0. -1.
         21   -1    0    0  501  503 -0.00000000000E+00 -0.00000000000E+00 -0.82106431234E+02  0.82106431234E+02  0.00000000000E+00 0.  1.
          5    1    1    2  501    0 -0.95430003086E+00  0.38795996091E+01 -0.57168637362E+02  0.57500478950E+02  0.47000000000E+01 0. -1.
         -5    1    1    2    0  502  0.95430003086E+00 -0.38795996091E+01 -0.24387849012E+02  0.25155897144E+02  0.47000000000E+01 0.  1.
<mgrwt>
<rscale>  2 0.61686288E+01</rscale>
<asrwt>0</asrwt>
<pdfrwt beam="1">  1       21 0.84606861E-04 0.61686288E+01</pdfrwt>
<pdfrwt beam="2">  1       21 0.12631765E-01 0.61686288E+01</pdfrwt>
<totfact> 0.23077642E+09</totfact>
</mgrwt>
</event>
<event>
 4    1  0.4144004E+006  0.6130596E+01  0.7546771E-02  0.2398730E+00
         21   -1    0    0  503  502  0.00000000000E+00  0.00000000000E+00  0.37430689588E+01  0.37430689588E+01  0.00000000000E+00 0. -1.
         21   -1    0    0  501  503 -0.00000000000E+00 -0.00000000000E+00 -0.12967873647E+02  0.12967873647E+02  0.00000000000E+00 0. -1.
          5    1    1    2  501    0 -0.26449457607E+01 -0.29152140513E+01 -0.85819173805E+01  0.10546730155E+02  0.47000000000E+01 0. -1.
         -5    1    1    2    0  502  0.26449457607E+01  0.29152140513E+01 -0.64288730748E+00  0.61642124503E+01  0.47000000000E+01 0. -1.
<mgrwt>
<rscale>  2 0.61305963E+01</rscale>
<asrwt>0</asrwt>
<pdfrwt beam="1">  1       21 0.57585677E-03 0.61305963E+01</pdfrwt>
<pdfrwt beam="2">  1       21 0.19950575E-02 0.61305963E+01</pdfrwt>
<totfact> 0.26093326E+09</totfact>
</mgrwt>
</event>
<event>
 4    1  0.4144004E+006  0.6027898E+01  0.7546771E-02  0.2411807E+00
         21   -1    0    0  501  502  0.00000000000E+00  0.00000000000E+00  0.18454173007E+00  0.18454173007E+00  0.00000000000E+00 0.  1.
         21   -1    0    0  502  503 -0.00000000000E+00 -0.00000000000E+00 -0.12147551357E+04  0.12147551357E+04  0.00000000000E+00 0.  1.
          5    1    1    2  501    0 -0.36680174365E+01 -0.88949369289E+00 -0.51222088318E+02  0.51575555088E+02  0.47000000000E+01 0.  1.
         -5    1    1    2    0  503  0.36680174365E+01  0.88949369289E+00 -0.11633485056E+04  0.11633641223E+04  0.47000000000E+01 0.  1.
<mgrwt>
<rscale>  2 0.60278977E+01</rscale>
<asrwt>0</asrwt>
<pdfrwt beam="1">  1       21 0.28390431E-04 0.60278977E+01</pdfrwt>
<pdfrwt beam="2">  1       21 0.18688938E+00 0.60278977E+01</pdfrwt>
<totfact> 0.70193098E+07</totfact>
</mgrwt>
</event>
<event>
 4    1  0.4144004E+006  0.4802918E+01  0.7546771E-02  0.2603350E+00
         21   -1    0    0  501  502  0.00000000000E+00  0.00000000000E+00  0.24787727620E+02  0.24787727620E+02  0.00000000000E+00 0. -1.
         21   -1    0    0  502  503 -0.00000000000E+00 -0.00000000000E+00 -0.97979250271E+00  0.97979250271E+00  0.00000000000E+00 0. -1.
          5    1    1    2  501    0  0.78281765188E+00  0.60432899234E+00  0.14790162728E+02  0.15550463997E+02  0.47000000000E+01 0.  1.
         -5    1    1    2    0  503 -0.78281765188E+00 -0.60432899234E+00  0.90177723892E+01  0.10217056125E+02  0.47000000000E+01 0.  1.
<mgrwt>
<rscale>  2 0.48029176E+01</rscale>
<asrwt>0</asrwt>
<pdfrwt beam="1">  1       21 0.38134961E-02 0.48029176E+01</pdfrwt>
<pdfrwt beam="2">  1       21 0.15073733E-03 0.48029176E+01</pdfrwt>
<totfact> 0.50443163E+09</totfact>
</mgrwt>
</event>
<event>
 4    1  0.4144004E+006  0.2653598E+02  0.7546771E-02  0.1639872E+00
         21   -1    0    0  503  502  0.00000000000E+00  0.00000000000E+00  0.11436348449E+04  0.11436348449E+04  0.00000000000E+00 0.  1.
         21   -1    0    0  501  503 -0.00000000000E+00 -0.00000000000E+00 -0.65454131423E+00  0.65454131423E+00  0.00000000000E+00 0. -1.
          5    1    1    2  501    0  0.21628280141E+02  0.14638493349E+02  0.43214988050E+03  0.43296382898E+03  0.47000000000E+01 0.  1.
         -5    1    1    2    0  502 -0.21628280141E+02 -0.14638493349E+02  0.71083042306E+03  0.71132555720E+03  0.47000000000E+01 0. -1.
<mgrwt>
<rscale>  2 0.26535975E+02</rscale>
<asrwt>0</asrwt>
<pdfrwt beam="1">  1       21 0.17594222E+00 0.26535975E+02</pdfrwt>
<pdfrwt beam="2">  1       21 0.10069958E-03 0.26535975E+02</pdfrwt>
<totfact> 0.21726140E+07</totfact>
</mgrwt>
</event>
<event>
 4    1  0.4144004E+006  0.5905906E+01  0.7546771E-02  0.2427833E+00
         21   -1    0    0  501  502  0.00000000000E+00  0.00000000000E+00  0.12889398304E+01  0.12889398304E+01  0.00000000000E+00 0. -1.
         21   -1    0    0  502  503 -0.00000000000E+00 -0.00000000000E+00 -0.30737947261E+02  0.30737947261E+02  0.00000000000E+00 0. -1.
          5    1    1    2  501    0 -0.22567672956E+01  0.27742981367E+01 -0.91858595602E+01  0.10920611001E+02  0.47000000000E+01 0. -1.
         -5    1    1    2    0  503  0.22567672956E+01 -0.27742981367E+01 -0.20263147870E+02  0.21106276090E+02  0.47000000000E+01 0. -1.
<mgrwt>
<rscale>  2 0.59059063E+01</rscale>
<asrwt>0</asrwt>
<pdfrwt beam="1">  1       21 0.19829847E-03 0.59059063E+01</pdfrwt>
<pdfrwt beam="2">  1       21 0.47289141E-02 0.59059063E+01</pdfrwt>
<totfact> 0.31202446E+09</totfact>
</mgrwt>
</event>
<event>
 4    1  0.4144004E+006  0.1397117E+02  0.7546771E-02  0.1901189E+00
         21   -1    0    0  503  502  0.00000000000E+00  0.00000000000E+00  0.56397010224E+01  0.56397010224E+01  0.00000000000E+00 0.  1.
         21   -1    0    0  501  503 -0.00000000000E+00 -0.00000000000E+00 -0.11174515026E+03  0.11174515026E+03  0.00000000000E+00 0.  1.
          5    1    1    2  501    0 -0.12151377616E+02  0.50445739673E+01 -0.10181590898E+03  0.10277000062E+03  0.47000000000E+01 0.  1.
         -5    1    1    2    0  502  0.12151377616E+02 -0.50445739673E+01 -0.42895402570E+01  0.14614850669E+02  0.47000000000E+01 0.  1.
<mgrwt>
<rscale>  2 0.13971174E+02</rscale>
<asrwt>0</asrwt>
<pdfrwt beam="1">  1       21 0.86764631E-03 0.13971174E+02</pdfrwt>
<pdfrwt beam="2">  1       21 0.17191562E-01 0.13971174E+02</pdfrwt>
<totfact> 0.84701121E+07</totfact>
</mgrwt>
</event>
<event>
 4    1  0.4144004E+006  0.4746644E+01  0.7546771E-02  0.2614162E+00
         21   -1    0    0  501  502  0.00000000000E+00  0.00000000000E+00  0.49639639134E+00  0.49639639134E+00  0.00000000000E+00 0.  1.
         21   -1    0    0  502  503 -0.00000000000E+00 -0.00000000000E+00 -0.45800655028E+02  0.45800655028E+02  0.00000000000E+00 0.  1.
          5    1    1    2  501    0  0.64923889064E+00  0.13826724422E+00 -0.24848370462E+02  0.25297670715E+02  0.47000000000E+01 0.  1.
         -5    1    1    2    0  503 -0.64923889064E+00 -0.13826724422E+00 -0.20455888174E+02  0.20999380704E+02  0.47000000000E+01 0.  1.
<mgrwt>
<rscale>  2 0.47466440E+01</rscale>
<asrwt>0</asrwt>
<pdfrwt beam="1">  1       21 0.76368670E-04 0.47466440E+01</pdfrwt>
<pdfrwt beam="2">  1       21 0.70462551E-02 0.47466440E+01</pdfrwt>
<totfact> 0.50123202E+09</totfact>
</mgrwt>
</event>
<event>
 4    1  0.4144004E+006  0.6636144E+01  0.7546771E-02  0.2339318E+00
         21   -1    0    0  501  502  0.00000000000E+00  0.00000000000E+00  0.31852481812E+03  0.31852481812E+03  0.00000000000E+00 0.  1.
         21   -1    0    0  502  503 -0.00000000000E+00 -0.00000000000E+00 -0.14076358795E+00  0.14076358795E+00  0.00000000000E+00 0.  1.
          5    1    1    2  501    0  0.46834396876E+01  0.11744597633E+00  0.18045236556E+03  0.18057434656E+03  0.47000000000E+01 0.  1.
         -5    1    1    2    0  503 -0.46834396876E+01 -0.11744597633E+00  0.13793168898E+03  0.13809123515E+03  0.47000000000E+01 0.  1.
<mgrwt>
<rscale>  2 0.66361435E+01</rscale>
<asrwt>0</asrwt>
<pdfrwt beam="1">  1       21 0.49003241E-01 0.66361435E+01</pdfrwt>
<pdfrwt beam="2">  1       21 0.21656192E-04 0.66361435E+01</pdfrwt>
<totfact> 0.15824296E+09</totfact>
</mgrwt>
</event>
<event>
 4    1  0.4144004E+006  0.5246726E+01  0.7546771E-02  0.2525162E+00
         21   -1    0    0  503  502  0.00000000000E+00  0.00000000000E+00  0.20846396083E+01  0.20846396083E+01  0.00000000000E+00 0.  1.
         21   -1    0    0  501  503 -0.00000000000E+00 -0.00000000000E+00 -0.28980742101E+02  0.28980742101E+02  0.00000000000E+00 0.  1.
          5    1    1    2  501    0  0.12560336970E+00  0.23285951256E+01 -0.24908028965E+02  0.25454627052E+02  0.47000000000E+01 0.  1.
         -5    1    1    2    0  502 -0.12560336970E+00 -0.23285951256E+01 -0.19880735276E+01  0.56107546566E+01  0.47000000000E+01 0.  1.
<mgrwt>
<rscale>  2 0.52467258E+01</rscale>
<asrwt>0</asrwt>
<pdfrwt beam="1">  1       21 0.32071378E-03 0.52467258E+01</pdfrwt>
<pdfrwt beam="2">  1       21 0.44585758E-02 0.52467258E+01</pdfrwt>
<totfact> 0.15880409E+09</totfact>
</mgrwt>
</event>
<event>
 4    1  0.4144004E+006  0.5332090E+01  0.7546771E-02  0.2511411E+00
         21   -1    0    0  501  502  0.00000000000E+00  0.00000000000E+00  0.45016178989E+01  0.45016178989E+01  0.00000000000E+00 0. -1.
         21   -1    0    0  502  503 -0.00000000000E+00 -0.00000000000E+00 -0.67308124871E+01  0.67308124871E+01  0.00000000000E+00 0.  1.
          5    1    1    2  501    0  0.24950410973E+01 -0.34052241443E+00  0.28002307381E+00  0.53394380335E+01  0.47000000000E+01 0. -1.
         -5    1    1    2    0  503 -0.24950410973E+01  0.34052241443E+00 -0.25092176620E+01  0.58929923526E+01  0.47000000000E+01 0.  1.
<mgrwt>
<rscale>  2 0.53320902E+01</rscale>
<asrwt>0</asrwt>
<pdfrwt beam="1">  1       21 0.69255661E-03 0.53320902E+01</pdfrwt>
<pdfrwt beam="2">  1       21 0.10355096E-02 0.53320902E+01</pdfrwt>
<totfact> 0.44982582E+09</totfact>
</mgrwt>
</event>
<event>
 4    1  0.4144004E+006  0.1406845E+02  0.7546771E-02  0.1897901E+00
         21   -1    0    0  501  502  0.00000000000E+00  0.00000000000E+00  0.65469319283E+01  0.65469319283E+01  0.00000000000E+00 0.  1.
         21   -1    0    0  502  503 -0.00000000000E+00 -0.00000000000E+00 -0.51240902201E+02  0.51240902201E+02  0.00000000000E+00 0.  1.
          5    1    1    2  501    0  0.12737984376E+02  0.36844168235E+01 -0.38454112946E+01  0.14584524720E+02  0.47000000000E+01 0.  1.
         -5    1    1    2    0  503 -0.12737984376E+02 -0.36844168235E+01 -0.40848558978E+02  0.43203309409E+02  0.47000000000E+01 0.  1.
<mgrwt>
<rscale>  2 0.14068446E+02</rscale>
<asrwt>0</asrwt>
<pdfrwt beam="1">  1       21 0.10072203E-02 0.14068446E+02</pdfrwt>
<pdfrwt beam="2">  1       21 0.78832157E-02 0.14068446E+02</pdfrwt>
<totfact> 0.24397527E+08</totfact>
</mgrwt>
</event>
<event>
 4    1  0.4144004E+006  0.5122561E+01  0.7546771E-02  0.2545860E+00
         21   -1    0    0  503  502  0.00000000000E+00  0.00000000000E+00  0.19326977210E+03  0.19326977210E+03  0.00000000000E+00 0. -1.
         21   -1    0    0  501  503 -0.00000000000E+00 -0.00000000000E+00 -0.24147891442E+00  0.24147891442E+00  0.00000000000E+00 0. -1.
          5    1    1    2  501    0 -0.19305197332E+01  0.65094000314E+00  0.32498187939E+02  0.32899435385E+02  0.47000000000E+01 0. -1.
         -5    1    1    2    0  502  0.19305197332E+01 -0.65094000314E+00  0.16053010525E+03  0.16061181563E+03  0.47000000000E+01 0. -1.
<mgrwt>
<rscale>  2 0.51225608E+01</rscale>
<asrwt>0</asrwt>
<pdfrwt beam="1">  1       21 0.29733687E-01 0.51225608E+01</pdfrwt>
<pdfrwt beam="2">  1       21 0.37150757E-04 0.51225608E+01</pdfrwt>
<totfact> 0.14943614E+09</totfact>
</mgrwt>
</event>
<event>
 4    1  0.4144004E+006  0.5778055E+01  0.7546771E-02  0.2445237E+00
         21   -1    0    0  503  502  0.00000000000E+00  0.00000000000E+00  0.27145405700E+02  0.27145405700E+02  0.00000000000E+00 0.  1.
         21   -1    0    0  501  503 -0.00000000000E+00 -0.00000000000E+00 -0.12388513315E+01  0.12388513315E+01  0.00000000000E+00 0. -1.
          5    1    1    2  501    0  0.31657261994E+01  0.11287572990E+01  0.14160194270E+02  0.15293692071E+02  0.47000000000E+01 0.  1.
         -5    1    1    2    0  502 -0.31657261994E+01 -0.11287572990E+01  0.11746360099E+02  0.13090564960E+02  0.47000000000E+01 0.  1.
<mgrwt>
<rscale>  2 0.57780546E+01</rscale>
<asrwt>0</asrwt>
<pdfrwt beam="1">  1       21 0.41762158E-02 0.57780546E+01</pdfrwt>
<pdfrwt beam="2">  1       21 0.19059253E-03 0.57780546E+01</pdfrwt>
<totfact> 0.38770926E+09</totfact>
</mgrwt>
</event>
<event>
 4    1  0.4144004E+006  0.6667126E+01  0.7546771E-02  0.2335920E+00
         21   -1    0    0  503  502  0.00000000000E+00  0.00000000000E+00  0.13600384719E+02  0.13600384719E+02  0.00000000000E+00 0.  1.
         21   -1    0    0  501  503 -0.00000000000E+00 -0.00000000000E+00 -0.36599005099E+01  0.36599005099E+01  0.00000000000E+00 0. -1.
          5    1    1    2  501    0  0.21221066028E+01  0.42257824758E+01  0.21473963008E+01  0.70044189508E+01  0.47000000000E+01 0.  1.
         -5    1    1    2    0  502 -0.21221066028E+01 -0.42257824758E+01  0.77930879085E+01  0.10255866278E+02  0.47000000000E+01 0.  1.
<mgrwt>
<rscale>  2 0.66671264E+01</rscale>
<asrwt>0</asrwt>
<pdfrwt beam="1">  1       21 0.20923669E-02 0.66671264E+01</pdfrwt>
<pdfrwt beam="2">  1       21 0.56306162E-03 0.66671264E+01</pdfrwt>
<totfact> 0.26986615E+09</totfact>
</mgrwt>
</event>
<event>
 4    1  0.4144004E+006  0.6142330E+01  0.7546771E-02  0.2397259E+00
         21   -1    0    0  501  502  0.00000000000E+00  0.00000000000E+00  0.11899766506E+03  0.11899766506E+03  0.00000000000E+00 0.  1.
         21   -1    0    0  502  503 -0.00000000000E+00 -0.00000000000E+00 -0.49856698944E+00  0.49856698944E+00  0.00000000000E+00 0.  1.
          5    1    1    2  501    0  0.12976159992E+01 -0.37355604529E+01  0.95300854888E+02  0.95498592458E+02  0.47000000000E+01 0.  1.
         -5    1    1    2    0  503 -0.12976159992E+01  0.37355604529E+01  0.23198243183E+02  0.23997639592E+02  0.47000000000E+01 0.  1.
<mgrwt>
<rscale>  2 0.61423301E+01</rscale>
<asrwt>0</asrwt>
<pdfrwt beam="1">  1       21 0.18307310E-01 0.61423301E+01</pdfrwt>
<pdfrwt beam="2">  1       21 0.76702709E-04 0.61423301E+01</pdfrwt>
<totfact> 0.14582512E+09</totfact>
</mgrwt>
</event>
<event>
 4    1  0.4144004E+006  0.4867604E+01  0.7546771E-02  0.2591190E+00
         21   -1    0    0  503  502  0.00000000000E+00  0.00000000000E+00  0.73474855117E+01  0.73474855117E+01  0.00000000000E+00 0. -1.
         21   -1    0    0  501  503 -0.00000000000E+00 -0.00000000000E+00 -0.12724611407E+02  0.12724611407E+02  0.00000000000E+00 0. -1.
          5    1    1    2  501    0 -0.12645788838E+01  0.66393814171E-01 -0.11360175281E+02  0.12359091808E+02  0.47000000000E+01 0. -1.
         -5    1    1    2    0  502  0.12645788838E+01 -0.66393814171E-01  0.59830493857E+01  0.77130051111E+01  0.47000000000E+01 0. -1.
<mgrwt>
<rscale>  2 0.48676039E+01</rscale>
<asrwt>0</asrwt>
<pdfrwt beam="1">  1       21 0.11303824E-02 0.48676039E+01</pdfrwt>
<pdfrwt beam="2">  1       21 0.19576325E-02 0.48676039E+01</pdfrwt>
<totfact> 0.84758081E+08</totfact>
</mgrwt>
</event>
<event>
 4    1  0.4144004E+006  0.6902896E+01  0.7546771E-02  0.2310896E+00
         21   -1    0    0  503  502  0.00000000000E+00  0.00000000000E+00  0.10899530361E+00  0.10899530361E+00  0.00000000000E+00 0. -1.
         21   -1    0    0  501  503 -0.00000000000E+00 -0.00000000000E+00 -0.43717457368E+03  0.43717457368E+03  0.00000000000E+00 0.  1.
          5    1    1    2  501    0  0.28048249709E+01  0.42062966209E+01 -0.21850096685E+03  0.21860997801E+03  0.47000000000E+01 0. -1.
         -5    1    1    2    0  502 -0.28048249709E+01 -0.42062966209E+01 -0.21856461153E+03  0.21867359096E+03  0.47000000000E+01 0. -1.
<mgrwt>
<rscale>  2 0.69028961E+01</rscale>
<asrwt>0</asrwt>
<pdfrwt beam="1">  1       21 0.16768393E-04 0.69028961E+01</pdfrwt>
<pdfrwt beam="2">  1       21 0.67258089E-01 0.69028961E+01</pdfrwt>
<totfact> 0.12717489E+09</totfact>
</mgrwt>
</event>
<event>
 4    1  0.4144004E+006  0.6218336E+01  0.7546771E-02  0.2387845E+00
         21   -1    0    0  503  502  0.00000000000E+00  0.00000000000E+00  0.16343431253E+00  0.16343431253E+00  0.00000000000E+00 0.  1.
         21   -1    0    0  501  503 -0.00000000000E+00 -0.00000000000E+00 -0.25484374172E+03  0.25484374172E+03  0.00000000000E+00 0. -1.
          5    1    1    2  501    0 -0.38873605220E+01 -0.12108385999E+01 -0.93220490298E+02  0.93427659252E+02  0.47000000000E+01 0.  1.
         -5    1    1    2    0  502  0.38873605220E+01  0.12108385999E+01 -0.16145981711E+03  0.16157951678E+03  0.47000000000E+01 0.  1.
<mgrwt>
<rscale>  2 0.62183359E+01</rscale>
<asrwt>0</asrwt>
<pdfrwt beam="1">  1       21 0.25143606E-04 0.62183359E+01</pdfrwt>
<pdfrwt beam="2">  1       21 0.39206939E-01 0.62183359E+01</pdfrwt>
<totfact> 0.18375318E+09</totfact>
</mgrwt>
</event>
<event>
 4    1  0.4144004E+006  0.4981358E+01  0.7546771E-02  0.2570471E+00
         21   -1    0    0  501  502  0.00000000000E+00  0.00000000000E+00  0.24765185953E+02  0.24765185953E+02  0.00000000000E+00 0. -1.
         21   -1    0    0  502  503 -0.00000000000E+00 -0.00000000000E+00 -0.11214369175E+01  0.11214369175E+01  0.00000000000E+00 0. -1.
          5    1    1    2  501    0  0.16503939018E+01  0.11314494094E-01  0.75972790195E+01  0.90847441654E+01  0.47000000000E+01 0. -1.
         -5    1    1    2    0  503 -0.16503939018E+01 -0.11314494094E-01  0.16046470016E+02  0.16801878705E+02  0.47000000000E+01 0. -1.
<mgrwt>
<rscale>  2 0.49813581E+01</rscale>
<asrwt>0</asrwt>
<pdfrwt beam="1">  1       21 0.38100282E-02 0.49813581E+01</pdfrwt>
<pdfrwt beam="2">  1       21 0.17252878E-03 0.49813581E+01</pdfrwt>
<totfact> 0.43831209E+09</totfact>
</mgrwt>
</event>
<event>
 4    1  0.4144004E+006  0.8986093E+01  0.7546771E-02  0.2137742E+00
         21   -1    0    0  501  502  0.00000000000E+00  0.00000000000E+00  0.20712959180E+03  0.20712959180E+03  0.00000000000E+00 0. -1.
         21   -1    0    0  502  503 -0.00000000000E+00 -0.00000000000E+00 -0.15529293266E+01  0.15529293266E+01  0.00000000000E+00 0.  1.
          5    1    1    2  501    0 -0.57111563401E+01 -0.51031918216E+01  0.19308766356E+03  0.19329665204E+03  0.47000000000E+01 0. -1.
         -5    1    1    2    0  503  0.57111563401E+01  0.51031918216E+01  0.12488998919E+02  0.15385869085E+02  0.47000000000E+01 0.  1.
<mgrwt>
<rscale>  2 0.89860933E+01</rscale>
<asrwt>0</asrwt>
<pdfrwt beam="1">  1       21 0.31866069E-01 0.89860933E+01</pdfrwt>
<pdfrwt beam="2">  1       21 0.23891237E-03 0.89860933E+01</pdfrwt>
<totfact> 0.15505071E+08</totfact>
</mgrwt>
</event>
<event>
 4    1  0.4144004E+006  0.6386111E+01  0.7546771E-02  0.2367725E+00
         21   -1    0    0  503  502  0.00000000000E+00  0.00000000000E+00  0.26270449680E+02  0.26270449680E+02  0.00000000000E+00 0.  1.
         21   -1    0    0  501  503 -0.00000000000E+00 -0.00000000000E+00 -0.15572371895E+01  0.15572371895E+01  0.00000000000E+00 0. -1.
          5    1    1    2  501    0 -0.38905388488E+01  0.18857671127E+01  0.11581634690E+02  0.13225606687E+02  0.47000000000E+01 0.  1.
         -5    1    1    2    0  502  0.38905388488E+01 -0.18857671127E+01  0.13131577801E+02  0.14602080183E+02  0.47000000000E+01 0. -1.
<mgrwt>
<rscale>  2 0.63861107E+01</rscale>
<asrwt>0</asrwt>
<pdfrwt beam="1">  1       21 0.40416073E-02 0.63861107E+01</pdfrwt>
<pdfrwt beam="2">  1       21 0.23957497E-03 0.63861107E+01</pdfrwt>
<totfact> 0.32528626E+09</totfact>
</mgrwt>
</event>
<event>
 4    1  0.4144004E+006  0.7575405E+01  0.7546771E-02  0.2246618E+00
         21   -1    0    0  501  502  0.00000000000E+00  0.00000000000E+00  0.38863407918E+01  0.38863407918E+01  0.00000000000E+00 0.  1.
         21   -1    0    0  502  503 -0.00000000000E+00 -0.00000000000E+00 -0.21511845289E+02  0.21511845289E+02  0.00000000000E+00 0.  1.
          5    1    1    2  501    0  0.27432640108E+01  0.52698454296E+01 -0.17015459261E+01  0.77641501031E+01  0.47000000000E+01 0.  1.
         -5    1    1    2    0  503 -0.27432640108E+01 -0.52698454296E+01 -0.15923958572E+02  0.17634035978E+02  0.47000000000E+01 0.  1.
<mgrwt>
<rscale>  2 0.75754055E+01</rscale>
<asrwt>0</asrwt>
<pdfrwt beam="1">  1       21 0.59789859E-03 0.75754055E+01</pdfrwt>
<pdfrwt beam="2">  1       21 0.33095146E-02 0.75754055E+01</pdfrwt>
<totfact> 0.13969722E+09</totfact>
</mgrwt>
</event>
<event>
 4    1  0.4144004E+006  0.4772180E+01  0.7546771E-02  0.2609228E+00
         21   -1    0    0  503  502  0.00000000000E+00  0.00000000000E+00  0.27723518696E+00  0.27723518696E+00  0.00000000000E+00 0. -1.
         21   -1    0    0  501  503 -0.00000000000E+00 -0.00000000000E+00 -0.30748635229E+03  0.30748635229E+03  0.00000000000E+00 0. -1.
          5    1    1    2  501    0 -0.65554126680E+00  0.50395500306E+00 -0.28533738172E+03  0.28537728555E+03  0.47000000000E+01 0. -1.
         -5    1    1    2    0  502  0.65554126680E+00 -0.50395500306E+00 -0.21871735390E+02  0.22386301927E+02  0.47000000000E+01 0. -1.
<mgrwt>
<rscale>  2 0.47721803E+01</rscale>
<asrwt>0</asrwt>
<pdfrwt beam="1">  1       21 0.42651744E-04 0.47721803E+01</pdfrwt>
<pdfrwt beam="2">  1       21 0.47305396E-01 0.47721803E+01</pdfrwt>
<totfact> 0.53039121E+08</totfact>
</mgrwt>
</event>
<event>
 4    1  0.4144004E+006  0.5657314E+01  0.7546771E-02  0.2462279E+00
         21   -1    0    0  501  502  0.00000000000E+00  0.00000000000E+00  0.64529818026E-01  0.64529818026E-01  0.00000000000E+00 0. -1.
         21   -1    0    0  502  503 -0.00000000000E+00 -0.00000000000E+00 -0.54814768993E+03  0.54814768993E+03  0.00000000000E+00 0. -1.
          5    1    1    2  501    0 -0.31488140648E+01  0.12967461158E-01 -0.18947668028E+03  0.18956111830E+03  0.47000000000E+01 0. -1.
         -5    1    1    2    0  503  0.31488140648E+01 -0.12967461158E-01 -0.35860647983E+03  0.35865110145E+03  0.47000000000E+01 0. -1.
<mgrwt>
<rscale>  2 0.56573137E+01</rscale>
<asrwt>0</asrwt>
<pdfrwt beam="1">  1       21 0.99272357E-05 0.56573137E+01</pdfrwt>
<pdfrwt beam="2">  1       21 0.84334054E-01 0.56573137E+01</pdfrwt>
<totfact> 0.14397154E+09</totfact>
</mgrwt>
</event>
<event>
 4    1  0.4144004E+006  0.6214635E+01  0.7546771E-02  0.2388298E+00
         21   -1    0    0  503  502  0.00000000000E+00  0.00000000000E+00  0.33164445423E+03  0.33164445423E+03  0.00000000000E+00 0. -1.
         21   -1    0    0  501  503 -0.00000000000E+00 -0.00000000000E+00 -0.14980318569E+00  0.14980318569E+00  0.00000000000E+00 0. -1.
          5    1    1    2  501    0 -0.26221630641E+01  0.31074028916E+01  0.87474010933E+02  0.87694494015E+02  0.47000000000E+01 0. -1.
         -5    1    1    2    0  502  0.26221630641E+01 -0.31074028916E+01  0.24402064012E+03  0.24409976340E+03  0.47000000000E+01 0. -1.
<mgrwt>
<rscale>  2 0.62146353E+01</rscale>
<asrwt>0</asrwt>
<pdfrwt beam="1">  1       21 0.51021636E-01 0.62146353E+01</pdfrwt>
<pdfrwt beam="2">  1       21 0.23046909E-04 0.62146353E+01</pdfrwt>
<totfact> 0.12919364E+09</totfact>
</mgrwt>
</event>
<event>
 4    1  0.4144004E+006  0.1276103E+02  0.7546771E-02  0.1945228E+00
         21   -1    0    0  501  502  0.00000000000E+00  0.00000000000E+00  0.57966754288E+02  0.57966754288E+02  0.00000000000E+00 0.  1.
         21   -1    0    0  502  503 -0.00000000000E+00 -0.00000000000E+00 -0.90933513458E+01  0.90933513458E+01  0.00000000000E+00 0. -1.
          5    1    1    2  501    0 -0.29269321644E+01 -0.11497261166E+02  0.52310319237E+02  0.53844344595E+02  0.47000000000E+01 0.  1.
         -5    1    1    2    0  503  0.29269321644E+01  0.11497261166E+02 -0.34369162948E+01  0.13215761039E+02  0.47000000000E+01 0. -1.
<mgrwt>
<rscale>  2 0.12761032E+02</rscale>
<asrwt>0</asrwt>
<pdfrwt beam="1">  1       21 0.89179620E-02 0.12761032E+02</pdfrwt>
<pdfrwt beam="2">  1       21 0.13989772E-02 0.12761032E+02</pdfrwt>
<totfact> 0.11845685E+08</totfact>
</mgrwt>
</event>
<event>
 4    1  0.4144004E+006  0.7357856E+01  0.7546771E-02  0.2266360E+00
         21   -1    0    0  503  502  0.00000000000E+00  0.00000000000E+00  0.27807023659E+00  0.27807023659E+00  0.00000000000E+00 0.  1.
         21   -1    0    0  501  503 -0.00000000000E+00 -0.00000000000E+00 -0.23058987442E+03  0.23058987442E+03  0.00000000000E+00 0. -1.
          5    1    1    2  501    0 -0.40482044540E+01 -0.39572833754E+01 -0.16070165444E+03  0.16087000899E+03  0.47000000000E+01 0. -1.
         -5    1    1    2    0  502  0.40482044540E+01  0.39572833754E+01 -0.69610149747E+02  0.69997935675E+02  0.47000000000E+01 0.  1.
<mgrwt>
<rscale>  2 0.73578564E+01</rscale>
<asrwt>0</asrwt>
<pdfrwt beam="1">  1       21 0.42780108E-04 0.73578564E+01</pdfrwt>
<pdfrwt beam="2">  1       21 0.35475306E-01 0.73578564E+01</pdfrwt>
<totfact> 0.12068587E+09</totfact>
</mgrwt>
</event>
<event>
 4    1  0.4144004E+006  0.5563331E+01  0.7546771E-02  0.2475976E+00
         21   -1    0    0  503  502  0.00000000000E+00  0.00000000000E+00  0.30718485198E+03  0.30718485198E+03  0.00000000000E+00 0. -1.
         21   -1    0    0  501  503 -0.00000000000E+00 -0.00000000000E+00 -0.15017252291E+00  0.15017252291E+00  0.00000000000E+00 0. -1.
          5    1    1    2  501    0 -0.22631588419E+01 -0.19335885280E+01  0.65367031492E+02  0.65603349446E+02  0.47000000000E+01 0. -1.
         -5    1    1    2    0  502  0.22631588419E+01  0.19335885280E+01  0.24166764796E+03  0.24173167505E+03  0.47000000000E+01 0. -1.
<mgrwt>
<rscale>  2 0.55633311E+01</rscale>
<asrwt>0</asrwt>
<pdfrwt beam="1">  1       21 0.47258705E-01 0.55633311E+01</pdfrwt>
<pdfrwt beam="2">  1       21 0.23103711E-04 0.55633311E+01</pdfrwt>
<totfact> 0.13590417E+09</totfact>
</mgrwt>
</event>
<event>
 4    1  0.4144004E+006  0.4809701E+01  0.7546771E-02  0.2602062E+00
         21   -1    0    0  503  502  0.00000000000E+00  0.00000000000E+00  0.13357496961E+01  0.13357496961E+01  0.00000000000E+00 0.  1.
         21   -1    0    0  501  503 -0.00000000000E+00 -0.00000000000E+00 -0.51258199869E+02  0.51258199869E+02  0.00000000000E+00 0.  1.
          5    1    1    2  501    0 -0.89199941942E+00 -0.49755068914E+00 -0.46359458916E+02  0.46608289506E+02  0.47000000000E+01 0.  1.
         -5    1    1    2    0  502  0.89199941942E+00  0.49755068914E+00 -0.35629912571E+01  0.59856600597E+01  0.47000000000E+01 0.  1.
<mgrwt>
<rscale>  2 0.48097006E+01</rscale>
<asrwt>0</asrwt>
<pdfrwt beam="1">  1       21 0.20549995E-03 0.48097006E+01</pdfrwt>
<pdfrwt beam="2">  1       21 0.78858771E-02 0.48097006E+01</pdfrwt>
<totfact> 0.11522413E+09</totfact>
</mgrwt>
</event>
<event>
 4    1  0.4144004E+006  0.6158211E+01  0.7546771E-02  0.2395276E+00
         21   -1    0    0  501  502  0.00000000000E+00  0.00000000000E+00  0.55025018049E+00  0.55025018049E+00  0.00000000000E+00 0. -1.
         21   -1    0    0  502  503 -0.00000000000E+00 -0.00000000000E+00 -0.72882899091E+02  0.72882899091E+02  0.00000000000E+00 0. -1.
          5    1    1    2  501    0  0.21839994153E+01  0.33262151442E+01 -0.27605331161E+02  0.28283880022E+02  0.47000000000E+01 0. -1.
         -5    1    1    2    0  503 -0.21839994153E+01 -0.33262151442E+01 -0.44727317750E+02  0.45149269249E+02  0.47000000000E+01 0. -1.
<mgrwt>
<rscale>  2 0.61582108E+01</rscale>
<asrwt>0</asrwt>
<pdfrwt beam="1">  1       21 0.84653926E-04 0.61582108E+01</pdfrwt>
<pdfrwt beam="2">  1       21 0.11212747E-01 0.61582108E+01</pdfrwt>
<totfact> 0.27716163E+09</totfact>
</mgrwt>
</event>
<event>
 4    1  0.4144004E+006  0.7326370E+01  0.7546771E-02  0.2269297E+00
         21   -1    0    0  501  502  0.00000000000E+00  0.00000000000E+00  0.60010715739E+03  0.60010715739E+03  0.00000000000E+00 0.  1.
         21   -1    0    0  502  503 -0.00000000000E+00 -0.00000000000E+00 -0.90145173194E-01  0.90145173194E-01  0.00000000000E+00 0. -1.
          5    1    1    2  501    0  0.55815053664E+01 -0.65764744482E+00  0.32648442708E+03  0.32656661928E+03  0.47000000000E+01 0. -1.
         -5    1    1    2    0  503 -0.55815053664E+01  0.65764744482E+00  0.27353258514E+03  0.27363068328E+03  0.47000000000E+01 0.  1.
<mgrwt>
<rscale>  2 0.73263703E+01</rscale>
<asrwt>0</asrwt>
<pdfrwt beam="1">  1       21 0.92320979E-01 0.73263703E+01</pdfrwt>
<pdfrwt beam="2">  1       21 0.13868969E-04 0.73263703E+01</pdfrwt>
<totfact> 0.91442533E+08</totfact>
</mgrwt>
</event>
<event>
 4    1  0.4144004E+006  0.6858296E+01  0.7546771E-02  0.2315521E+00
         21   -1    0    0  503  502  0.00000000000E+00  0.00000000000E+00  0.17039441718E+00  0.17039441718E+00  0.00000000000E+00 0. -1.
         21   -1    0    0  501  503 -0.00000000000E+00 -0.00000000000E+00 -0.45487446203E+03  0.45487446203E+03  0.00000000000E+00 0.  1.
          5    1    1    2  501    0 -0.48356957358E+01 -0.12499094055E+01 -0.37001134091E+03  0.37007489598E+03  0.47000000000E+01 0.  1.
         -5    1    1    2    0  502  0.48356957358E+01  0.12499094055E+01 -0.84692726703E+02  0.84969960475E+02  0.47000000000E+01 0. -1.
<mgrwt>
<rscale>  2 0.68582962E+01</rscale>
<asrwt>0</asrwt>
<pdfrwt beam="1">  1       21 0.26214726E-04 0.68582962E+01</pdfrwt>
<pdfrwt beam="2">  1       21 0.69980151E-01 0.68582962E+01</pdfrwt>
<totfact> 0.64493115E+08</totfact>
</mgrwt>
</event>
<event>
 4    1  0.4144004E+006  0.6158816E+01  0.7546771E-02  0.2395201E+00
         21   -1    0    0  503  502  0.00000000000E+00  0.00000000000E+00  0.21489510561E+01  0.21489510561E+01  0.00000000000E+00 0. -1.
         21   -1    0    0  501  503 -0.00000000000E+00 -0.00000000000E+00 -0.17651137709E+02  0.17651137709E+02  0.00000000000E+00 0. -1.
          5    1    1    2  501    0 -0.20604895886E+01  0.34052018714E+01 -0.77183908818E+01  0.98744404871E+01  0.47000000000E+01 0. -1.
         -5    1    1    2    0  502  0.20604895886E+01 -0.34052018714E+01 -0.77837957711E+01  0.99256482779E+01  0.47000000000E+01 0. -1.
<mgrwt>
<rscale>  2 0.61588162E+01</rscale>
<asrwt>0</asrwt>
<pdfrwt beam="1">  1       21 0.33060784E-03 0.61588162E+01</pdfrwt>
<pdfrwt beam="2">  1       21 0.27155598E-02 0.61588162E+01</pdfrwt>
<totfact> 0.36227684E+09</totfact>
</mgrwt>
</event>
<event>
 4    1  0.4144004E+006  0.5199488E+01  0.7546771E-02  0.2532937E+00
         21   -1    0    0  503  502  0.00000000000E+00  0.00000000000E+00  0.18485436484E+01  0.18485436484E+01  0.00000000000E+00 0. -1.
         21   -1    0    0  501  503 -0.00000000000E+00 -0.00000000000E+00 -0.18121659561E+02  0.18121659561E+02  0.00000000000E+00 0. -1.
          5    1    1    2  501    0  0.18056119733E+01 -0.12978589798E+01 -0.12522769065E+02  0.13559292665E+02  0.47000000000E+01 0. -1.
         -5    1    1    2    0  502 -0.18056119733E+01  0.12978589798E+01 -0.37503468480E+01  0.64109105445E+01  0.47000000000E+01 0. -1.
<mgrwt>
<rscale>  2 0.51994877E+01</rscale>
<asrwt>0</asrwt>
<pdfrwt beam="1">  1       21 0.28439133E-03 0.51994877E+01</pdfrwt>
<pdfrwt beam="2">  1       21 0.27879476E-02 0.51994877E+01</pdfrwt>
<totfact> 0.36587479E+09</totfact>
</mgrwt>
</event>
<event>
 4    1  0.4144004E+006  0.6599278E+01  0.7546771E-02  0.2343394E+00
         21   -1    0    0  503  502  0.00000000000E+00  0.00000000000E+00  0.71851286308E+00  0.71851286308E+00  0.00000000000E+00 0.  1.
         21   -1    0    0  501  503 -0.00000000000E+00 -0.00000000000E+00 -0.20994466338E+03  0.20994466338E+03  0.00000000000E+00 0. -1.
          5    1    1    2  501    0  0.13965993222E+01  0.44170103124E+01 -0.19344798847E+03  0.19356051951E+03  0.47000000000E+01 0. -1.
         -5    1    1    2    0  502 -0.13965993222E+01 -0.44170103124E+01 -0.15778162049E+02  0.17102656735E+02  0.47000000000E+01 0.  1.
<mgrwt>
<rscale>  2 0.65992780E+01</rscale>
<asrwt>0</asrwt>
<pdfrwt beam="1">  1       21 0.11054042E-03 0.65992780E+01</pdfrwt>
<pdfrwt beam="2">  1       21 0.32299185E-01 0.65992780E+01</pdfrwt>
<totfact> 0.36682195E+08</totfact>
</mgrwt>
</event>
<event>
 4    1  0.4144004E+006  0.5335596E+01  0.7546771E-02  0.2510854E+00
         21   -1    0    0  501  502  0.00000000000E+00  0.00000000000E+00  0.78948873851E+01  0.78948873851E+01  0.00000000000E+00 0.  1.
         21   -1    0    0  502  503 -0.00000000000E+00 -0.00000000000E+00 -0.13479438930E+02  0.13479438930E+02  0.00000000000E+00 0.  1.
          5    1    1    2  501    0  0.52661908812E+00 -0.24700717689E+01  0.63543690983E+01  0.82973844581E+01  0.47000000000E+01 0.  1.
         -5    1    1    2    0  503 -0.52661908812E+00  0.24700717689E+01 -0.11938920644E+02  0.13076941857E+02  0.47000000000E+01 0.  1.
<mgrwt>
<rscale>  2 0.53355958E+01</rscale>
<asrwt>0</asrwt>
<pdfrwt beam="1">  1       21 0.12145981E-02 0.53355958E+01</pdfrwt>
<pdfrwt beam="2">  1       21 0.20737598E-02 0.53355958E+01</pdfrwt>
<totfact> 0.76912567E+08</totfact>
</mgrwt>
</event>
<event>
 4    1  0.4144004E+006  0.5341434E+01  0.7546771E-02  0.2509929E+00
         21   -1    0    0  503  502  0.00000000000E+00  0.00000000000E+00  0.29548043233E+02  0.29548043233E+02  0.00000000000E+00 0.  1.
         21   -1    0    0  501  503 -0.00000000000E+00 -0.00000000000E+00 -0.16193647461E+01  0.16193647461E+01  0.00000000000E+00 0.  1.
          5    1    1    2  501    0 -0.84665361017E+00  0.23925071185E+01  0.40624806706E+01  0.67107869767E+01  0.47000000000E+01 0.  1.
         -5    1    1    2    0  502  0.84665361017E+00 -0.23925071185E+01  0.23866197817E+02  0.24456621003E+02  0.47000000000E+01 0.  1.
<mgrwt>
<rscale>  2 0.53414336E+01</rscale>
<asrwt>0</asrwt>
<pdfrwt beam="1">  1       21 0.45458524E-02 0.53414336E+01</pdfrwt>
<pdfrwt beam="2">  1       21 0.24913306E-03 0.53414336E+01</pdfrwt>
<totfact> 0.22142671E+09</totfact>
</mgrwt>
</event>
<event>
 4    1  0.4144004E+006  0.5739000E+01  0.7546771E-02  0.2450683E+00
         21   -1    0    0  503  502  0.00000000000E+00  0.00000000000E+00  0.21112740319E+03  0.21112740319E+03  0.00000000000E+00 0. -1.
         21   -1    0    0  501  503 -0.00000000000E+00 -0.00000000000E+00 -0.31683875444E+00  0.31683875444E+00  0.00000000000E+00 0. -1.
          5    1    1    2  501    0 -0.30303768966E+01 -0.12895484503E+01  0.30080045345E+02  0.30622626395E+02  0.47000000000E+01 0. -1.
         -5    1    1    2    0  502  0.30303768966E+01  0.12895484503E+01  0.18073051909E+03  0.18082161555E+03  0.47000000000E+01 0. -1.
<mgrwt>
<rscale>  2 0.57389999E+01</rscale>
<asrwt>0</asrwt>
<pdfrwt beam="1">  1       21 0.32481026E-01 0.57389999E+01</pdfrwt>
<pdfrwt beam="2">  1       21 0.48744593E-04 0.57389999E+01</pdfrwt>
<totfact> 0.98665290E+08</totfact>
</mgrwt>
</event>
<event>
 4    1  0.4144004E+006  0.5745847E+01  0.7546771E-02  0.2449724E+00
         21   -1    0    0  503  502  0.00000000000E+00  0.00000000000E+00  0.17603078892E+02  0.17603078892E+02  0.00000000000E+00 0.  1.
         21   -1    0    0  501  503 -0.00000000000E+00 -0.00000000000E+00 -0.12740926507E+02  0.12740926507E+02  0.00000000000E+00 0.  1.
          5    1    1    2  501    0 -0.32685802949E+01 -0.49106512173E+00 -0.11579809254E+02  0.12926977391E+02  0.47000000000E+01 0.  1.
         -5    1    1    2    0  502  0.32685802949E+01  0.49106512173E+00  0.16441961639E+02  0.17417028008E+02  0.47000000000E+01 0.  1.
<mgrwt>
<rscale>  2 0.57458474E+01</rscale>
<asrwt>0</asrwt>
<pdfrwt beam="1">  1       21 0.27081660E-02 0.57458474E+01</pdfrwt>
<pdfrwt beam="2">  1       21 0.19601425E-02 0.57458474E+01</pdfrwt>
<totfact> 0.28241067E+08</totfact>
</mgrwt>
</event>
<event>
 4    1  0.4144004E+006  0.7253307E+01  0.7546771E-02  0.2276190E+00
         21   -1    0    0  503  502  0.00000000000E+00  0.00000000000E+00  0.57427986659E+01  0.57427986659E+01  0.00000000000E+00 0.  1.
         21   -1    0    0  501  503 -0.00000000000E+00 -0.00000000000E+00 -0.91760016461E+01  0.91760016461E+01  0.00000000000E+00 0. -1.
          5    1    1    2  501    0 -0.51746684211E+01 -0.19347526832E+01 -0.20170147965E+01  0.75285330512E+01  0.47000000000E+01 0.  1.
         -5    1    1    2    0  502  0.51746684211E+01  0.19347526832E+01 -0.14161881837E+01  0.73902672608E+01  0.47000000000E+01 0.  1.
<mgrwt>
<rscale>  2 0.72533069E+01</rscale>
<asrwt>0</asrwt>
<pdfrwt beam="1">  1       21 0.88350749E-03 0.72533069E+01</pdfrwt>
<pdfrwt beam="2">  1       21 0.14116926E-02 0.72533069E+01</pdfrwt>
<totfact> 0.26950143E+09</totfact>
</mgrwt>
</event>
<event>
 4    1  0.4144004E+006  0.5962098E+01  0.7546771E-02  0.2420383E+00
         21   -1    0    0  501  502  0.00000000000E+00  0.00000000000E+00  0.20318934839E+00  0.20318934839E+00  0.00000000000E+00 0. -1.
         21   -1    0    0  502  503 -0.00000000000E+00 -0.00000000000E+00 -0.17747233120E+03  0.17747233120E+03  0.00000000000E+00 0. -1.
          5    1    1    2  501    0  0.34248486980E+01  0.13141638768E+01 -0.78029604533E+02  0.78257049516E+02  0.47000000000E+01 0. -1.
         -5    1    1    2    0  503 -0.34248486980E+01 -0.13141638768E+01 -0.99239537318E+02  0.99418471032E+02  0.47000000000E+01 0. -1.
<mgrwt>
<rscale>  2 0.59620982E+01</rscale>
<asrwt>0</asrwt>
<pdfrwt beam="1">  1       21 0.31259869E-04 0.59620982E+01</pdfrwt>
<pdfrwt beam="2">  1       21 0.27303462E-01 0.59620982E+01</pdfrwt>
<totfact> 0.24625813E+09</totfact>
</mgrwt>
</event>
<event>
 4    1  0.4144004E+006  0.8442540E+01  0.7546771E-02  0.2176227E+00
         21   -1    0    0  503  502  0.00000000000E+00  0.00000000000E+00  0.19555834892E+03  0.19555834892E+03  0.00000000000E+00 0. -1.
         21   -1    0    0  501  503 -0.00000000000E+00 -0.00000000000E+00 -0.40132238432E+00  0.40132238432E+00  0.00000000000E+00 0.  1.
          5    1    1    2  501    0  0.11875762700E+01  0.69120285304E+01  0.67890379212E+02  0.68413303277E+02  0.47000000000E+01 0.  1.
         -5    1    1    2    0  502 -0.11875762700E+01 -0.69120285304E+01  0.12726664733E+03  0.12754636803E+03  0.47000000000E+01 0. -1.
<mgrwt>
<rscale>  2 0.84425397E+01</rscale>
<asrwt>0</asrwt>
<pdfrwt beam="1">  1       21 0.30085824E-01 0.84425397E+01</pdfrwt>
<pdfrwt beam="2">  1       21 0.61742062E-04 0.84425397E+01</pdfrwt>
<totfact> 0.10658001E+09</totfact>
</mgrwt>
</event>
<event>
 4    1  0.4144004E+006  0.4962057E+01  0.7546771E-02  0.2573929E+00
         21   -1    0    0  503  502  0.00000000000E+00  0.00000000000E+00  0.20480258683E+01  0.20480258683E+01  0.00000000000E+00 0. -1.
         21   -1    0    0  501  503 -0.00000000000E+00 -0.00000000000E+00 -0.12144959731E+02  0.12144959731E+02  0.00000000000E+00 0.  1.
          5    1    1    2  501    0  0.13272179533E+01  0.87778375700E+00 -0.43353341000E+01  0.65891678972E+01  0.47000000000E+01 0. -1.
         -5    1    1    2    0  502 -0.13272179533E+01 -0.87778375700E+00 -0.57615997623E+01  0.76038177017E+01  0.47000000000E+01 0.  1.
<mgrwt>
<rscale>  2 0.49620572E+01</rscale>
<asrwt>0</asrwt>
<pdfrwt beam="1">  1       21 0.31508090E-03 0.49620572E+01</pdfrwt>
<pdfrwt beam="2">  1       21 0.18684554E-02 0.49620572E+01</pdfrwt>
<totfact> 0.53626138E+09</totfact>
</mgrwt>
</event>
<event>
 4    1  0.4144004E+006  0.7477319E+01  0.7546771E-02  0.2255404E+00
         21   -1    0    0  503  502  0.00000000000E+00  0.00000000000E+00  0.10891979003E+00  0.10891979003E+00  0.00000000000E+00 0.  1.
         21   -1    0    0  501  503 -0.00000000000E+00 -0.00000000000E+00 -0.51420542115E+03  0.51420542115E+03  0.00000000000E+00 0.  1.
          5    1    1    2  501    0  0.56723233657E+01  0.12825942136E+01 -0.26774171089E+03  0.26784610143E+03  0.47000000000E+01 0.  1.
         -5    1    1    2    0  502 -0.56723233657E+01 -0.12825942136E+01 -0.24635479048E+03  0.24646823952E+03  0.47000000000E+01 0.  1.
<mgrwt>
<rscale>  2 0.74773191E+01</rscale>
<asrwt>0</asrwt>
<pdfrwt beam="1">  1       21 0.16756717E-04 0.74773191E+01</pdfrwt>
<pdfrwt beam="2">  1       21 0.79109345E-01 0.74773191E+01</pdfrwt>
<totfact> 0.97733209E+08</totfact>
</mgrwt>
</event>
<event>
 4    1  0.4144004E+006  0.5489747E+01  0.7546771E-02  0.2486977E+00
         21   -1    0    0  503  502  0.00000000000E+00  0.00000000000E+00  0.37379550813E+03  0.37379550813E+03  0.00000000000E+00 0.  1.
         21   -1    0    0  501  503 -0.00000000000E+00 -0.00000000000E+00 -0.16012917609E+00  0.16012917609E+00  0.00000000000E+00 0. -1.
          5    1    1    2  501    0 -0.52118902809E+00  0.27884917079E+01  0.55068067427E+02  0.55341027947E+02  0.47000000000E+01 0. -1.
         -5    1    1    2    0  502  0.52118902809E+00 -0.27884917079E+01  0.31856731152E+03  0.31861460935E+03  0.47000000000E+01 0.  1.
<mgrwt>
<rscale>  2 0.54897472E+01</rscale>
<asrwt>0</asrwt>
<pdfrwt beam="1">  1       21 0.57506303E-01 0.54897472E+01</pdfrwt>
<pdfrwt beam="2">  1       21 0.24635557E-04 0.54897472E+01</pdfrwt>
<totfact> 0.86719922E+08</totfact>
</mgrwt>
</event>
<event>
 4    1  0.4144004E+006  0.5321594E+01  0.7546771E-02  0.2513082E+00
         21   -1    0    0  503  502  0.00000000000E+00  0.00000000000E+00  0.20254662603E+00  0.20254662603E+00  0.00000000000E+00 0. -1.
         21   -1    0    0  501  503 -0.00000000000E+00 -0.00000000000E+00 -0.14136392374E+03  0.14136392374E+03  0.00000000000E+00 0.  1.
          5    1    1    2  501    0  0.66332989595E-01  0.24949874517E+01 -0.63175019888E+02  0.63398757876E+02  0.47000000000E+01 0.  1.
         -5    1    1    2    0  502 -0.66332989595E-01 -0.24949874517E+01 -0.77986357223E+02  0.78167712487E+02  0.47000000000E+01 0. -1.
<mgrwt>
<rscale>  2 0.53215940E+01</rscale>
<asrwt>0</asrwt>
<pdfrwt beam="1">  1       21 0.31160998E-04 0.53215940E+01</pdfrwt>
<pdfrwt beam="2">  1       21 0.21748311E-01 0.53215940E+01</pdfrwt>
<totfact> 0.32568192E+09</totfact>
</mgrwt>
</event>
<event>
 4    1  0.4144004E+006  0.4792736E+01  0.7546771E-02  0.2605290E+00
         21   -1    0    0  503  502  0.00000000000E+00  0.00000000000E+00  0.33342748231E+02  0.33342748231E+02  0.00000000000E+00 0. -1.
         21   -1    0    0  501  503 -0.00000000000E+00 -0.00000000000E+00 -0.79791510980E+00  0.79791510980E+00  0.00000000000E+00 0.  1.
          5    1    1    2  501    0  0.88277502007E+00 -0.31784811532E+00  0.99631758546E+01  0.11056002545E+02  0.47000000000E+01 0.  1.
         -5    1    1    2    0  502 -0.88277502007E+00  0.31784811532E+00  0.22581657266E+02  0.23084660796E+02  0.47000000000E+01 0. -1.
<mgrwt>
<rscale>  2 0.47927361E+01</rscale>
<asrwt>0</asrwt>
<pdfrwt beam="1">  1       21 0.51296525E-02 0.47927361E+01</pdfrwt>
<pdfrwt beam="2">  1       21 0.12275620E-03 0.47927361E+01</pdfrwt>
<totfact> 0.43036041E+09</totfact>
</mgrwt>
</event>
<event>
 4    1  0.4144004E+006  0.6183551E+01  0.7546771E-02  0.2392129E+00
         21   -1    0    0  503  502  0.00000000000E+00  0.00000000000E+00  0.23704148264E+02  0.23704148264E+02  0.00000000000E+00 0.  1.
         21   -1    0    0  501  503 -0.00000000000E+00 -0.00000000000E+00 -0.25350235674E+01  0.25350235674E+01  0.00000000000E+00 0. -1.
          5    1    1    2  501    0 -0.38093408605E+01 -0.12787573223E+01  0.26725826219E+01  0.67363933935E+01  0.47000000000E+01 0. -1.
         -5    1    1    2    0  502  0.38093408605E+01  0.12787573223E+01  0.18496542075E+02  0.19502778438E+02  0.47000000000E+01 0.  1.
<mgrwt>
<rscale>  2 0.61835506E+01</rscale>
<asrwt>0</asrwt>
<pdfrwt beam="1">  1       21 0.36467919E-02 0.61835506E+01</pdfrwt>
<pdfrwt beam="2">  1       21 0.39000364E-03 0.61835506E+01</pdfrwt>
<totfact> 0.18816939E+09</totfact>
</mgrwt>
</event>
<event>
 4    1  0.4144004E+006  0.4850513E+01  0.7546771E-02  0.2594376E+00
         21   -1    0    0  501  502  0.00000000000E+00  0.00000000000E+00  0.40420201619E+03  0.40420201619E+03  0.00000000000E+00 0. -1.
         21   -1    0    0  502  503 -0.00000000000E+00 -0.00000000000E+00 -0.77654613487E-01  0.77654613487E-01  0.00000000000E+00 0. -1.
          5    1    1    2  501    0 -0.82444738135E+00 -0.87049711897E+00  0.30321986845E+03  0.30325866204E+03  0.47000000000E+01 0. -1.
         -5    1    1    2    0  503  0.82444738135E+00  0.87049711897E+00  0.10090449312E+03  0.10102100876E+03  0.47000000000E+01 0. -1.
<mgrwt>
<rscale>  2 0.48505132E+01</rscale>
<asrwt>0</asrwt>
<pdfrwt beam="1">  1       21 0.62183241E-01 0.48505132E+01</pdfrwt>
<pdfrwt beam="2">  1       21 0.11947187E-04 0.48505132E+01</pdfrwt>
<totfact> 0.17714494E+09</totfact>
</mgrwt>
</event>
<event>
 4    1  0.4144004E+006  0.7765691E+01  0.7546771E-02  0.2230089E+00
         21   -1    0    0  501  502  0.00000000000E+00  0.00000000000E+00  0.17758334142E+02  0.17758334142E+02  0.00000000000E+00 0.  1.
         21   -1    0    0  502  503 -0.00000000000E+00 -0.00000000000E+00 -0.77959947629E+01  0.77959947629E+01  0.00000000000E+00 0.  1.
          5    1    1    2  501    0 -0.19273402036E+01 -0.58737826649E+01  0.14580225529E+02  0.16519350458E+02  0.47000000000E+01 0.  1.
         -5    1    1    2    0  503  0.19273402036E+01  0.58737826649E+01 -0.46178861500E+01  0.90349784476E+01  0.47000000000E+01 0.  1.
<mgrwt>
<rscale>  2 0.77656914E+01</rscale>
<asrwt>0</asrwt>
<pdfrwt beam="1">  1       21 0.27320514E-02 0.77656914E+01</pdfrwt>
<pdfrwt beam="2">  1       21 0.11993838E-02 0.77656914E+01</pdfrwt>
<totfact> 0.69939330E+08</totfact>
</mgrwt>
</event>
<event>
 4    1  0.4144004E+006  0.5877454E+01  0.7546771E-02  0.2431651E+00
         21   -1    0    0  501  502  0.00000000000E+00  0.00000000000E+00  0.10324574705E+02  0.10324574705E+02  0.00000000000E+00 0.  1.
         21   -1    0    0  502  503 -0.00000000000E+00 -0.00000000000E+00 -0.39276418500E+01  0.39276418500E+01  0.00000000000E+00 0.  1.
          5    1    1    2  501    0 -0.34997458986E+01 -0.45413537194E+00  0.45581292187E+00  0.58951018406E+01  0.47000000000E+01 0.  1.
         -5    1    1    2    0  503  0.34997458986E+01  0.45413537194E+00  0.59411199332E+01  0.83571147145E+01  0.47000000000E+01 0.  1.
<mgrwt>
<rscale>  2 0.58774536E+01</rscale>
<asrwt>0</asrwt>
<pdfrwt beam="1">  1       21 0.15883961E-02 0.58774536E+01</pdfrwt>
<pdfrwt beam="2">  1       21 0.60425260E-03 0.58774536E+01</pdfrwt>
<totfact> 0.32575396E+09</totfact>
</mgrwt>
</event>
<event>
 4    1  0.4144004E+006  0.5072080E+01  0.7546771E-02  0.2554524E+00
         21   -1    0    0  503  502  0.00000000000E+00  0.00000000000E+00  0.14008645467E+01  0.14008645467E+01  0.00000000000E+00 0.  1.
         21   -1    0    0  501  503 -0.00000000000E+00 -0.00000000000E+00 -0.29853947314E+02  0.29853947314E+02  0.00000000000E+00 0.  1.
          5    1    1    2  501    0 -0.13132499568E+01 -0.13825219271E+01 -0.23921323930E+02  0.24453133356E+02  0.47000000000E+01 0.  1.
         -5    1    1    2    0  502  0.13132499568E+01  0.13825219271E+01 -0.45317588366E+01  0.68016785047E+01  0.47000000000E+01 0.  1.
<mgrwt>
<rscale>  2 0.50720797E+01</rscale>
<asrwt>0</asrwt>
<pdfrwt beam="1">  1       21 0.21551765E-03 0.50720797E+01</pdfrwt>
<pdfrwt beam="2">  1       21 0.45929144E-02 0.50720797E+01</pdfrwt>
<totfact> 0.25234092E+09</totfact>
</mgrwt>
</event>
<event>
 4    1  0.4144004E+006  0.6390241E+01  0.7546771E-02  0.2367241E+00
         21   -1    0    0  501  502  0.00000000000E+00  0.00000000000E+00  0.93752793830E+02  0.93752793830E+02  0.00000000000E+00 0. -1.
         21   -1    0    0  502  503 -0.00000000000E+00 -0.00000000000E+00 -0.50667087551E+00  0.50667087551E+00  0.00000000000E+00 0. -1.
          5    1    1    2  501    0 -0.47865785312E+00 -0.43030292527E+01  0.64279099957E+02  0.64595958584E+02  0.47000000000E+01 0. -1.
         -5    1    1    2    0  503  0.47865785312E+00  0.43030292527E+01  0.28967022997E+02  0.29663506121E+02  0.47000000000E+01 0. -1.
<mgrwt>
<rscale>  2 0.63902405E+01</rscale>
<asrwt>0</asrwt>
<pdfrwt beam="1">  1       21 0.14423493E-01 0.63902405E+01</pdfrwt>
<pdfrwt beam="2">  1       21 0.77949440E-04 0.63902405E+01</pdfrwt>
<totfact> 0.21525386E+09</totfact>
</mgrwt>
</event>
<event>
 4    1  0.4144004E+006  0.6161247E+01  0.7546771E-02  0.2394898E+00
         21   -1    0    0  501  502  0.00000000000E+00  0.00000000000E+00  0.24479981129E+02  0.24479981129E+02  0.00000000000E+00 0.  1.
         21   -1    0    0  502  503 -0.00000000000E+00 -0.00000000000E+00 -0.12578772951E+02  0.12578772951E+02  0.00000000000E+00 0.  1.
          5    1    1    2  501    0 -0.11276126747E+01 -0.38209238262E+01  0.23300289532E+02  0.24101129880E+02  0.47000000000E+01 0.  1.
         -5    1    1    2    0  503  0.11276126747E+01  0.38209238262E+01 -0.11399081353E+02  0.12957624201E+02  0.47000000000E+01 0.  1.
<mgrwt>
<rscale>  2 0.61612474E+01</rscale>
<asrwt>0</asrwt>
<pdfrwt beam="1">  1       21 0.37661509E-02 0.61612474E+01</pdfrwt>
<pdfrwt beam="2">  1       21 0.19351958E-02 0.61612474E+01</pdfrwt>
<totfact> 0.18718742E+08</totfact>
</mgrwt>
</event>
<event>
 4    1  0.4144004E+006  0.5352246E+01  0.7546771E-02  0.2508219E+00
         21   -1    0    0  503  502  0.00000000000E+00  0.00000000000E+00  0.49752700590E+01  0.49752700590E+01  0.00000000000E+00 0.  1.
         21   -1    0    0  501  503 -0.00000000000E+00 -0.00000000000E+00 -0.13513541063E+02  0.13513541063E+02  0.00000000000E+00 0.  1.
          5    1    1    2  501    0 -0.15487693192E+01 -0.20390800195E+01 -0.11272496073E+02  0.12478609756E+02  0.47000000000E+01 0.  1.
         -5    1    1    2    0  502  0.15487693192E+01  0.20390800195E+01  0.27342250690E+01  0.60102013659E+01  0.47000000000E+01 0.  1.
<mgrwt>
<rscale>  2 0.53522457E+01</rscale>
<asrwt>0</asrwt>
<pdfrwt beam="1">  1       21 0.76542617E-03 0.53522457E+01</pdfrwt>
<pdfrwt beam="2">  1       21 0.20790063E-02 0.53522457E+01</pdfrwt>
<totfact> 0.14666631E+09</totfact>
</mgrwt>
</event>
<event>
 4    1  0.4144004E+006  0.5770665E+01  0.7546771E-02  0.2446263E+00
         21   -1    0    0  503  502  0.00000000000E+00  0.00000000000E+00  0.54582430391E+01  0.54582430391E+01  0.00000000000E+00 0.  1.
         21   -1    0    0  501  503 -0.00000000000E+00 -0.00000000000E+00 -0.93576753171E+01  0.93576753171E+01  0.00000000000E+00 0.  1.
          5    1    1    2  501    0 -0.33481915459E+01  0.13684516238E-01 -0.63199418147E+01  0.85581679368E+01  0.47000000000E+01 0.  1.
         -5    1    1    2    0  502  0.33481915459E+01 -0.13684516238E-01  0.24205095367E+01  0.62577504194E+01  0.47000000000E+01 0.  1.
<mgrwt>
<rscale>  2 0.57706649E+01</rscale>
<asrwt>0</asrwt>
<pdfrwt beam="1">  1       21 0.83972971E-03 0.57706649E+01</pdfrwt>
<pdfrwt beam="2">  1       21 0.14396423E-02 0.57706649E+01</pdfrwt>
<totfact> 0.23267234E+09</totfact>
</mgrwt>
</event>
<event>
 4    1  0.4144004E+006  0.4807233E+01  0.7546771E-02  0.2602530E+00
         21   -1    0    0  503  502  0.00000000000E+00  0.00000000000E+00  0.26134979486E+00  0.26134979486E+00  0.00000000000E+00 0. -1.
         21   -1    0    0  501  503 -0.00000000000E+00 -0.00000000000E+00 -0.21571018814E+03  0.21571018814E+03  0.00000000000E+00 0. -1.
          5    1    1    2  501    0  0.47338571176E+00  0.89185097035E+00 -0.19067558672E+03  0.19073617607E+03  0.47000000000E+01 0. -1.
         -5    1    1    2    0  502 -0.47338571176E+00 -0.89185097035E+00 -0.24773251627E+02  0.25235361863E+02  0.47000000000E+01 0. -1.
<mgrwt>
<rscale>  2 0.48072333E+01</rscale>
<asrwt>0</asrwt>
<pdfrwt beam="1">  1       21 0.40207704E-04 0.48072333E+01</pdfrwt>
<pdfrwt beam="2">  1       21 0.33186147E-01 0.48072333E+01</pdfrwt>
<totfact> 0.10587700E+09</totfact>
</mgrwt>
</event>
<event>
 4    1  0.4144004E+006  0.6274113E+01  0.7546771E-02  0.2381057E+00
         21   -1    0    0  503  502  0.00000000000E+00  0.00000000000E+00  0.30592331418E+04  0.30592331418E+04  0.00000000000E+00 0.  1.
         21   -1    0    0  501  503 -0.00000000000E+00 -0.00000000000E+00 -0.15402239075E-01  0.15402239075E-01  0.00000000000E+00 0. -1.
          5    1    1    2  501    0  0.39646991909E+01  0.12472597180E+01  0.90907616739E+03  0.90909781796E+03  0.47000000000E+01 0. -1.
         -5    1    1    2    0  502 -0.39646991909E+01 -0.12472597180E+01  0.21501415721E+04  0.21501507260E+04  0.47000000000E+01 0.  1.
<mgrwt>
<rscale>  2 0.62741132E+01</rscale>
<asrwt>0</asrwt>
<pdfrwt beam="1">  1       21 0.47016508E+00 0.62741132E+01</pdfrwt>
<pdfrwt beam="2">  1       21 0.23720255E-05 0.62741132E+01</pdfrwt>
<totfact> 0.11408408E+08</totfact>
</mgrwt>
</event>
<event>
 4    1  0.4144004E+006  0.9846458E+01  0.7546771E-02  0.2083833E+00
         21   -1    0    0  501  502  0.00000000000E+00  0.00000000000E+00  0.38965763134E+00  0.38965763134E+00  0.00000000000E+00 0. -1.
         21   -1    0    0  502  503 -0.00000000000E+00 -0.00000000000E+00 -0.25030320723E+03  0.25030320723E+03  0.00000000000E+00 0. -1.
          5    1    1    2  501    0  0.44428558830E+01 -0.74245376041E+01 -0.13462143746E+03  0.13498105108E+03  0.47000000000E+01 0. -1.
         -5    1    1    2    0  503 -0.44428558830E+01  0.74245376041E+01 -0.11529211214E+03  0.11571181378E+03  0.47000000000E+01 0. -1.
<mgrwt>
<rscale>  2 0.98464576E+01</rscale>
<asrwt>0</asrwt>
<pdfrwt beam="1">  1       21 0.59947420E-04 0.98464576E+01</pdfrwt>
<pdfrwt beam="2">  1       21 0.38508127E-01 0.98464576E+01</pdfrwt>
<totfact> 0.78411495E+08</totfact>
</mgrwt>
</event>
<event>
 4    1  0.4144004E+006  0.5350975E+01  0.7546771E-02  0.2508420E+00
         21   -1    0    0  501  502  0.00000000000E+00  0.00000000000E+00  0.87460201850E+00  0.87460201850E+00  0.00000000000E+00 0.  1.
         21   -1    0    0  502  503 -0.00000000000E+00 -0.00000000000E+00 -0.32750753933E+02  0.32750753933E+02  0.00000000000E+00 0.  1.
          5    1    1    2  501    0 -0.16270814249E+01 -0.19737118565E+01 -0.15609458949E+02  0.16501155751E+02  0.47000000000E+01 0.  1.
         -5    1    1    2    0  503  0.16270814249E+01  0.19737118565E+01 -0.16266692966E+02  0.17124200201E+02  0.47000000000E+01 0.  1.
<mgrwt>
<rscale>  2 0.53509749E+01</rscale>
<asrwt>0</asrwt>
<pdfrwt beam="1">  1       21 0.13455416E-03 0.53509749E+01</pdfrwt>
<pdfrwt beam="2">  1       21 0.50385774E-02 0.53509749E+01</pdfrwt>
<totfact> 0.43778085E+09</totfact>
</mgrwt>
</event>
<event>
 4    1  0.4144004E+006  0.5756878E+01  0.7546771E-02  0.2448183E+00
         21   -1    0    0  503  502  0.00000000000E+00  0.00000000000E+00  0.21899868928E+02  0.21899868928E+02  0.00000000000E+00 0. -1.
         21   -1    0    0  501  503 -0.00000000000E+00 -0.00000000000E+00 -0.18233788523E+01  0.18233788523E+01  0.00000000000E+00 0. -1.
          5    1    1    2  501    0  0.18442849853E+01  0.27659094841E+01  0.51469538806E+01  0.77222261447E+01  0.47000000000E+01 0. -1.
         -5    1    1    2    0  502 -0.18442849853E+01 -0.27659094841E+01  0.14929536196E+02  0.16001021636E+02  0.47000000000E+01 0. -1.
<mgrwt>
<rscale>  2 0.57568778E+01</rscale>
<asrwt>0</asrwt>
<pdfrwt beam="1">  1       21 0.33692104E-02 0.57568778E+01</pdfrwt>
<pdfrwt beam="2">  1       21 0.28051984E-03 0.57568778E+01</pdfrwt>
<totfact> 0.31239086E+09</totfact>
</mgrwt>
</event>
<event>
 4    1  0.4144004E+006  0.1320102E+02  0.7546771E-02  0.1928506E+00
         21   -1    0    0  501  502  0.00000000000E+00  0.00000000000E+00  0.74696166424E+02  0.74696166424E+02  0.00000000000E+00 0.  1.
         21   -1    0    0  502  503 -0.00000000000E+00 -0.00000000000E+00 -0.31667869076E+01  0.31667869076E+01  0.00000000000E+00 0. -1.
          5    1    1    2  501    0 -0.92255747369E+01  0.81893657591E+01  0.55741045199E+02  0.57282903738E+02  0.47000000000E+01 0.  1.
         -5    1    1    2    0  503  0.92255747369E+01 -0.81893657591E+01  0.15788334318E+02  0.20580049594E+02  0.47000000000E+01 0. -1.
<mgrwt>
<rscale>  2 0.13201020E+02</rscale>
<asrwt>0</asrwt>
<pdfrwt beam="1">  1       21 0.11491717E-01 0.13201020E+02</pdfrwt>
<pdfrwt beam="2">  1       21 0.48719804E-03 0.13201020E+02</pdfrwt>
<totfact> 0.37314738E+08</totfact>
</mgrwt>
</event>
<event>
 4    1  0.4144004E+006  0.7030720E+01  0.7546771E-02  0.2297908E+00
         21   -1    0    0  501  502  0.00000000000E+00  0.00000000000E+00  0.21343370359E+02  0.21343370359E+02  0.00000000000E+00 0. -1.
         21   -1    0    0  502  503 -0.00000000000E+00 -0.00000000000E+00 -0.19098783500E+02  0.19098783500E+02  0.00000000000E+00 0.  1.
          5    1    1    2  501    0  0.37261209240E+01 -0.36683843095E+01  0.20077719955E+02  0.21273125280E+02  0.47000000000E+01 0. -1.
         -5    1    1    2    0  503 -0.37261209240E+01  0.36683843095E+01 -0.17833133096E+02  0.19169028578E+02  0.47000000000E+01 0.  1.
<mgrwt>
<rscale>  2 0.70307198E+01</rscale>
<asrwt>0</asrwt>
<pdfrwt beam="1">  1       21 0.32835955E-02 0.70307198E+01</pdfrwt>
<pdfrwt beam="2">  1       21 0.29382744E-02 0.70307198E+01</pdfrwt>
<totfact> 0.13609228E+08</totfact>
</mgrwt>
</event>
<event>
 4    1  0.4144004E+006  0.6374019E+01  0.7546771E-02  0.2369146E+00
         21   -1    0    0  503  502  0.00000000000E+00  0.00000000000E+00  0.43790861809E+03  0.43790861809E+03  0.00000000000E+00 0.  1.
         21   -1    0    0  501  503 -0.00000000000E+00 -0.00000000000E+00 -0.13807681915E+00  0.13807681915E+00  0.00000000000E+00 0.  1.
          5    1    1    2  501    0 -0.17942078677E+01 -0.39139412164E+01  0.93433930375E+02  0.93651094298E+02  0.47000000000E+01 0.  1.
         -5    1    1    2    0  502  0.17942078677E+01  0.39139412164E+01  0.34433661090E+03  0.34439560061E+03  0.47000000000E+01 0.  1.
<mgrwt>
<rscale>  2 0.63740190E+01</rscale>
<asrwt>0</asrwt>
<pdfrwt beam="1">  1       21 0.67369445E-01 0.63740190E+01</pdfrwt>
<pdfrwt beam="2">  1       21 0.21242938E-04 0.63740190E+01</pdfrwt>
<totfact> 0.87599175E+08</totfact>
</mgrwt>
</event>
<event>
 4    1  0.4144004E+006  0.6920345E+01  0.7546771E-02  0.2309100E+00
         21   -1    0    0  501  502  0.00000000000E+00  0.00000000000E+00  0.65071732810E+01  0.65071732810E+01  0.00000000000E+00 0. -1.
         21   -1    0    0  502  503 -0.00000000000E+00 -0.00000000000E+00 -0.18272934073E+02  0.18272934073E+02  0.00000000000E+00 0.  1.
          5    1    1    2  501    0  0.54976385151E+00 -0.50496468411E+01  0.36922515942E+01  0.78437169344E+01  0.47000000000E+01 0. -1.
         -5    1    1    2    0  503 -0.54976385151E+00  0.50496468411E+01 -0.15458012386E+02  0.16936390419E+02  0.47000000000E+01 0.  1.
<mgrwt>
<rscale>  2 0.69203449E+01</rscale>
<asrwt>0</asrwt>
<pdfrwt beam="1">  1       21 0.10011036E-02 0.69203449E+01</pdfrwt>
<pdfrwt beam="2">  1       21 0.28112206E-02 0.69203449E+01</pdfrwt>
<totfact> 0.80132930E+08</totfact>
</mgrwt>
</event>
<event>
 4    1  0.4144004E+006  0.5980151E+01  0.7546771E-02  0.2418014E+00
         21   -1    0    0  503  502  0.00000000000E+00  0.00000000000E+00  0.71798815628E+01  0.71798815628E+01  0.00000000000E+00 0.  1.
         21   -1    0    0  501  503 -0.00000000000E+00 -0.00000000000E+00 -0.62340956883E+01  0.62340956883E+01  0.00000000000E+00 0.  1.
          5    1    1    2  501    0 -0.33016049358E+01 -0.16648149961E+01 -0.25342351268E+01  0.64949635720E+01  0.47000000000E+01 0.  1.
         -5    1    1    2    0  502  0.33016049358E+01  0.16648149961E+01  0.34800210013E+01  0.69190136792E+01  0.47000000000E+01 0.  1.
<mgrwt>
<rscale>  2 0.59801508E+01</rscale>
<asrwt>0</asrwt>
<pdfrwt beam="1">  1       21 0.11045972E-02 0.59801508E+01</pdfrwt>
<pdfrwt beam="2">  1       21 0.95909164E-03 0.59801508E+01</pdfrwt>
<totfact> 0.29002328E+09</totfact>
</mgrwt>
</event>
<event>
 4    1  0.4144004E+006  0.5728017E+01  0.7546771E-02  0.2452226E+00
         21   -1    0    0  503  502  0.00000000000E+00  0.00000000000E+00  0.11907821649E+02  0.11907821649E+02  0.00000000000E+00 0. -1.
         21   -1    0    0  501  503 -0.00000000000E+00 -0.00000000000E+00 -0.47246196812E+01  0.47246196812E+01  0.00000000000E+00 0. -1.
          5    1    1    2  501    0 -0.30328815130E+01  0.12336165189E+01 -0.17774250699E+01  0.59974511142E+01  0.47000000000E+01 0. -1.
         -5    1    1    2    0  502  0.30328815130E+01 -0.12336165189E+01  0.89606270376E+01  0.10634990216E+02  0.47000000000E+01 0. -1.
<mgrwt>
<rscale>  2 0.57280171E+01</rscale>
<asrwt>0</asrwt>
<pdfrwt beam="1">  1       21 0.18319726E-02 0.57280171E+01</pdfrwt>
<pdfrwt beam="2">  1       21 0.72686457E-03 0.57280171E+01</pdfrwt>
<totfact> 0.20070260E+09</totfact>
</mgrwt>
</event>
<event>
 4    1  0.4144004E+006  0.1182792E+02  0.7546771E-02  0.1983801E+00
         21   -1    0    0  503  502  0.00000000000E+00  0.00000000000E+00  0.12535476471E+02  0.12535476471E+02  0.00000000000E+00 0.  1.
         21   -1    0    0  501  503 -0.00000000000E+00 -0.00000000000E+00 -0.11178861922E+02  0.11178861922E+02  0.00000000000E+00 0.  1.
          5    1    1    2  501    0  0.10319286576E+02 -0.33648109674E+01  0.19509256417E+00  0.11829526169E+02  0.47000000000E+01 0.  1.
         -5    1    1    2    0  502 -0.10319286576E+02  0.33648109674E+01  0.11615219847E+01  0.11884812224E+02  0.47000000000E+01 0.  1.
<mgrwt>
<rscale>  2 0.11827917E+02</rscale>
<asrwt>0</asrwt>
<pdfrwt beam="1">  1       21 0.19285349E-02 0.11827917E+02</pdfrwt>
<pdfrwt beam="2">  1       21 0.17198249E-02 0.11827917E+02</pdfrwt>
<totfact> 0.88761124E+08</totfact>
</mgrwt>
</event>
<event>
 4    1  0.4144004E+006  0.6906169E+01  0.7546771E-02  0.2310558E+00
         21   -1    0    0  501  502  0.00000000000E+00  0.00000000000E+00  0.49153274286E+02  0.49153274286E+02  0.00000000000E+00 0.  1.
         21   -1    0    0  502  503 -0.00000000000E+00 -0.00000000000E+00 -0.38907352776E+01  0.38907352776E+01  0.00000000000E+00 0. -1.
          5    1    1    2  501    0 -0.43421306370E+01 -0.25982820684E+01  0.45609239561E+02  0.46129143733E+02  0.47000000000E+01 0.  1.
         -5    1    1    2    0  503  0.43421306370E+01  0.25982820684E+01 -0.34670055344E+00  0.69148658302E+01  0.47000000000E+01 0. -1.
<mgrwt>
<rscale>  2 0.69061688E+01</rscale>
<asrwt>0</asrwt>
<pdfrwt beam="1">  1       21 0.75620418E-02 0.69061688E+01</pdfrwt>
<pdfrwt beam="2">  1       21 0.59857469E-03 0.69061688E+01</pdfrwt>
<totfact> 0.37801166E+08</totfact>
</mgrwt>
</event>
<event>
 4    1  0.4144004E+006  0.4961039E+01  0.7546771E-02  0.2574112E+00
         21   -1    0    0  501  502  0.00000000000E+00  0.00000000000E+00  0.29958019869E+00  0.29958019869E+00  0.00000000000E+00 0.  1.
         21   -1    0    0  502  503 -0.00000000000E+00 -0.00000000000E+00 -0.17945407243E+03  0.17945407243E+03  0.00000000000E+00 0.  1.
          5    1    1    2  501    0  0.30740793409E+00 -0.15580126432E+01 -0.23397328038E+02  0.23917501173E+02  0.47000000000E+01 0.  1.
         -5    1    1    2    0  503 -0.30740793409E+00  0.15580126432E+01 -0.15575716419E+03  0.15583615145E+03  0.47000000000E+01 0.  1.
<mgrwt>
<rscale>  2 0.49610385E+01</rscale>
<asrwt>0</asrwt>
<pdfrwt beam="1">  1       21 0.46089293E-04 0.49610385E+01</pdfrwt>
<pdfrwt beam="2">  1       21 0.27608300E-01 0.49610385E+01</pdfrwt>
<totfact> 0.12334673E+09</totfact>
</mgrwt>
</event>
<event>
 4    1  0.4144004E+006  0.8275230E+01  0.7546771E-02  0.2188880E+00
         21   -1    0    0  503  502  0.00000000000E+00  0.00000000000E+00  0.90972033663E+00  0.90972033663E+00  0.00000000000E+00 0.  1.
         21   -1    0    0  501  503 -0.00000000000E+00 -0.00000000000E+00 -0.18597126339E+03  0.18597126339E+03  0.00000000000E+00 0. -1.
          5    1    1    2  501    0 -0.57515411423E+01  0.36481784802E+01 -0.16462129391E+03  0.16482915349E+03  0.47000000000E+01 0. -1.
         -5    1    1    2    0  502  0.57515411423E+01 -0.36481784802E+01 -0.20440249146E+02  0.22051830239E+02  0.47000000000E+01 0.  1.
<mgrwt>
<rscale>  2 0.82752300E+01</rscale>
<asrwt>0</asrwt>
<pdfrwt beam="1">  1       21 0.13995677E-03 0.82752300E+01</pdfrwt>
<pdfrwt beam="2">  1       21 0.28611006E-01 0.82752300E+01</pdfrwt>
<totfact> 0.37526950E+08</totfact>
</mgrwt>
</event>
<event>
 4    1  0.4144004E+006  0.9292881E+01  0.7546771E-02  0.2117615E+00
         21   -1    0    0  503  502  0.00000000000E+00  0.00000000000E+00  0.43135134760E+02  0.43135134760E+02  0.00000000000E+00 0. -1.
         21   -1    0    0  501  503 -0.00000000000E+00 -0.00000000000E+00 -0.63674892653E+01  0.63674892653E+01  0.00000000000E+00 0. -1.
          5    1    1    2  501    0 -0.22321102687E+01  0.76996966658E+01 -0.21102985337E+01  0.95294808305E+01  0.47000000000E+01 0. -1.
         -5    1    1    2    0  502  0.22321102687E+01 -0.76996966658E+01  0.38877944028E+02  0.39973143194E+02  0.47000000000E+01 0. -1.
<mgrwt>
<rscale>  2 0.92928814E+01</rscale>
<asrwt>0</asrwt>
<pdfrwt beam="1">  1       21 0.66361744E-02 0.92928814E+01</pdfrwt>
<pdfrwt beam="2">  1       21 0.97961376E-03 0.92928814E+01</pdfrwt>
<totfact> 0.27374442E+08</totfact>
</mgrwt>
</event>
<event>
 4    1  0.4144004E+006  0.8493490E+01  0.7546771E-02  0.2172453E+00
         21   -1    0    0  503  502  0.00000000000E+00  0.00000000000E+00  0.14530992905E+02  0.14530992905E+02  0.00000000000E+00 0. -1.
         21   -1    0    0  501  503 -0.00000000000E+00 -0.00000000000E+00 -0.63461753801E+01  0.63461753801E+01  0.00000000000E+00 0. -1.
          5    1    1    2  501    0  0.53433029422E+01 -0.46366457039E+01 -0.77822873680E+00  0.85290685120E+01  0.47000000000E+01 0. -1.
         -5    1    1    2    0  502 -0.53433029422E+01  0.46366457039E+01  0.89630462619E+01  0.12348099773E+02  0.47000000000E+01 0. -1.
<mgrwt>
<rscale>  2 0.84934898E+01</rscale>
<asrwt>0</asrwt>
<pdfrwt beam="1">  1       21 0.22355374E-02 0.84934898E+01</pdfrwt>
<pdfrwt beam="2">  1       21 0.97633468E-03 0.84934898E+01</pdfrwt>
<totfact> 0.13404282E+09</totfact>
</mgrwt>
</event>
<event>
 4    1  0.4144004E+006  0.6080913E+01  0.7546771E-02  0.2405010E+00
         21   -1    0    0  501  502  0.00000000000E+00  0.00000000000E+00  0.31521387723E+03  0.31521387723E+03  0.00000000000E+00 0.  1.
         21   -1    0    0  502  503 -0.00000000000E+00 -0.00000000000E+00 -0.14329294214E+00  0.14329294214E+00  0.00000000000E+00 0.  1.
          5    1    1    2  501    0  0.18559472175E+01 -0.33827448945E+01  0.22467984047E+03  0.22476211473E+03  0.47000000000E+01 0.  1.
         -5    1    1    2    0  503 -0.18559472175E+01  0.33827448945E+01  0.90390743818E+02  0.90595055445E+02  0.47000000000E+01 0.  1.
<mgrwt>
<rscale>  2 0.60809130E+01</rscale>
<asrwt>0</asrwt>
<pdfrwt beam="1">  1       21 0.48493888E-01 0.60809130E+01</pdfrwt>
<pdfrwt beam="2">  1       21 0.22045320E-04 0.60809130E+01</pdfrwt>
<totfact> 0.14787528E+09</totfact>
</mgrwt>
</event>
<event>
 4    1  0.4144004E+006  0.1019730E+02  0.7546771E-02  0.2063930E+00
         21   -1    0    0  503  502  0.00000000000E+00  0.00000000000E+00  0.17976740042E+02  0.17976740042E+02  0.00000000000E+00 0. -1.
         21   -1    0    0  501  503 -0.00000000000E+00 -0.00000000000E+00 -0.10339241277E+02  0.10339241277E+02  0.00000000000E+00 0. -1.
          5    1    1    2  501    0  0.58663564464E+01 -0.68906287889E+01 -0.55783377250E+01  0.11623371062E+02  0.47000000000E+01 0. -1.
         -5    1    1    2    0  502 -0.58663564464E+01  0.68906287889E+01  0.13215836490E+02  0.16692610257E+02  0.47000000000E+01 0. -1.
<mgrwt>
<rscale>  2 0.10197299E+02</rscale>
<asrwt>0</asrwt>
<pdfrwt beam="1">  1       21 0.27656523E-02 0.10197299E+02</pdfrwt>
<pdfrwt beam="2">  1       21 0.15906525E-02 0.10197299E+02</pdfrwt>
<totfact> 0.53677844E+08</totfact>
</mgrwt>
</event>
<event>
 4    1  0.4144004E+006  0.8926110E+01  0.7546771E-02  0.2141805E+00
         21   -1    0    0  501  502  0.00000000000E+00  0.00000000000E+00  0.60896992967E+01  0.60896992967E+01  0.00000000000E+00 0.  1.
         21   -1    0    0  502  503 -0.00000000000E+00 -0.00000000000E+00 -0.13277644105E+02  0.13277644105E+02  0.00000000000E+00 0. -1.
          5    1    1    2  501    0  0.72032431494E+01  0.23872010816E+01 -0.47645052774E+01  0.10118100188E+02  0.47000000000E+01 0. -1.
         -5    1    1    2    0  503 -0.72032431494E+01 -0.23872010816E+01 -0.24234395312E+01  0.92492432142E+01  0.47000000000E+01 0. -1.
<mgrwt>
<rscale>  2 0.89261101E+01</rscale>
<asrwt>0</asrwt>
<pdfrwt beam="1">  1       21 0.93687681E-03 0.89261101E+01</pdfrwt>
<pdfrwt beam="2">  1       21 0.20427145E-02 0.89261101E+01</pdfrwt>
<totfact> 0.16785415E+09</totfact>
</mgrwt>
</event>
<event>
 4    1  0.4144004E+006  0.6399721E+01  0.7546771E-02  0.2366132E+00
         21   -1    0    0  503  502  0.00000000000E+00  0.00000000000E+00  0.18583602068E+00  0.18583602068E+00  0.00000000000E+00 0.  1.
         21   -1    0    0  501  503 -0.00000000000E+00 -0.00000000000E+00 -0.41104794616E+03  0.41104794616E+03  0.00000000000E+00 0.  1.
          5    1    1    2  501    0 -0.19149467628E+01 -0.38986421472E+01 -0.34546709203E+03  0.34552636384E+03  0.47000000000E+01 0.  1.
         -5    1    1    2    0  502  0.19149467628E+01  0.38986421472E+01 -0.65395018113E+02  0.65707418346E+02  0.47000000000E+01 0.  1.
<mgrwt>
<rscale>  2 0.63997212E+01</rscale>
<asrwt>0</asrwt>
<pdfrwt beam="1">  1       21 0.28589976E-04 0.63997212E+01</pdfrwt>
<pdfrwt beam="2">  1       21 0.63238547E-01 0.63997212E+01</pdfrwt>
<totfact> 0.66529556E+08</totfact>
</mgrwt>
</event>
<event>
 4    1  0.4144004E+006  0.6036655E+01  0.7546771E-02  0.2410677E+00
         21   -1    0    0  501  502  0.00000000000E+00  0.00000000000E+00  0.36182699605E+03  0.36182699605E+03  0.00000000000E+00 0.  1.
         21   -1    0    0  502  503 -0.00000000000E+00 -0.00000000000E+00 -0.10821441480E+00  0.10821441480E+00  0.00000000000E+00 0.  1.
          5    1    1    2  501    0 -0.35898581836E+01  0.12100114786E+01  0.22850113821E+03  0.22858086397E+03  0.47000000000E+01 0.  1.
         -5    1    1    2    0  503  0.35898581836E+01 -0.12100114786E+01  0.13321764343E+03  0.13335434650E+03  0.47000000000E+01 0.  1.
<mgrwt>
<rscale>  2 0.60366555E+01</rscale>
<asrwt>0</asrwt>
<pdfrwt beam="1">  1       21 0.55664723E-01 0.60366555E+01</pdfrwt>
<pdfrwt beam="2">  1       21 0.16648661E-04 0.60366555E+01</pdfrwt>
<totfact> 0.16656271E+09</totfact>
</mgrwt>
</event>
<event>
 4    1  0.4144004E+006  0.4715230E+01  0.7546771E-02  0.2620295E+00
         21   -1    0    0  503  502  0.00000000000E+00  0.00000000000E+00  0.63039785028E+00  0.63039785028E+00  0.00000000000E+00 0. -1.
         21   -1    0    0  501  503 -0.00000000000E+00 -0.00000000000E+00 -0.54600148398E+02  0.54600148398E+02  0.00000000000E+00 0. -1.
          5    1    1    2  501    0 -0.33847324251E+00  0.16978893093E+00 -0.43416602147E+02  0.43671898681E+02  0.47000000000E+01 0. -1.
         -5    1    1    2    0  502  0.33847324251E+00 -0.16978893093E+00 -0.10553148401E+02  0.11558647568E+02  0.47000000000E+01 0. -1.
<mgrwt>
<rscale>  2 0.47152298E+01</rscale>
<asrwt>0</asrwt>
<pdfrwt beam="1">  1       21 0.96984282E-04 0.47152298E+01</pdfrwt>
<pdfrwt beam="2">  1       21 0.84000231E-02 0.47152298E+01</pdfrwt>
<totfact> 0.27956174E+09</totfact>
</mgrwt>
</event>
<event>
 4    1  0.4144004E+006  0.5566672E+01  0.7546771E-02  0.2475483E+00
         21   -1    0    0  501  502  0.00000000000E+00  0.00000000000E+00  0.16066975892E+01  0.16066975892E+01  0.00000000000E+00 0.  1.
         21   -1    0    0  502  503 -0.00000000000E+00 -0.00000000000E+00 -0.27990917424E+02  0.27990917424E+02  0.00000000000E+00 0. -1.
          5    1    1    2  501    0  0.29799562724E+01 -0.13302374507E+00 -0.49396400565E+01  0.74423033122E+01  0.47000000000E+01 0.  1.
         -5    1    1    2    0  503 -0.29799562724E+01  0.13302374507E+00 -0.21444579778E+02  0.22155311701E+02  0.47000000000E+01 0. -1.
<mgrwt>
<rscale>  2 0.55666718E+01</rscale>
<asrwt>0</asrwt>
<pdfrwt beam="1">  1       21 0.24718427E-03 0.55666718E+01</pdfrwt>
<pdfrwt beam="2">  1       21 0.43062946E-02 0.55666718E+01</pdfrwt>
<totfact> 0.25169820E+09</totfact>
</mgrwt>
</event>
<event>
 4    1  0.4144004E+006  0.5864540E+01  0.7546771E-02  0.2433394E+00
         21   -1    0    0  501  502  0.00000000000E+00  0.00000000000E+00  0.87755286693E-01  0.87755286693E-01  0.00000000000E+00 0.  1.
         21   -1    0    0  502  503 -0.00000000000E+00 -0.00000000000E+00 -0.41856822409E+03  0.41856822409E+03  0.00000000000E+00 0. -1.
          5    1    1    2  501    0 -0.51553374162E+00  0.34694466565E+01 -0.15642022879E+03  0.15653012749E+03  0.47000000000E+01 0.  1.
         -5    1    1    2    0  503  0.51553374162E+00 -0.34694466565E+01 -0.26206024001E+03  0.26212585189E+03  0.47000000000E+01 0. -1.
<mgrwt>
<rscale>  2 0.58645405E+01</rscale>
<asrwt>0</asrwt>
<pdfrwt beam="1">  1       21 0.13500857E-04 0.58645405E+01</pdfrwt>
<pdfrwt beam="2">  1       21 0.64394901E-01 0.58645405E+01</pdfrwt>
<totfact> 0.16454082E+09</totfact>
</mgrwt>
</event>
<event>
 4    1  0.4144004E+006  0.9396173E+01  0.7546771E-02  0.2111074E+00
         21   -1    0    0  503  502  0.00000000000E+00  0.00000000000E+00  0.13660968059E+02  0.13660968059E+02  0.00000000000E+00 0.  1.
         21   -1    0    0  501  503 -0.00000000000E+00 -0.00000000000E+00 -0.16570054767E+02  0.16570054767E+02  0.00000000000E+00 0.  1.
          5    1    1    2  501    0  0.39801947503E+01  0.70962038894E+01 -0.13259857543E+02  0.16251519374E+02  0.47000000000E+01 0.  1.
         -5    1    1    2    0  502 -0.39801947503E+01 -0.70962038894E+01  0.10350770835E+02  0.13979503452E+02  0.47000000000E+01 0.  1.
<mgrwt>
<rscale>  2 0.93961726E+01</rscale>
<asrwt>0</asrwt>
<pdfrwt beam="1">  1       21 0.21016874E-02 0.93961726E+01</pdfrwt>
<pdfrwt beam="2">  1       21 0.25492392E-02 0.93961726E+01</pdfrwt>
<totfact> 0.38438619E+08</totfact>
</mgrwt>
</event>
<event>
 4    1  0.4144004E+006  0.6978244E+01  0.7546771E-02  0.2303193E+00
         21   -1    0    0  501  502  0.00000000000E+00  0.00000000000E+00  0.81015602126E+01  0.81015602126E+01  0.00000000000E+00 0.  1.
         21   -1    0    0  502  503 -0.00000000000E+00 -0.00000000000E+00 -0.11401516272E+02  0.11401516272E+02  0.00000000000E+00 0. -1.
          5    1    1    2  501    0 -0.40521444989E+01  0.31915526619E+01  0.50553481041E+01  0.86169848490E+01  0.47000000000E+01 0.  1.
         -5    1    1    2    0  503  0.40521444989E+01 -0.31915526619E+01 -0.83553041635E+01  0.10886091636E+02  0.47000000000E+01 0. -1.
<mgrwt>
<rscale>  2 0.69782436E+01</rscale>
<asrwt>0</asrwt>
<pdfrwt beam="1">  1       21 0.12463939E-02 0.69782436E+01</pdfrwt>
<pdfrwt beam="2">  1       21 0.17540794E-02 0.69782436E+01</pdfrwt>
<totfact> 0.11709012E+09</totfact>
</mgrwt>
</event>
<event>
 4    1  0.4144004E+006  0.6635523E+01  0.7546771E-02  0.2339386E+00
         21   -1    0    0  503  502  0.00000000000E+00  0.00000000000E+00  0.61227503824E+02  0.61227503824E+02  0.00000000000E+00 0.  1.
         21   -1    0    0  501  503 -0.00000000000E+00 -0.00000000000E+00 -0.86524275576E+00  0.86524275576E+00  0.00000000000E+00 0. -1.
          5    1    1    2  501    0  0.46839790026E+01  0.22390893888E-01  0.17422765109E+02  0.18643575426E+02  0.47000000000E+01 0. -1.
         -5    1    1    2    0  502 -0.46839790026E+01 -0.22390893888E-01  0.42939495959E+02  0.43449171153E+02  0.47000000000E+01 0.  1.
<mgrwt>
<rscale>  2 0.66355226E+01</rscale>
<asrwt>0</asrwt>
<pdfrwt beam="1">  1       21 0.94196125E-02 0.66355226E+01</pdfrwt>
<pdfrwt beam="2">  1       21 0.13311432E-03 0.66355226E+01</pdfrwt>
<totfact> 0.20918973E+09</totfact>
</mgrwt>
</event>
<event>
 4    1  0.4144004E+006  0.5640902E+01  0.7546771E-02  0.2464643E+00
         21   -1    0    0  501  502  0.00000000000E+00  0.00000000000E+00  0.53617602870E+00  0.53617602870E+00  0.00000000000E+00 0. -1.
         21   -1    0    0  502  503 -0.00000000000E+00 -0.00000000000E+00 -0.96634762264E+02  0.96634762264E+02  0.00000000000E+00 0. -1.
          5    1    1    2  501    0 -0.70285430135E+00 -0.30390407623E+01 -0.17868537985E+02  0.18737780622E+02  0.47000000000E+01 0. -1.
         -5    1    1    2    0  503  0.70285430135E+00  0.30390407623E+01 -0.78230048251E+02  0.78433157671E+02  0.47000000000E+01 0. -1.
<mgrwt>
<rscale>  2 0.56409018E+01</rscale>
<asrwt>0</asrwt>
<pdfrwt beam="1">  1       21 0.82488615E-04 0.56409018E+01</pdfrwt>
<pdfrwt beam="2">  1       21 0.14866887E-01 0.56409018E+01</pdfrwt>
<totfact> 0.17172675E+09</totfact>
</mgrwt>
</event>
<event>
 4    1  0.4144004E+006  0.7159768E+01  0.7546771E-02  0.2285182E+00
         21   -1    0    0  503  502  0.00000000000E+00  0.00000000000E+00  0.72079940222E+00  0.72079940222E+00  0.00000000000E+00 0.  1.
         21   -1    0    0  501  503 -0.00000000000E+00 -0.00000000000E+00 -0.10443153851E+03  0.10443153851E+03  0.00000000000E+00 0. -1.
          5    1    1    2  501    0 -0.38356579782E+01  0.38026312340E+01 -0.81550092730E+02  0.81863788702E+02  0.47000000000E+01 0. -1.
         -5    1    1    2    0  502  0.38356579782E+01 -0.38026312340E+01 -0.22160646381E+02  0.23288549213E+02  0.47000000000E+01 0.  1.
<mgrwt>
<rscale>  2 0.71597679E+01</rscale>
<asrwt>0</asrwt>
<pdfrwt beam="1">  1       21 0.11089222E-03 0.71597679E+01</pdfrwt>
<pdfrwt beam="2">  1       21 0.16066389E-01 0.71597679E+01</pdfrwt>
<totfact> 0.12248332E+09</totfact>
</mgrwt>
</event>
<event>
 4    1  0.4144004E+006  0.5298918E+01  0.7546771E-02  0.2516710E+00
         21   -1    0    0  503  502  0.00000000000E+00  0.00000000000E+00  0.98326797388E+03  0.98326797388E+03  0.00000000000E+00 0.  1.
         21   -1    0    0  501  503 -0.00000000000E+00 -0.00000000000E+00 -0.22385792607E+00  0.22385792607E+00  0.00000000000E+00 0.  1.
          5    1    1    2  501    0 -0.28134426074E+00 -0.24309205219E+01  0.32210456720E+02  0.32643407471E+02  0.47000000000E+01 0.  1.
         -5    1    1    2    0  502  0.28134426074E+00  0.24309205219E+01  0.95083365923E+03  0.95084842433E+03  0.47000000000E+01 0.  1.
<mgrwt>
<rscale>  2 0.52989177E+01</rscale>
<asrwt>0</asrwt>
<pdfrwt beam="1">  1       21 0.15126854E+00 0.52989177E+01</pdfrwt>
<pdfrwt beam="2">  1       21 0.34440468E-04 0.52989177E+01</pdfrwt>
<totfact> 0.79699797E+07</totfact>
</mgrwt>
</event>
<event>
 4    1  0.4144004E+006  0.1392769E+02  0.7546771E-02  0.1902670E+00
         21   -1    0    0  503  502  0.00000000000E+00  0.00000000000E+00  0.42172394311E+03  0.42172394311E+03  0.00000000000E+00 0. -1.
         21   -1    0    0  501  503 -0.00000000000E+00 -0.00000000000E+00 -0.49851661291E+00  0.49851661291E+00  0.00000000000E+00 0.  1.
          5    1    1    2  501    0  0.93614937632E+00 -0.13077236630E+02  0.15190936485E+03  0.15254650314E+03  0.47000000000E+01 0.  1.
         -5    1    1    2    0  502 -0.93614937632E+00  0.13077236630E+02  0.26931606165E+03  0.26967595658E+03  0.47000000000E+01 0. -1.
<mgrwt>
<rscale>  2 0.13927688E+02</rscale>
<asrwt>0</asrwt>
<pdfrwt beam="1">  1       21 0.64880321E-01 0.13927688E+02</pdfrwt>
<pdfrwt beam="2">  1       21 0.76695201E-04 0.13927688E+02</pdfrwt>
<totfact> 0.24413537E+08</totfact>
</mgrwt>
</event>
<event>
 4    1  0.4144004E+006  0.5629871E+01  0.7546771E-02  0.2466239E+00
         21   -1    0    0  503  502  0.00000000000E+00  0.00000000000E+00  0.70554323802E+00  0.70554323802E+00  0.00000000000E+00 0.  1.
         21   -1    0    0  501  503 -0.00000000000E+00 -0.00000000000E+00 -0.73523669485E+02  0.73523669485E+02  0.00000000000E+00 0.  1.
          5    1    1    2  501    0  0.10434066600E+01 -0.29183475981E+01 -0.59557187457E+02  0.59822688237E+02  0.47000000000E+01 0.  1.
         -5    1    1    2    0  502 -0.10434066600E+01  0.29183475981E+01 -0.13260938789E+02  0.14406524485E+02  0.47000000000E+01 0.  1.
<mgrwt>
<rscale>  2 0.56298712E+01</rscale>
<asrwt>0</asrwt>
<pdfrwt beam="1">  1       21 0.10854514E-03 0.56298712E+01</pdfrwt>
<pdfrwt beam="2">  1       21 0.11311331E-01 0.56298712E+01</pdfrwt>
<totfact> 0.18155257E+09</totfact>
</mgrwt>
</event>
<event>
 4    1  0.4144004E+006  0.5784802E+01  0.7546771E-02  0.2444303E+00
         21   -1    0    0  501  502  0.00000000000E+00  0.00000000000E+00  0.48364552531E+01  0.48364552531E+01  0.00000000000E+00 0.  1.
         21   -1    0    0  502  503 -0.00000000000E+00 -0.00000000000E+00 -0.29907242133E+03  0.29907242133E+03  0.00000000000E+00 0.  1.
          5    1    1    2  501    0  0.28339496100E+01  0.18282950396E+01  0.30684205421E+01  0.65482163806E+01  0.47000000000E+01 0.  1.
         -5    1    1    2    0  503 -0.28339496100E+01 -0.18282950396E+01 -0.29730438662E+03  0.29736066021E+03  0.47000000000E+01 0.  1.
<mgrwt>
<rscale>  2 0.57848019E+01</rscale>
<asrwt>0</asrwt>
<pdfrwt beam="1">  1       21 0.74407029E-03 0.57848019E+01</pdfrwt>
<pdfrwt beam="2">  1       21 0.46011126E-01 0.57848019E+01</pdfrwt>
<totfact> 0.13340332E+07</totfact>
</mgrwt>
</event>
<event>
 4    1  0.4144004E+006  0.6502851E+01  0.7546771E-02  0.2354237E+00
         21   -1    0    0  501  502  0.00000000000E+00  0.00000000000E+00  0.22227362583E+03  0.22227362583E+03  0.00000000000E+00 0.  1.
         21   -1    0    0  502  503 -0.00000000000E+00 -0.00000000000E+00 -0.21357917610E+00  0.21357917610E+00  0.00000000000E+00 0.  1.
          5    1    1    2  501    0 -0.12477898132E+01  0.43174166714E+01  0.14779767221E+03  0.14794066033E+03  0.47000000000E+01 0.  1.
         -5    1    1    2    0  503  0.12477898132E+01 -0.43174166714E+01  0.74262374442E+02  0.74546544681E+02  0.47000000000E+01 0.  1.
<mgrwt>
<rscale>  2 0.65028506E+01</rscale>
<asrwt>0</asrwt>
<pdfrwt beam="1">  1       21 0.34195757E-01 0.65028506E+01</pdfrwt>
<pdfrwt beam="2">  1       21 0.32858512E-04 0.65028506E+01</pdfrwt>
<totfact> 0.16827325E+09</totfact>
</mgrwt>
</event>
<event>
 4    1  0.4144004E+006  0.4794279E+01  0.7546771E-02  0.2604996E+00
         21   -1    0    0  501  502  0.00000000000E+00  0.00000000000E+00  0.55831194071E+01  0.55831194071E+01  0.00000000000E+00 0.  1.
         21   -1    0    0  502  503 -0.00000000000E+00 -0.00000000000E+00 -0.48568317907E+01  0.48568317907E+01  0.00000000000E+00 0.  1.
          5    1    1    2  501    0 -0.40895816766E+00 -0.85314766634E+00  0.24006066965E+01  0.53617180302E+01  0.47000000000E+01 0.  1.
         -5    1    1    2    0  503  0.40895816766E+00  0.85314766634E+00 -0.16743190802E+01  0.50782331677E+01  0.47000000000E+01 0.  1.
<mgrwt>
<rscale>  2 0.47942786E+01</rscale>
<asrwt>0</asrwt>
<pdfrwt beam="1">  1       21 0.85894144E-03 0.47942786E+01</pdfrwt>
<pdfrwt beam="2">  1       21 0.74720490E-03 0.47942786E+01</pdfrwt>
<totfact> 0.46973465E+09</totfact>
</mgrwt>
</event>
<event>
 4    1  0.4144004E+006  0.1332243E+02  0.7546771E-02  0.1924040E+00
         21   -1    0    0  503  502  0.00000000000E+00  0.00000000000E+00  0.78782192984E+02  0.78782192984E+02  0.00000000000E+00 0.  1.
         21   -1    0    0  501  503 -0.00000000000E+00 -0.00000000000E+00 -0.45392960533E+01  0.45392960533E+01  0.00000000000E+00 0.  1.
          5    1    1    2  501    0 -0.37314605457E+01  0.11894253832E+02  0.75542546846E+01  0.15315150534E+02  0.47000000000E+01 0.  1.
         -5    1    1    2    0  502  0.37314605457E+01 -0.11894253832E+02  0.66688642247E+02  0.68006338504E+02  0.47000000000E+01 0.  1.
<mgrwt>
<rscale>  2 0.13322427E+02</rscale>
<asrwt>0</asrwt>
<pdfrwt beam="1">  1       21 0.12120336E-01 0.13322427E+02</pdfrwt>
<pdfrwt beam="2">  1       21 0.69835330E-03 0.13322427E+02</pdfrwt>
<totfact> 0.20377265E+08</totfact>
</mgrwt>
</event>
<event>
 4    1  0.4144004E+006  0.7961527E+01  0.7546771E-02  0.2213749E+00
         21   -1    0    0  501  502  0.00000000000E+00  0.00000000000E+00  0.16336119610E+02  0.16336119610E+02  0.00000000000E+00 0.  1.
         21   -1    0    0  502  503 -0.00000000000E+00 -0.00000000000E+00 -0.29002018651E+02  0.29002018651E+02  0.00000000000E+00 0. -1.
          5    1    1    2  501    0 -0.62992256749E+01 -0.12710903460E+01  0.14765274682E+02  0.16774959052E+02  0.47000000000E+01 0.  1.
         -5    1    1    2    0  503  0.62992256749E+01  0.12710903460E+01 -0.27431173722E+02  0.28563179210E+02  0.47000000000E+01 0. -1.
<mgrwt>
<rscale>  2 0.79615272E+01</rscale>
<asrwt>0</asrwt>
<pdfrwt beam="1">  1       21 0.25132492E-02 0.79615272E+01</pdfrwt>
<pdfrwt beam="2">  1       21 0.44618490E-02 0.79615272E+01</pdfrwt>
<totfact> 0.11669945E+08</totfact>
</mgrwt>
</event>
<event>
 4    1  0.4144004E+006  0.8676732E+01  0.7546771E-02  0.2159174E+00
         21   -1    0    0  503  502  0.00000000000E+00  0.00000000000E+00  0.29784152619E+02  0.29784152619E+02  0.00000000000E+00 0.  1.
         21   -1    0    0  501  503 -0.00000000000E+00 -0.00000000000E+00 -0.27189690459E+01  0.27189690459E+01  0.00000000000E+00 0. -1.
          5    1    1    2  501    0 -0.37920288784E+00 -0.72836719396E+01  0.92223162723E+01  0.12662416404E+02  0.47000000000E+01 0. -1.
         -5    1    1    2    0  502  0.37920288784E+00  0.72836719396E+01  0.17842867301E+02  0.19840705262E+02  0.47000000000E+01 0. -1.
<mgrwt>
<rscale>  2 0.86767316E+01</rscale>
<asrwt>0</asrwt>
<pdfrwt beam="1">  1       21 0.45821771E-02 0.86767316E+01</pdfrwt>
<pdfrwt beam="2">  1       21 0.41830295E-03 0.86767316E+01</pdfrwt>
<totfact> 0.15595497E+09</totfact>
</mgrwt>
</event>
<event>
 4    1  0.4144004E+006  0.4754235E+01  0.7546771E-02  0.2612690E+00
         21   -1    0    0  501  502  0.00000000000E+00  0.00000000000E+00  0.32442999503E+01  0.32442999503E+01  0.00000000000E+00 0.  1.
         21   -1    0    0  502  503 -0.00000000000E+00 -0.00000000000E+00 -0.70481794827E+01  0.70481794827E+01  0.00000000000E+00 0.  1.
          5    1    1    2  501    0  0.65294003667E+00 -0.29397752307E+00 -0.13493422438E+01  0.49420115304E+01  0.47000000000E+01 0.  1.
         -5    1    1    2    0  503 -0.65294003667E+00  0.29397752307E+00 -0.24545372886E+01  0.53504679026E+01  0.47000000000E+01 0.  1.
<mgrwt>
<rscale>  2 0.47542353E+01</rscale>
<asrwt>0</asrwt>
<pdfrwt beam="1">  1       21 0.49912307E-03 0.47542353E+01</pdfrwt>
<pdfrwt beam="2">  1       21 0.10843353E-02 0.47542353E+01</pdfrwt>
<totfact> 0.58647724E+09</totfact>
</mgrwt>
</event>
<event>
 4    1  0.4144004E+006  0.5119324E+01  0.7546771E-02  0.2546411E+00
         21   -1    0    0  501  502  0.00000000000E+00  0.00000000000E+00  0.69425382476E+02  0.69425382476E+02  0.00000000000E+00 0.  1.
         21   -1    0    0  502  503 -0.00000000000E+00 -0.00000000000E+00 -0.62929268464E+00  0.62929268464E+00  0.00000000000E+00 0.  1.
          5    1    1    2  501    0 -0.22043790928E+00 -0.20171488682E+01  0.56554985161E+02  0.56786211610E+02  0.47000000000E+01 0.  1.
         -5    1    1    2    0  503  0.22043790928E+00  0.20171488682E+01  0.12241104630E+02  0.13268463550E+02  0.47000000000E+01 0.  1.
<mgrwt>
<rscale>  2 0.51193244E+01</rscale>
<asrwt>0</asrwt>
<pdfrwt beam="1">  1       21 0.10680822E-01 0.51193244E+01</pdfrwt>
<pdfrwt beam="2">  1       21 0.96814314E-04 0.51193244E+01</pdfrwt>
<totfact> 0.21179434E+09</totfact>
</mgrwt>
</event>
<event>
 4    1  0.4144004E+006  0.6923653E+01  0.7546771E-02  0.2308760E+00
         21   -1    0    0  503  502  0.00000000000E+00  0.00000000000E+00  0.24198966633E+00  0.24198966633E+00  0.00000000000E+00 0.  1.
         21   -1    0    0  501  503 -0.00000000000E+00 -0.00000000000E+00 -0.38289913029E+03  0.38289913029E+03  0.00000000000E+00 0.  1.
          5    1    1    2  501    0  0.32205973965E+01  0.39337930442E+01 -0.32441759986E+03  0.32449147304E+03  0.47000000000E+01 0.  1.
         -5    1    1    2    0  502 -0.32205973965E+01 -0.39337930442E+01 -0.58239540760E+02  0.58649646915E+02  0.47000000000E+01 0.  1.
<mgrwt>
<rscale>  2 0.69236533E+01</rscale>
<asrwt>0</asrwt>
<pdfrwt beam="1">  1       21 0.37229197E-04 0.69236533E+01</pdfrwt>
<pdfrwt beam="2">  1       21 0.58907531E-01 0.69236533E+01</pdfrwt>
<totfact> 0.56115637E+08</totfact>
</mgrwt>
</event>
<event>
 4    1  0.4144004E+006  0.6861378E+01  0.7546771E-02  0.2315200E+00
         21   -1    0    0  501  502  0.00000000000E+00  0.00000000000E+00  0.11342955610E+04  0.11342955610E+04  0.00000000000E+00 0.  1.
         21   -1    0    0  502  503 -0.00000000000E+00 -0.00000000000E+00 -0.82162065258E-01  0.82162065258E-01  0.00000000000E+00 0.  1.
          5    1    1    2  501    0  0.17943036043E+01  0.46657235615E+01  0.96609676640E+03  0.96612113141E+03  0.47000000000E+01 0.  1.
         -5    1    1    2    0  503 -0.17943036043E+01 -0.46657235615E+01  0.16811663254E+03  0.16825659166E+03  0.47000000000E+01 0.  1.
<mgrwt>
<rscale>  2 0.68613775E+01</rscale>
<asrwt>0</asrwt>
<pdfrwt beam="1">  1       21 0.17449447E+00 0.68613775E+01</pdfrwt>
<pdfrwt beam="2">  1       21 0.12641226E-04 0.68613775E+01</pdfrwt>
<totfact> 0.25783016E+08</totfact>
</mgrwt>
</event>
<event>
 4    1  0.4144004E+006  0.4924934E+01  0.7546771E-02  0.2580645E+00
         21   -1    0    0  503  502  0.00000000000E+00  0.00000000000E+00  0.10598408437E+01  0.10598408437E+01  0.00000000000E+00 0.  1.
         21   -1    0    0  501  503 -0.00000000000E+00 -0.00000000000E+00 -0.68587554920E+02  0.68587554920E+02  0.00000000000E+00 0.  1.
          5    1    1    2  501    0  0.33217828011E+00  0.14333976375E+01 -0.62190145806E+02  0.62384847572E+02  0.47000000000E+01 0.  1.
         -5    1    1    2    0  502 -0.33217828011E+00 -0.14333976375E+01 -0.53375682703E+01  0.72625481917E+01  0.47000000000E+01 0.  1.
<mgrwt>
<rscale>  2 0.49249336E+01</rscale>
<asrwt>0</asrwt>
<pdfrwt beam="1">  1       21 0.16305242E-03 0.49249336E+01</pdfrwt>
<pdfrwt beam="2">  1       21 0.10551933E-01 0.49249336E+01</pdfrwt>
<totfact> 0.10376253E+09</totfact>
</mgrwt>
</event>
<event>
 4    1  0.4144004E+006  0.7342441E+01  0.7546771E-02  0.2267795E+00
         21   -1    0    0  501  502  0.00000000000E+00  0.00000000000E+00  0.64101989047E+01  0.64101989047E+01  0.00000000000E+00 0. -1.
         21   -1    0    0  502  503 -0.00000000000E+00 -0.00000000000E+00 -0.85080316052E+01  0.85080316052E+01  0.00000000000E+00 0. -1.
          5    1    1    2  501    0 -0.53819112547E+01  0.16901091448E+01 -0.24930351864E+00  0.73466720302E+01  0.47000000000E+01 0. -1.
         -5    1    1    2    0  503  0.53819112547E+01 -0.16901091448E+01 -0.18485291819E+01  0.75715584797E+01  0.47000000000E+01 0. -1.
<mgrwt>
<rscale>  2 0.73424409E+01</rscale>
<asrwt>0</asrwt>
<pdfrwt beam="1">  1       21 0.98618445E-03 0.73424409E+01</pdfrwt>
<pdfrwt beam="2">  1       21 0.13089279E-02 0.73424409E+01</pdfrwt>
<totfact> 0.25932312E+09</totfact>
</mgrwt>
</event>
<event>
 4    1  0.4144004E+006  0.6365422E+01  0.7546771E-02  0.2370159E+00
         21   -1    0    0  503  502  0.00000000000E+00  0.00000000000E+00  0.19921904781E+02  0.19921904781E+02  0.00000000000E+00 0.  1.
         21   -1    0    0  501  503 -0.00000000000E+00 -0.00000000000E+00 -0.25102732673E+01  0.25102732673E+01  0.00000000000E+00 0. -1.
          5    1    1    2  501    0  0.37538387634E+01  0.20826173918E+01  0.13591973515E+02  0.15008675648E+02  0.47000000000E+01 0.  1.
         -5    1    1    2    0  502 -0.37538387634E+01 -0.20826173918E+01  0.38196579981E+01  0.74235024001E+01  0.47000000000E+01 0. -1.
<mgrwt>
<rscale>  2 0.63654223E+01</rscale>
<asrwt>0</asrwt>
<pdfrwt beam="1">  1       21 0.30649083E-02 0.63654223E+01</pdfrwt>
<pdfrwt beam="2">  1       21 0.38619590E-03 0.63654223E+01</pdfrwt>
<totfact> 0.25210322E+09</totfact>
</mgrwt>
</event>
<event>
 4    1  0.4144004E+006  0.4961703E+01  0.7546771E-02  0.2573993E+00
         21   -1    0    0  503  502  0.00000000000E+00  0.00000000000E+00  0.13152057725E+03  0.13152057725E+03  0.00000000000E+00 0.  1.
         21   -1    0    0  501  503 -0.00000000000E+00 -0.00000000000E+00 -0.20209651775E+00  0.20209651775E+00  0.00000000000E+00 0. -1.
          5    1    1    2  501    0  0.15665309891E+01  0.27290196113E+00  0.47768328688E+02  0.48025323741E+02  0.47000000000E+01 0.  1.
         -5    1    1    2    0  502 -0.15665309891E+01 -0.27290196113E+00  0.83550152046E+02  0.83697350028E+02  0.47000000000E+01 0.  1.
<mgrwt>
<rscale>  2 0.49617028E+01</rscale>
<asrwt>0</asrwt>
<pdfrwt beam="1">  1       21 0.20233867E-01 0.49617028E+01</pdfrwt>
<pdfrwt beam="2">  1       21 0.31091877E-04 0.49617028E+01</pdfrwt>
<totfact> 0.34327773E+09</totfact>
</mgrwt>
</event>
<event>
 4    1  0.4144004E+006  0.5139311E+01  0.7546771E-02  0.2543018E+00
         21   -1    0    0  501  502  0.00000000000E+00  0.00000000000E+00  0.18092513554E+01  0.18092513554E+01  0.00000000000E+00 0. -1.
         21   -1    0    0  502  503 -0.00000000000E+00 -0.00000000000E+00 -0.16905562979E+02  0.16905562979E+02  0.00000000000E+00 0. -1.
          5    1    1    2  501    0 -0.17805217212E+01  0.10734337057E+01 -0.40914531357E+01  0.65690567270E+01  0.47000000000E+01 0. -1.
         -5    1    1    2    0  503  0.17805217212E+01 -0.10734337057E+01 -0.11004858488E+02  0.12145757608E+02  0.47000000000E+01 0. -1.
<mgrwt>
<rscale>  2 0.51393110E+01</rscale>
<asrwt>0</asrwt>
<pdfrwt beam="1">  1       21 0.27834636E-03 0.51393110E+01</pdfrwt>
<pdfrwt beam="2">  1       21 0.26008559E-02 0.51393110E+01</pdfrwt>
<totfact> 0.41125365E+09</totfact>
</mgrwt>
</event>
<event>
 4    1  0.4144004E+006  0.1316430E+02  0.7546771E-02  0.1929868E+00
         21   -1    0    0  503  502  0.00000000000E+00  0.00000000000E+00  0.26342339697E+02  0.26342339697E+02  0.00000000000E+00 0.  1.
         21   -1    0    0  501  503 -0.00000000000E+00 -0.00000000000E+00 -0.16541448032E+02  0.16541448032E+02  0.00000000000E+00 0.  1.
          5    1    1    2  501    0 -0.35832909290E+01  0.11763031039E+02 -0.11740021549E+02  0.17638791883E+02  0.47000000000E+01 0.  1.
         -5    1    1    2    0  502  0.35832909290E+01 -0.11763031039E+02  0.21540913215E+02  0.25244995846E+02  0.47000000000E+01 0.  1.
<mgrwt>
<rscale>  2 0.13164303E+02</rscale>
<asrwt>0</asrwt>
<pdfrwt beam="1">  1       21 0.40526676E-02 0.13164303E+02</pdfrwt>
<pdfrwt beam="2">  1       21 0.25448382E-02 0.13164303E+02</pdfrwt>
<totfact> 0.16866711E+08</totfact>
</mgrwt>
</event>
<event>
 4    1  0.4144004E+006  0.5264112E+01  0.7546771E-02  0.2522330E+00
         21   -1    0    0  501  502  0.00000000000E+00  0.00000000000E+00  0.47106129106E+01  0.47106129106E+01  0.00000000000E+00 0.  1.
         21   -1    0    0  502  503 -0.00000000000E+00 -0.00000000000E+00 -0.64202144956E+01  0.64202144956E+01  0.00000000000E+00 0.  1.
          5    1    1    2  501    0 -0.15912152239E+01  0.17575306812E+01  0.75561706490E+00  0.53180670485E+01  0.47000000000E+01 0.  1.
         -5    1    1    2    0  503  0.15912152239E+01 -0.17575306812E+01 -0.24652186498E+01  0.58127603576E+01  0.47000000000E+01 0.  1.
<mgrwt>
<rscale>  2 0.52641125E+01</rscale>
<asrwt>0</asrwt>
<pdfrwt beam="1">  1       21 0.72470968E-03 0.52641125E+01</pdfrwt>
<pdfrwt beam="2">  1       21 0.98772531E-03 0.52641125E+01</pdfrwt>
<totfact> 0.44534412E+09</totfact>
</mgrwt>
</event>
<event>
 4    1  0.4144004E+006  0.4906351E+01  0.7546771E-02  0.2584040E+00
         21   -1    0    0  501  502  0.00000000000E+00  0.00000000000E+00  0.56769031061E+02  0.56769031061E+02  0.00000000000E+00 0. -1.
         21   -1    0    0  502  503 -0.00000000000E+00 -0.00000000000E+00 -0.53601751834E+00  0.53601751834E+00  0.00000000000E+00 0. -1.
          5    1    1    2  501    0 -0.12192192765E+00 -0.14026468998E+01  0.41212569655E+02  0.41503592385E+02  0.47000000000E+01 0. -1.
         -5    1    1    2    0  503  0.12192192765E+00  0.14026468998E+01  0.15020443887E+02  0.15801456194E+02  0.47000000000E+01 0. -1.
<mgrwt>
<rscale>  2 0.49063513E+01</rscale>
<asrwt>0</asrwt>
<pdfrwt beam="1">  1       21 0.87336923E-02 0.49063513E+01</pdfrwt>
<pdfrwt beam="2">  1       21 0.82464278E-04 0.49063513E+01</pdfrwt>
<totfact> 0.34056134E+09</totfact>
</mgrwt>
</event>
<event>
 4    1  0.4144004E+006  0.9713468E+01  0.7546771E-02  0.2091671E+00
         21   -1    0    0  503  502  0.00000000000E+00  0.00000000000E+00  0.47610283283E+02  0.47610283283E+02  0.00000000000E+00 0. -1.
         21   -1    0    0  501  503 -0.00000000000E+00 -0.00000000000E+00 -0.39052265541E+01  0.39052265541E+01  0.00000000000E+00 0.  1.
          5    1    1    2  501    0  0.13311178754E+01  0.83958079914E+01  0.37754249892E+01  0.10421386687E+02  0.47000000000E+01 0.  1.
         -5    1    1    2    0  502 -0.13311178754E+01 -0.83958079914E+01  0.39929631740E+02  0.41094123150E+02  0.47000000000E+01 0. -1.
<mgrwt>
<rscale>  2 0.97134683E+01</rscale>
<asrwt>0</asrwt>
<pdfrwt beam="1">  1       21 0.73246585E-02 0.97134683E+01</pdfrwt>
<pdfrwt beam="2">  1       21 0.60080412E-03 0.97134683E+01</pdfrwt>
<totfact> 0.48602754E+08</totfact>
</mgrwt>
</event>
<event>
 4    1  0.4144004E+006  0.8785497E+01  0.7546771E-02  0.2151502E+00
         21   -1    0    0  501  502  0.00000000000E+00  0.00000000000E+00  0.14206304719E+00  0.14206304719E+00  0.00000000000E+00 0. -1.
         21   -1    0    0  502  503 -0.00000000000E+00 -0.00000000000E+00 -0.10436084878E+04  0.10436084878E+04  0.00000000000E+00 0.  1.
          5    1    1    2  501    0 -0.69843869820E+00 -0.73896647868E+01 -0.16039789389E+03  0.16063831836E+03  0.47000000000E+01 0. -1.
         -5    1    1    2    0  503  0.69843869820E+00  0.73896647868E+01 -0.88306853088E+03  0.88311223250E+03  0.47000000000E+01 0.  1.
<mgrwt>
<rscale>  2 0.87854973E+01</rscale>
<asrwt>0</asrwt>
<pdfrwt beam="1">  1       21 0.21856038E-04 0.87854973E+01</pdfrwt>
<pdfrwt beam="2">  1       21 0.16055380E+00 0.87854973E+01</pdfrwt>
<totfact> 0.16732858E+08</totfact>
</mgrwt>
</event>
<event>
 4    1  0.4144004E+006  0.5700660E+01  0.7546771E-02  0.2456091E+00
         21   -1    0    0  503  502  0.00000000000E+00  0.00000000000E+00  0.31249343561E+01  0.31249343561E+01  0.00000000000E+00 0. -1.
         21   -1    0    0  501  503 -0.00000000000E+00 -0.00000000000E+00 -0.21661016903E+02  0.21661016903E+02  0.00000000000E+00 0.  1.
          5    1    1    2  501    0  0.32135995721E+01 -0.28336835942E+00 -0.18203895422E+02  0.19075621310E+02  0.47000000000E+01 0.  1.
         -5    1    1    2    0  502 -0.32135995721E+01  0.28336835942E+00 -0.33218712470E+00  0.57103299487E+01  0.47000000000E+01 0. -1.
<mgrwt>
<rscale>  2 0.57006596E+01</rscale>
<asrwt>0</asrwt>
<pdfrwt beam="1">  1       21 0.48075912E-03 0.57006596E+01</pdfrwt>
<pdfrwt beam="2">  1       21 0.33324642E-02 0.57006596E+01</pdfrwt>
<totfact> 0.14996044E+09</totfact>
</mgrwt>
</event>
<event>
 4    1  0.4144004E+006  0.9848865E+01  0.7546771E-02  0.2083692E+00
         21   -1    0    0  501  502  0.00000000000E+00  0.00000000000E+00  0.80310256365E+01  0.80310256365E+01  0.00000000000E+00 0. -1.
         21   -1    0    0  502  503 -0.00000000000E+00 -0.00000000000E+00 -0.16422486145E+02  0.16422486145E+02  0.00000000000E+00 0.  1.
          5    1    1    2  501    0 -0.72728621018E+01 -0.46920812477E+01 -0.10484303850E+02  0.14384741110E+02  0.47000000000E+01 0.  1.
         -5    1    1    2    0  503  0.72728621018E+01  0.46920812477E+01  0.20928433412E+01  0.10068770672E+02  0.47000000000E+01 0. -1.
<mgrwt>
<rscale>  2 0.98488654E+01</rscale>
<asrwt>0</asrwt>
<pdfrwt beam="1">  1       21 0.12355424E-02 0.98488654E+01</pdfrwt>
<pdfrwt beam="2">  1       21 0.25265363E-02 0.98488654E+01</pdfrwt>
<totfact> 0.87229814E+08</totfact>
</mgrwt>
</event>
<event>
 4    1  0.4144004E+006  0.7046331E+01  0.7546771E-02  0.2296348E+00
         21   -1    0    0  501  502  0.00000000000E+00  0.00000000000E+00  0.18290187182E+02  0.18290187182E+02  0.00000000000E+00 0. -1.
         21   -1    0    0  502  503 -0.00000000000E+00 -0.00000000000E+00 -0.32855660690E+01  0.32855660690E+01  0.00000000000E+00 0. -1.
          5    1    1    2  501    0 -0.78960122033E+00  0.51901170280E+01  0.11999394264E+02  0.13915324198E+02  0.47000000000E+01 0. -1.
         -5    1    1    2    0  503  0.78960122033E+00 -0.51901170280E+01  0.30052268490E+01  0.76604290523E+01  0.47000000000E+01 0. -1.
<mgrwt>
<rscale>  2 0.70463313E+01</rscale>
<asrwt>0</asrwt>
<pdfrwt beam="1">  1       21 0.28138749E-02 0.70463313E+01</pdfrwt>
<pdfrwt beam="2">  1       21 0.50547171E-03 0.70463313E+01</pdfrwt>
<totfact> 0.21295436E+09</totfact>
</mgrwt>
</event>
<event>
 4    1  0.4144004E+006  0.8095972E+01  0.7546771E-02  0.2202901E+00
         21   -1    0    0  503  502  0.00000000000E+00  0.00000000000E+00  0.94054905746E+02  0.94054905746E+02  0.00000000000E+00 0. -1.
         21   -1    0    0  501  503 -0.00000000000E+00 -0.00000000000E+00 -0.72904249992E+00  0.72904249992E+00  0.00000000000E+00 0.  1.
          5    1    1    2  501    0 -0.37923703609E+01  0.53919101915E+01  0.56617413367E+02  0.57193323604E+02  0.47000000000E+01 0. -1.
         -5    1    1    2    0  502  0.37923703609E+01 -0.53919101915E+01  0.36708449879E+02  0.37590624642E+02  0.47000000000E+01 0.  1.
<mgrwt>
<rscale>  2 0.80959724E+01</rscale>
<asrwt>0</asrwt>
<pdfrwt beam="1">  1       21 0.14469976E-01 0.80959724E+01</pdfrwt>
<pdfrwt beam="2">  1       21 0.11216046E-03 0.80959724E+01</pdfrwt>
<totfact> 0.15516474E+09</totfact>
</mgrwt>
</event>
<event>
 4    1  0.4144004E+006  0.5694313E+01  0.7546771E-02  0.2456992E+00
         21   -1    0    0  503  502  0.00000000000E+00  0.00000000000E+00  0.42191192666E+02  0.42191192666E+02  0.00000000000E+00 0. -1.
         21   -1    0    0  501  503 -0.00000000000E+00 -0.00000000000E+00 -0.88516926943E+00  0.88516926943E+00  0.00000000000E+00 0.  1.
          5    1    1    2  501    0  0.32122723393E+01  0.12846007965E+00  0.12834603716E+02  0.14041091415E+02  0.47000000000E+01 0.  1.
         -5    1    1    2    0  502 -0.32122723393E+01 -0.12846007965E+00  0.28471419681E+02  0.29035270521E+02  0.47000000000E+01 0. -1.
<mgrwt>
<rscale>  2 0.56943126E+01</rscale>
<asrwt>0</asrwt>
<pdfrwt beam="1">  1       21 0.64909511E-02 0.56943126E+01</pdfrwt>
<pdfrwt beam="2">  1       21 0.13617992E-03 0.56943126E+01</pdfrwt>
<totfact> 0.31370972E+09</totfact>
</mgrwt>
</event>
<event>
 4    1  0.4144004E+006  0.1023526E+02  0.7546771E-02  0.2061841E+00
         21   -1    0    0  501  502  0.00000000000E+00  0.00000000000E+00  0.13755350114E+04  0.13755350114E+04  0.00000000000E+00 0.  1.
         21   -1    0    0  502  503 -0.00000000000E+00 -0.00000000000E+00 -0.76249960886E-01  0.76249960886E-01  0.00000000000E+00 0. -1.
          5    1    1    2  501    0 -0.77681521973E+01 -0.47250753743E+01  0.71137548320E+03  0.71144911176E+03  0.47000000000E+01 0.  1.
         -5    1    1    2    0  503  0.77681521973E+01  0.47250753743E+01  0.66408327824E+03  0.66416214960E+03  0.47000000000E+01 0. -1.
<mgrwt>
<rscale>  2 0.10235259E+02</rscale>
<asrwt>0</asrwt>
<pdfrwt beam="1">  1       21 0.21160090E+00 0.10235259E+02</pdfrwt>
<pdfrwt beam="2">  1       21 0.11731865E-04 0.10235259E+02</pdfrwt>
<totfact> 0.21729404E+08</totfact>
</mgrwt>
</event>
<event>
 4    1  0.4144004E+006  0.5164586E+01  0.7546771E-02  0.2538759E+00
         21   -1    0    0  501  502  0.00000000000E+00  0.00000000000E+00  0.15260149426E+01  0.15260149426E+01  0.00000000000E+00 0. -1.
         21   -1    0    0  502  503 -0.00000000000E+00 -0.00000000000E+00 -0.17818511151E+02  0.17818511151E+02  0.00000000000E+00 0. -1.
          5    1    1    2  501    0  0.21156974667E+01  0.32675641290E+00 -0.68107834305E+01  0.85474976725E+01  0.47000000000E+01 0. -1.
         -5    1    1    2    0  503 -0.21156974667E+01 -0.32675641290E+00 -0.94817127781E+01  0.10797028421E+02  0.47000000000E+01 0. -1.
<mgrwt>
<rscale>  2 0.51645857E+01</rscale>
<asrwt>0</asrwt>
<pdfrwt beam="1">  1       21 0.23477153E-03 0.51645857E+01</pdfrwt>
<pdfrwt beam="2">  1       21 0.27413094E-02 0.51645857E+01</pdfrwt>
<totfact> 0.48285076E+09</totfact>
</mgrwt>
</event>
<event>
 4    1  0.4144004E+006  0.5597118E+01  0.7546771E-02  0.2471007E+00
         21   -1    0    0  501  502  0.00000000000E+00  0.00000000000E+00  0.44511256955E+00  0.44511256955E+00  0.00000000000E+00 0.  1.
         21   -1    0    0  502  503 -0.00000000000E+00 -0.00000000000E+00 -0.25506266846E+03  0.25506266846E+03  0.00000000000E+00 0. -1.
          5    1    1    2  501    0 -0.31994108457E-01 -0.30391943660E+01 -0.18600679828E+02  0.19424546741E+02  0.47000000000E+01 0.  1.
         -5    1    1    2    0  503  0.31994108457E-01  0.30391943660E+01 -0.23601687606E+03  0.23608323429E+03  0.47000000000E+01 0. -1.
<mgrwt>
<rscale>  2 0.55971177E+01</rscale>
<asrwt>0</asrwt>
<pdfrwt beam="1">  1       21 0.68478814E-04 0.55971177E+01</pdfrwt>
<pdfrwt beam="2">  1       21 0.39240435E-01 0.55971177E+01</pdfrwt>
<totfact> 0.44515244E+08</totfact>
</mgrwt>
</event>
<event>
 4    1  0.4144004E+006  0.7252181E+01  0.7546771E-02  0.2276297E+00
         21   -1    0    0  503  502  0.00000000000E+00  0.00000000000E+00  0.59590452198E+01  0.59590452198E+01  0.00000000000E+00 0.  1.
         21   -1    0    0  501  503 -0.00000000000E+00 -0.00000000000E+00 -0.89492287645E+01  0.89492287645E+01  0.00000000000E+00 0.  1.
          5    1    1    2  501    0  0.44116042077E+01  0.33229312804E+01 -0.62014514343E+00  0.72786471256E+01  0.47000000000E+01 0.  1.
         -5    1    1    2    0  502 -0.44116042077E+01 -0.33229312804E+01 -0.23700384013E+01  0.76296268587E+01  0.47000000000E+01 0.  1.
<mgrwt>
<rscale>  2 0.72521806E+01</rscale>
<asrwt>0</asrwt>
<pdfrwt beam="1">  1       21 0.91677619E-03 0.72521806E+01</pdfrwt>
<pdfrwt beam="2">  1       21 0.13768044E-02 0.72521806E+01</pdfrwt>
<totfact> 0.26503177E+09</totfact>
</mgrwt>
</event>
<event>
 4    1  0.4144004E+006  0.6256102E+01  0.7546771E-02  0.2383238E+00
         21   -1    0    0  501  502  0.00000000000E+00  0.00000000000E+00  0.50171146823E+02  0.50171146823E+02  0.00000000000E+00 0. -1.
         21   -1    0    0  502  503 -0.00000000000E+00 -0.00000000000E+00 -0.79516250814E+00  0.79516250814E+00  0.00000000000E+00 0. -1.
          5    1    1    2  501    0  0.25396191207E+01  0.32556331943E+01  0.28194601152E+02  0.28880345339E+02  0.47000000000E+01 0. -1.
         -5    1    1    2    0  503 -0.25396191207E+01 -0.32556331943E+01  0.21181383163E+02  0.22085963992E+02  0.47000000000E+01 0. -1.
<mgrwt>
<rscale>  2 0.62561020E+01</rscale>
<asrwt>0</asrwt>
<pdfrwt beam="1">  1       21 0.77186355E-02 0.62561020E+01</pdfrwt>
<pdfrwt beam="2">  1       21 0.12233273E-03 0.62561020E+01</pdfrwt>
<totfact> 0.30314763E+09</totfact>
</mgrwt>
</event>
<event>
 4    1  0.4144004E+006  0.4774395E+01  0.7546771E-02  0.2608802E+00
         21   -1    0    0  501  502  0.00000000000E+00  0.00000000000E+00  0.11530040743E+00  0.11530040743E+00  0.00000000000E+00 0.  1.
         21   -1    0    0  502  503 -0.00000000000E+00 -0.00000000000E+00 -0.22031813029E+03  0.22031813029E+03  0.00000000000E+00 0.  1.
          5    1    1    2  501    0 -0.74508117288E+00 -0.38691840863E+00 -0.74786844989E+02  0.74939088834E+02  0.47000000000E+01 0.  1.
         -5    1    1    2    0  503  0.74508117288E+00  0.38691840863E+00 -0.14541598489E+03  0.14549434186E+03  0.47000000000E+01 0.  1.
<mgrwt>
<rscale>  2 0.47743954E+01</rscale>
<asrwt>0</asrwt>
<pdfrwt beam="1">  1       21 0.17738745E-04 0.47743954E+01</pdfrwt>
<pdfrwt beam="2">  1       21 0.33894676E-01 0.47743954E+01</pdfrwt>
<totfact> 0.29950974E+09</totfact>
</mgrwt>
</event>
<event>
 4    1  0.4144004E+006  0.5433823E+01  0.7546771E-02  0.2495506E+00
         21   -1    0    0  501  502  0.00000000000E+00  0.00000000000E+00  0.43697578038E+00  0.43697578038E+00  0.00000000000E+00 0. -1.
         21   -1    0    0  502  503 -0.00000000000E+00 -0.00000000000E+00 -0.20454763458E+03  0.20454763458E+03  0.00000000000E+00 0. -1.
          5    1    1    2  501    0  0.91778201055E+00 -0.25679006814E+01 -0.18182958746E+02  0.18977524245E+02  0.47000000000E+01 0. -1.
         -5    1    1    2    0  503 -0.91778201055E+00  0.25679006814E+01 -0.18592770005E+03  0.18600708611E+03  0.47000000000E+01 0. -1.
<mgrwt>
<rscale>  2 0.54338235E+01</rscale>
<asrwt>0</asrwt>
<pdfrwt beam="1">  1       21 0.67227160E-04 0.54338235E+01</pdfrwt>
<pdfrwt beam="2">  1       21 0.31468812E-01 0.54338235E+01</pdfrwt>
<totfact> 0.64981401E+08</totfact>
</mgrwt>
</event>
<event>
 4    1  0.4144004E+006  0.4707955E+01  0.7546771E-02  0.2621725E+00
         21   -1    0    0  503  502  0.00000000000E+00  0.00000000000E+00  0.16630576074E+02  0.16630576074E+02  0.00000000000E+00 0. -1.
         21   -1    0    0  501  503 -0.00000000000E+00 -0.00000000000E+00 -0.13533788082E+01  0.13533788082E+01  0.00000000000E+00 0. -1.
          5    1    1    2  501    0 -0.26823883427E+00  0.53752475226E-01  0.87480370264E+01  0.99344347205E+01  0.47000000000E+01 0.  1.
         -5    1    1    2    0  502  0.26823883427E+00 -0.53752475226E-01  0.65291602392E+01  0.80495201615E+01  0.47000000000E+01 0.  1.
<mgrwt>
<rscale>  2 0.47079551E+01</rscale>
<asrwt>0</asrwt>
<pdfrwt beam="1">  1       21 0.25585500E-02 0.47079551E+01</pdfrwt>
<pdfrwt beam="2">  1       21 0.20821214E-03 0.47079551E+01</pdfrwt>
<totfact> 0.56731164E+09</totfact>
</mgrwt>
</event>
<event>
 4    1  0.4144004E+006  0.6706193E+01  0.7546771E-02  0.2331674E+00
         21   -1    0    0  501  502  0.00000000000E+00  0.00000000000E+00  0.16929184593E+03  0.16929184593E+03  0.00000000000E+00 0. -1.
         21   -1    0    0  502  503 -0.00000000000E+00 -0.00000000000E+00 -0.35495637474E+00  0.35495637474E+00  0.00000000000E+00 0. -1.
          5    1    1    2  501    0 -0.82229699202E+00  0.47124153164E+01  0.12701457486E+03  0.12719149051E+03  0.47000000000E+01 0. -1.
         -5    1    1    2    0  503  0.82229699202E+00 -0.47124153164E+01  0.41922314695E+02  0.42455311797E+02  0.47000000000E+01 0. -1.
<mgrwt>
<rscale>  2 0.67061934E+01</rscale>
<asrwt>0</asrwt>
<pdfrwt beam="1">  1       21 0.26044835E-01 0.67061934E+01</pdfrwt>
<pdfrwt beam="2">  1       21 0.54608808E-04 0.67061934E+01</pdfrwt>
<totfact> 0.13806799E+09</totfact>
</mgrwt>
</event>
<event>
 4    1  0.4144004E+006  0.5276891E+01  0.7546771E-02  0.2520259E+00
         21   -1    0    0  501  502  0.00000000000E+00  0.00000000000E+00  0.13699701623E+01  0.13699701623E+01  0.00000000000E+00 0. -1.
         21   -1    0    0  502  503 -0.00000000000E+00 -0.00000000000E+00 -0.19458919809E+03  0.19458919809E+03  0.00000000000E+00 0. -1.
          5    1    1    2  501    0 -0.21029205553E+01  0.11546896596E+01 -0.38883252621E+01  0.65547430473E+01  0.47000000000E+01 0. -1.
         -5    1    1    2    0  503  0.21029205553E+01 -0.11546896596E+01 -0.18933090267E+03  0.18940442521E+03  0.47000000000E+01 0. -1.
<mgrwt>
<rscale>  2 0.52768914E+01</rscale>
<asrwt>0</asrwt>
<pdfrwt beam="1">  1       21 0.21076455E-03 0.52768914E+01</pdfrwt>
<pdfrwt beam="2">  1       21 0.29936813E-01 0.52768914E+01</pdfrwt>
<totfact> 0.14951718E+08</totfact>
</mgrwt>
</event>
<event>
 4    1  0.4144004E+006  0.4749906E+01  0.7546771E-02  0.2613529E+00
         21   -1    0    0  501  502  0.00000000000E+00  0.00000000000E+00  0.12890604205E+04  0.12890604205E+04  0.00000000000E+00 0.  1.
         21   -1    0    0  502  503 -0.00000000000E+00 -0.00000000000E+00 -0.25569868357E-01  0.25569868357E-01  0.00000000000E+00 0.  1.
          5    1    1    2  501    0 -0.28776689011E+00 -0.62353820859E+00  0.10065579179E+04  0.10065691251E+04  0.47000000000E+01 0.  1.
         -5    1    1    2    0  503  0.28776689011E+00  0.62353820859E+00  0.28247693273E+03  0.28251686522E+03  0.47000000000E+01 0.  1.
<mgrwt>
<rscale>  2 0.47499063E+01</rscale>
<asrwt>0</asrwt>
<pdfrwt beam="1">  1       21 0.19826495E+00 0.47499063E+01</pdfrwt>
<pdfrwt beam="2">  1       21 0.39348583E-05 0.47499063E+01</pdfrwt>
<totfact> 0.74610303E+08</totfact>
</mgrwt>
</event>
<event>
 4    1  0.4144004E+006  0.5045699E+01  0.7546771E-02  0.2559110E+00
         21   -1    0    0  503  502  0.00000000000E+00  0.00000000000E+00  0.13783422248E+01  0.13783422248E+01  0.00000000000E+00 0. -1.
         21   -1    0    0  501  503 -0.00000000000E+00 -0.00000000000E+00 -0.20578082467E+02  0.20578082467E+02  0.00000000000E+00 0. -1.
          5    1    1    2  501    0 -0.17975422137E+01 -0.37137205940E+00 -0.13112975494E+02  0.14050238486E+02  0.47000000000E+01 0. -1.
         -5    1    1    2    0  502  0.17975422137E+01  0.37137205940E+00 -0.60867647480E+01  0.79061862054E+01  0.47000000000E+01 0. -1.
<mgrwt>
<rscale>  2 0.50456987E+01</rscale>
<asrwt>0</asrwt>
<pdfrwt beam="1">  1       21 0.21205264E-03 0.50456987E+01</pdfrwt>
<pdfrwt beam="2">  1       21 0.31658590E-02 0.50456987E+01</pdfrwt>
<totfact> 0.43974227E+09</totfact>
</mgrwt>
</event>
<event>
 4    1  0.4144004E+006  0.6219794E+01  0.7546771E-02  0.2387666E+00
         21   -1    0    0  501  502  0.00000000000E+00  0.00000000000E+00  0.78668630255E+00  0.78668630255E+00  0.00000000000E+00 0.  1.
         21   -1    0    0  502  503 -0.00000000000E+00 -0.00000000000E+00 -0.49221092891E+02  0.49221092891E+02  0.00000000000E+00 0. -1.
          5    1    1    2  501    0 -0.40704710512E+01  0.16464054474E+00 -0.23457790908E+02  0.24268370266E+02  0.47000000000E+01 0. -1.
         -5    1    1    2    0  503  0.40704710512E+01 -0.16464054474E+00 -0.24976615680E+02  0.25739408927E+02  0.47000000000E+01 0.  1.
<mgrwt>
<rscale>  2 0.62197943E+01</rscale>
<asrwt>0</asrwt>
<pdfrwt beam="1">  1       21 0.12102866E-03 0.62197943E+01</pdfrwt>
<pdfrwt beam="2">  1       21 0.75724757E-02 0.62197943E+01</pdfrwt>
<totfact> 0.31505799E+09</totfact>
</mgrwt>
</event>
<event>
 4    1  0.4144004E+006  0.6465271E+01  0.7546771E-02  0.2358535E+00
         21   -1    0    0  503  502  0.00000000000E+00  0.00000000000E+00  0.72578570832E+03  0.72578570832E+03  0.00000000000E+00 0. -1.
         21   -1    0    0  501  503 -0.00000000000E+00 -0.00000000000E+00 -0.71437910014E-01  0.71437910014E-01  0.00000000000E+00 0.  1.
          5    1    1    2  501    0  0.13097960073E+01 -0.42419526721E+01  0.20308113455E+03  0.20318402235E+03  0.47000000000E+01 0.  1.
         -5    1    1    2    0  502 -0.13097960073E+01  0.42419526721E+01  0.52263313587E+03  0.52267312389E+03  0.47000000000E+01 0. -1.
<mgrwt>
<rscale>  2 0.64652709E+01</rscale>
<asrwt>0</asrwt>
<pdfrwt beam="1">  1       21 0.11165344E+00 0.64652709E+01</pdfrwt>
<pdfrwt beam="2">  1       21 0.10991029E-04 0.64652709E+01</pdfrwt>
<totfact> 0.78256314E+08</totfact>
</mgrwt>
</event>
<event>
 4    1  0.4144004E+006  0.5914824E+01  0.7546771E-02  0.2426643E+00
         21   -1    0    0  503  502  0.00000000000E+00  0.00000000000E+00  0.11665614088E+03  0.11665614088E+03  0.00000000000E+00 0.  1.
         21   -1    0    0  501  503 -0.00000000000E+00 -0.00000000000E+00 -0.47792793219E+00  0.47792793219E+00  0.00000000000E+00 0.  1.
          5    1    1    2  501    0  0.61031919943E-01  0.35904620642E+01  0.22344011489E+02  0.23113632171E+02  0.47000000000E+01 0.  1.
         -5    1    1    2    0  502 -0.61031919943E-01 -0.35904620642E+01  0.93834201461E+02  0.94020436643E+02  0.47000000000E+01 0.  1.
<mgrwt>
<rscale>  2 0.59148240E+01</rscale>
<asrwt>0</asrwt>
<pdfrwt beam="1">  1       21 0.17947076E-01 0.59148240E+01</pdfrwt>
<pdfrwt beam="2">  1       21 0.73527467E-04 0.59148240E+01</pdfrwt>
<totfact> 0.15459683E+09</totfact>
</mgrwt>
</event>
<event>
 4    1  0.4144004E+006  0.5519990E+01  0.7546771E-02  0.2482425E+00
         21   -1    0    0  501  502  0.00000000000E+00  0.00000000000E+00  0.27136064702E+00  0.27136064702E+00  0.00000000000E+00 0. -1.
         21   -1    0    0  502  503 -0.00000000000E+00 -0.00000000000E+00 -0.23154650222E+03  0.23154650222E+03  0.00000000000E+00 0.  1.
          5    1    1    2  501    0  0.28841926148E+01  0.24845097833E+00 -0.32452739815E+02  0.32918848954E+02  0.47000000000E+01 0. -1.
         -5    1    1    2    0  503 -0.28841926148E+01 -0.24845097833E+00 -0.19882240176E+03  0.19889901392E+03  0.47000000000E+01 0.  1.
<mgrwt>
<rscale>  2 0.55199905E+01</rscale>
<asrwt>0</asrwt>
<pdfrwt beam="1">  1       21 0.41747759E-04 0.55199905E+01</pdfrwt>
<pdfrwt beam="2">  1       21 0.35622567E-01 0.55199905E+01</pdfrwt>
<totfact> 0.10055142E+09</totfact>
</mgrwt>
</event>
<event>
 4    1  0.4144004E+006  0.6262272E+01  0.7546771E-02  0.2382489E+00
         21   -1    0    0  501  502  0.00000000000E+00  0.00000000000E+00  0.16168624337E+01  0.16168624337E+01  0.00000000000E+00 0.  1.
         21   -1    0    0  502  503 -0.00000000000E+00 -0.00000000000E+00 -0.49161645766E+02  0.49161645766E+02  0.00000000000E+00 0. -1.
          5    1    1    2  501    0 -0.25220764100E+01  0.32810328298E+01 -0.57006714841E+01  0.84683942526E+01  0.47000000000E+01 0.  1.
         -5    1    1    2    0  503  0.25220764100E+01 -0.32810328298E+01 -0.41844111849E+02  0.42310113947E+02  0.47000000000E+01 0. -1.
<mgrwt>
<rscale>  2 0.62622716E+01</rscale>
<asrwt>0</asrwt>
<pdfrwt beam="1">  1       21 0.24874805E-03 0.62622716E+01</pdfrwt>
<pdfrwt beam="2">  1       21 0.75633307E-02 0.62622716E+01</pdfrwt>
<totfact> 0.11913041E+09</totfact>
</mgrwt>
</event>
<event>
 4    1  0.4144004E+006  0.5695611E+01  0.7546771E-02  0.2456808E+00
         21   -1    0    0  501  502  0.00000000000E+00  0.00000000000E+00  0.95279989575E+00  0.95279989575E+00  0.00000000000E+00 0. -1.
         21   -1    0    0  502  503 -0.00000000000E+00 -0.00000000000E+00 -0.49269524546E+02  0.49269524546E+02  0.00000000000E+00 0. -1.
          5    1    1    2  501    0 -0.30235538591E+01 -0.10991371224E+01 -0.10200434927E+02  0.11682844390E+02  0.47000000000E+01 0. -1.
         -5    1    1    2    0  503  0.30235538591E+01  0.10991371224E+01 -0.38116289723E+02  0.38539480051E+02  0.47000000000E+01 0. -1.
<mgrwt>
<rscale>  2 0.56956106E+01</rscale>
<asrwt>0</asrwt>
<pdfrwt beam="1">  1       21 0.14658457E-03 0.56956106E+01</pdfrwt>
<pdfrwt beam="2">  1       21 0.75799283E-02 0.56956106E+01</pdfrwt>
<totfact> 0.22518028E+09</totfact>
</mgrwt>
</event>
<event>
 4    1  0.4144004E+006  0.6942889E+01  0.7546771E-02  0.2306790E+00
         21   -1    0    0  501  502  0.00000000000E+00  0.00000000000E+00  0.95031815820E+00  0.95031815820E+00  0.00000000000E+00 0.  1.
         21   -1    0    0  502  503 -0.00000000000E+00 -0.00000000000E+00 -0.52684984359E+02  0.52684984359E+02  0.00000000000E+00 0. -1.
          5    1    1    2  501    0  0.85551880092E+00 -0.50380353994E+01 -0.20693164098E+02  0.21826835627E+02  0.47000000000E+01 0. -1.
         -5    1    1    2    0  503 -0.85551880092E+00  0.50380353994E+01 -0.31041502103E+02  0.31808466890E+02  0.47000000000E+01 0. -1.
<mgrwt>
<rscale>  2 0.69428894E+01</rscale>
<asrwt>0</asrwt>
<pdfrwt beam="1">  1       21 0.14620278E-03 0.69428894E+01</pdfrwt>
<pdfrwt beam="2">  1       21 0.81053829E-02 0.69428894E+01</pdfrwt>
<totfact> 0.24017406E+09</totfact>
</mgrwt>
</event>
<event>
 4    1  0.4144004E+006  0.1027478E+02  0.7546771E-02  0.2059679E+00
         21   -1    0    0  503  502  0.00000000000E+00  0.00000000000E+00  0.89791831657E+00  0.89791831657E+00  0.00000000000E+00 0.  1.
         21   -1    0    0  501  503 -0.00000000000E+00 -0.00000000000E+00 -0.15702756290E+03  0.15702756290E+03  0.00000000000E+00 0.  1.
          5    1    1    2  501    0  0.88238426094E+01 -0.23708563011E+01 -0.11764535298E+03  0.11809318454E+03  0.47000000000E+01 0.  1.
         -5    1    1    2    0  502 -0.88238426094E+01  0.23708563011E+01 -0.38484291610E+02  0.39832296679E+02  0.47000000000E+01 0.  1.
<mgrwt>
<rscale>  2 0.10274783E+02</rscale>
<asrwt>0</asrwt>
<pdfrwt beam="1">  1       21 0.13814129E-03 0.10274783E+02</pdfrwt>
<pdfrwt beam="2">  1       21 0.24158086E-01 0.10274783E+02</pdfrwt>
<totfact> 0.57320493E+08</totfact>
</mgrwt>
</event>
<event>
 4    1  0.4144004E+006  0.5517270E+01  0.7546771E-02  0.2482833E+00
         21   -1    0    0  503  502  0.00000000000E+00  0.00000000000E+00  0.57622633982E-01  0.57622633982E-01  0.00000000000E+00 0. -1.
         21   -1    0    0  501  503 -0.00000000000E+00 -0.00000000000E+00 -0.65710731381E+03  0.65710731381E+03  0.00000000000E+00 0. -1.
          5    1    1    2  501    0  0.27016379933E+01  0.10253859587E+01 -0.47401994767E+03  0.47405205521E+03  0.47000000000E+01 0. -1.
         -5    1    1    2    0  502 -0.27016379933E+01 -0.10253859587E+01 -0.18302974351E+03  0.18311288123E+03  0.47000000000E+01 0. -1.
<mgrwt>
<rscale>  2 0.55172696E+01</rscale>
<asrwt>0</asrwt>
<pdfrwt beam="1">  1       21 0.88654396E-05 0.55172696E+01</pdfrwt>
<pdfrwt beam="2">  1       21 0.10108866E+00 0.55172696E+01</pdfrwt>
<totfact> 0.11467831E+09</totfact>
</mgrwt>
</event>
<event>
 4    1  0.4144004E+006  0.5750755E+01  0.7546771E-02  0.2449038E+00
         21   -1    0    0  503  502  0.00000000000E+00  0.00000000000E+00  0.51212353699E+00  0.51212353699E+00  0.00000000000E+00 0.  1.
         21   -1    0    0  501  503 -0.00000000000E+00 -0.00000000000E+00 -0.65555748191E+02  0.65555748191E+02  0.00000000000E+00 0. -1.
          5    1    1    2  501    0 -0.27572694417E+01 -0.18381084307E+01 -0.28484544553E+02  0.29059257660E+02  0.47000000000E+01 0.  1.
         -5    1    1    2    0  502  0.27572694417E+01  0.18381084307E+01 -0.36559080101E+02  0.37008614068E+02  0.47000000000E+01 0. -1.
<mgrwt>
<rscale>  2 0.57507545E+01</rscale>
<asrwt>0</asrwt>
<pdfrwt beam="1">  1       21 0.78788277E-04 0.57507545E+01</pdfrwt>
<pdfrwt beam="2">  1       21 0.10085495E-01 0.57507545E+01</pdfrwt>
<totfact> 0.33866777E+09</totfact>
</mgrwt>
</event>
<event>
 4    1  0.4144004E+006  0.5560603E+01  0.7546771E-02  0.2476380E+00
         21   -1    0    0  501  502  0.00000000000E+00  0.00000000000E+00  0.84748046610E+01  0.84748046610E+01  0.00000000000E+00 0.  1.
         21   -1    0    0  502  503 -0.00000000000E+00 -0.00000000000E+00 -0.36519181495E+01  0.36519181495E+01  0.00000000000E+00 0.  1.
          5    1    1    2  501    0 -0.26998850410E+01  0.12413396910E+01  0.22258729879E+01  0.59895587501E+01  0.47000000000E+01 0.  1.
         -5    1    1    2    0  503  0.26998850410E+01 -0.12413396910E+01  0.25970135236E+01  0.61371640604E+01  0.47000000000E+01 0.  1.
<mgrwt>
<rscale>  2 0.55606028E+01</rscale>
<asrwt>0</asrwt>
<pdfrwt beam="1">  1       21 0.13038161E-02 0.55606028E+01</pdfrwt>
<pdfrwt beam="2">  1       21 0.56183356E-03 0.55606028E+01</pdfrwt>
<totfact> 0.45309647E+09</totfact>
</mgrwt>
</event>
<event>
 4    1  0.4144004E+006  0.8280185E+01  0.7546771E-02  0.2188500E+00
         21   -1    0    0  501  502  0.00000000000E+00  0.00000000000E+00  0.12638599569E+03  0.12638599569E+03  0.00000000000E+00 0.  1.
         21   -1    0    0  502  503 -0.00000000000E+00 -0.00000000000E+00 -0.82317222014E+00  0.82317222014E+00  0.00000000000E+00 0.  1.
          5    1    1    2  501    0 -0.34600187752E+01  0.58736467393E+01  0.99923029469E+02  0.10026551388E+03  0.47000000000E+01 0.  1.
         -5    1    1    2    0  503  0.34600187752E+01 -0.58736467393E+01  0.25639794005E+02  0.26943654031E+02  0.47000000000E+01 0.  1.
<mgrwt>
<rscale>  2 0.82801845E+01</rscale>
<asrwt>0</asrwt>
<pdfrwt beam="1">  1       21 0.19443984E-01 0.82801845E+01</pdfrwt>
<pdfrwt beam="2">  1       21 0.12664198E-03 0.82801845E+01</pdfrwt>
<totfact> 0.82392915E+08</totfact>
</mgrwt>
</event>
<event>
 4    1  0.4144004E+006  0.8684338E+01  0.7546771E-02  0.2158633E+00
         21   -1    0    0  501  502  0.00000000000E+00  0.00000000000E+00  0.15583323966E+02  0.15583323966E+02  0.00000000000E+00 0.  1.
         21   -1    0    0  502  503 -0.00000000000E+00 -0.00000000000E+00 -0.53278630666E+01  0.53278630666E+01  0.00000000000E+00 0. -1.
          5    1    1    2  501    0  0.72383056022E+01  0.96677477743E+00  0.19626841299E+01  0.89033617502E+01  0.47000000000E+01 0. -1.
         -5    1    1    2    0  503 -0.72383056022E+01 -0.96677477743E+00  0.82927767692E+01  0.12007825282E+02  0.47000000000E+01 0.  1.
<mgrwt>
<rscale>  2 0.86843377E+01</rscale>
<asrwt>0</asrwt>
<pdfrwt beam="1">  1       21 0.23974344E-02 0.86843377E+01</pdfrwt>
<pdfrwt beam="2">  1       21 0.81967125E-03 0.86843377E+01</pdfrwt>
<totfact> 0.15774129E+09</totfact>
</mgrwt>
</event>
<event>
 4    1  0.4144004E+006  0.5839397E+01  0.7546771E-02  0.2436807E+00
         21   -1    0    0  501  502  0.00000000000E+00  0.00000000000E+00  0.44932924262E+02  0.44932924262E+02  0.00000000000E+00 0.  1.
         21   -1    0    0  502  503 -0.00000000000E+00 -0.00000000000E+00 -0.95019476782E+00  0.95019476782E+00  0.00000000000E+00 0.  1.
          5    1    1    2  501    0 -0.17200008464E-01  0.34652942249E+01  0.32285606056E+02  0.32809433374E+02  0.47000000000E+01 0. -1.
         -5    1    1    2    0  503  0.17200008464E-01 -0.34652942249E+01  0.11697123438E+02  0.13073685656E+02  0.47000000000E+01 0. -1.
<mgrwt>
<rscale>  2 0.58393972E+01</rscale>
<asrwt>0</asrwt>
<pdfrwt beam="1">  1       21 0.69127560E-02 0.58393972E+01</pdfrwt>
<pdfrwt beam="2">  1       21 0.14618384E-03 0.58393972E+01</pdfrwt>
<totfact> 0.26530643E+09</totfact>
</mgrwt>
</event>
<event>
 4    1  0.4144004E+006  0.5935120E+01  0.7546771E-02  0.2423945E+00
         21   -1    0    0  503  502  0.00000000000E+00  0.00000000000E+00  0.32831924070E+02  0.32831924070E+02  0.00000000000E+00 0.  1.
         21   -1    0    0  501  503 -0.00000000000E+00 -0.00000000000E+00 -0.10746024569E+01  0.10746024569E+01  0.00000000000E+00 0.  1.
          5    1    1    2  501    0  0.31297054648E+01 -0.18277273619E+01  0.15205518145E+02  0.16322788538E+02  0.47000000000E+01 0.  1.
         -5    1    1    2    0  502 -0.31297054648E+01  0.18277273619E+01  0.16551803468E+02  0.17583737988E+02  0.47000000000E+01 0.  1.
<mgrwt>
<rscale>  2 0.59351195E+01</rscale>
<asrwt>0</asrwt>
<pdfrwt beam="1">  1       21 0.50510645E-02 0.59351195E+01</pdfrwt>
<pdfrwt beam="2">  1       21 0.16532348E-03 0.59351195E+01</pdfrwt>
<totfact> 0.36385095E+09</totfact>
</mgrwt>
</event>
<event>
 4    1  0.4144004E+006  0.9089769E+01  0.7546771E-02  0.2130820E+00
         21   -1    0    0  501  502  0.00000000000E+00  0.00000000000E+00  0.13411995363E+01  0.13411995363E+01  0.00000000000E+00 0. -1.
         21   -1    0    0  502  503 -0.00000000000E+00 -0.00000000000E+00 -0.10469471603E+03  0.10469471603E+03  0.00000000000E+00 0.  1.
          5    1    1    2  501    0  0.58007235744E+01 -0.51851235892E+01 -0.17663358161E+02  0.19864997411E+02  0.47000000000E+01 0. -1.
         -5    1    1    2    0  503 -0.58007235744E+01  0.51851235892E+01 -0.85690158330E+02  0.86170918152E+02  0.47000000000E+01 0.  1.
<mgrwt>
<rscale>  2 0.90897690E+01</rscale>
<asrwt>0</asrwt>
<pdfrwt beam="1">  1       21 0.20633838E-03 0.90897690E+01</pdfrwt>
<pdfrwt beam="2">  1       21 0.16106880E-01 0.90897690E+01</pdfrwt>
<totfact> 0.60375467E+08</totfact>
</mgrwt>
</event>
<event>
 4    1  0.4144004E+006  0.5987050E+01  0.7546771E-02  0.2417112E+00
         21   -1    0    0  501  502  0.00000000000E+00  0.00000000000E+00  0.60936029798E+02  0.60936029798E+02  0.00000000000E+00 0. -1.
         21   -1    0    0  502  503 -0.00000000000E+00 -0.00000000000E+00 -0.10175897268E+01  0.10175897268E+01  0.00000000000E+00 0.  1.
          5    1    1    2  501    0  0.32447453494E+01 -0.17962165383E+01  0.50080608782E+02  0.50437209898E+02  0.47000000000E+01 0. -1.
         -5    1    1    2    0  503 -0.32447453494E+01  0.17962165383E+01  0.98378312892E+01  0.11516409628E+02  0.47000000000E+01 0.  1.
<mgrwt>
<rscale>  2 0.59870499E+01</rscale>
<asrwt>0</asrwt>
<pdfrwt beam="1">  1       21 0.93747710E-02 0.59870499E+01</pdfrwt>
<pdfrwt beam="2">  1       21 0.15655231E-03 0.59870499E+01</pdfrwt>
<totfact> 0.15569822E+09</totfact>
</mgrwt>
</event>
<event>
 4    1  0.4144004E+006  0.5538153E+01  0.7546771E-02  0.2479712E+00
         21   -1    0    0  503  502  0.00000000000E+00  0.00000000000E+00  0.82436732624E-01  0.82436732624E-01  0.00000000000E+00 0.  1.
         21   -1    0    0  501  503 -0.00000000000E+00 -0.00000000000E+00 -0.39045259201E+03  0.39045259201E+03  0.00000000000E+00 0.  1.
          5    1    1    2  501    0 -0.21702586923E+01  0.19675156098E+01 -0.23756947530E+03  0.23763401847E+03  0.47000000000E+01 0.  1.
         -5    1    1    2    0  502  0.21702586923E+01 -0.19675156098E+01 -0.15280067998E+03  0.15290101028E+03  0.47000000000E+01 0.  1.
<mgrwt>
<rscale>  2 0.55381532E+01</rscale>
<asrwt>0</asrwt>
<pdfrwt beam="1">  1       21 0.12682539E-04 0.55381532E+01</pdfrwt>
<pdfrwt beam="2">  1       21 0.60069795E-01 0.55381532E+01</pdfrwt>
<totfact> 0.19466832E+09</totfact>
</mgrwt>
</event>
<event>
 4    1  0.4144004E+006  0.9104880E+01  0.7546771E-02  0.2129821E+00
         21   -1    0    0  501  502  0.00000000000E+00  0.00000000000E+00  0.31810837178E+01  0.31810837178E+01  0.00000000000E+00 0.  1.
         21   -1    0    0  502  503 -0.00000000000E+00 -0.00000000000E+00 -0.26073474400E+02  0.26073474400E+02  0.00000000000E+00 0. -1.
          5    1    1    2  501    0  0.32766705886E+01 -0.70761767570E+01 -0.11112922729E+02  0.14366485278E+02  0.47000000000E+01 0. -1.
         -5    1    1    2    0  503 -0.32766705886E+01  0.70761767570E+01 -0.11779467952E+02  0.14888072840E+02  0.47000000000E+01 0. -1.
<mgrwt>
<rscale>  2 0.91048804E+01</rscale>
<asrwt>0</asrwt>
<pdfrwt beam="1">  1       21 0.48939748E-03 0.91048804E+01</pdfrwt>
<pdfrwt beam="2">  1       21 0.40113039E-02 0.91048804E+01</pdfrwt>
<totfact> 0.15753853E+09</totfact>
</mgrwt>
</event>
<event>
 4    1  0.4144004E+006  0.6696553E+01  0.7546771E-02  0.2332718E+00
         21   -1    0    0  503  502  0.00000000000E+00  0.00000000000E+00  0.28241838711E+04  0.28241838711E+04  0.00000000000E+00 0. -1.
         21   -1    0    0  501  503 -0.00000000000E+00 -0.00000000000E+00 -0.63029592283E-01  0.63029592283E-01  0.00000000000E+00 0.  1.
          5    1    1    2  501    0 -0.21326657668E+01 -0.42667974659E+01  0.19069319450E+03  0.19081073935E+03  0.47000000000E+01 0.  1.
         -5    1    1    2    0  502  0.21326657668E+01  0.42667974659E+01  0.26334276470E+04  0.26334361614E+04  0.47000000000E+01 0. -1.
<mgrwt>
<rscale>  2 0.66965531E+01</rscale>
<asrwt>0</asrwt>
<pdfrwt beam="1">  1       21 0.43438850E+00 0.66965531E+01</pdfrwt>
<pdfrwt beam="2">  1       21 0.96991223E-05 0.66965531E+01</pdfrwt>
<totfact> 0.26150155E+07</totfact>
</mgrwt>
</event>
<event>
 4    1  0.4144004E+006  0.6862358E+01  0.7546771E-02  0.2315098E+00
         21   -1    0    0  501  502  0.00000000000E+00  0.00000000000E+00  0.28095556047E+01  0.28095556047E+01  0.00000000000E+00 0. -1.
         21   -1    0    0  502  503 -0.00000000000E+00 -0.00000000000E+00 -0.17255897482E+02  0.17255897482E+02  0.00000000000E+00 0. -1.
          5    1    1    2  501    0 -0.43819046485E+00 -0.49809578361E+01 -0.89216222449E+01  0.11255545092E+02  0.47000000000E+01 0. -1.
         -5    1    1    2    0  503  0.43819046485E+00  0.49809578361E+01 -0.55247196321E+01  0.88099079939E+01  0.47000000000E+01 0. -1.
<mgrwt>
<rscale>  2 0.68623576E+01</rscale>
<asrwt>0</asrwt>
<pdfrwt beam="1">  1       21 0.43223933E-03 0.68623576E+01</pdfrwt>
<pdfrwt beam="2">  1       21 0.26547534E-02 0.68623576E+01</pdfrwt>
<totfact> 0.28273792E+09</totfact>
</mgrwt>
</event>
<event>
 4    1  0.4144004E+006  0.1211117E+02  0.7546771E-02  0.1971610E+00
         21   -1    0    0  503  502  0.00000000000E+00  0.00000000000E+00  0.51996154904E+01  0.51996154904E+01  0.00000000000E+00 0.  1.
         21   -1    0    0  501  503 -0.00000000000E+00 -0.00000000000E+00 -0.28541971252E+02  0.28541971252E+02  0.00000000000E+00 0. -1.
          5    1    1    2  501    0 -0.11106260643E+02  0.11142227040E+01 -0.13490977904E+02  0.18129727039E+02  0.47000000000E+01 0. -1.
         -5    1    1    2    0  502  0.11106260643E+02 -0.11142227040E+01 -0.98513778580E+01  0.15611859704E+02  0.47000000000E+01 0.  1.
<mgrwt>
<rscale>  2 0.12111173E+02</rscale>
<asrwt>0</asrwt>
<pdfrwt beam="1">  1       21 0.79994085E-03 0.12111173E+02</pdfrwt>
<pdfrwt beam="2">  1       21 0.43910725E-02 0.12111173E+02</pdfrwt>
<totfact> 0.79718609E+08</totfact>
</mgrwt>
</event>
<event>
 4    1  0.4144004E+006  0.8829208E+01  0.7546771E-02  0.2148461E+00
         21   -1    0    0  503  502  0.00000000000E+00  0.00000000000E+00  0.10261305373E+00  0.10261305373E+00  0.00000000000E+00 0. -1.
         21   -1    0    0  501  503 -0.00000000000E+00 -0.00000000000E+00 -0.77203242567E+03  0.77203242567E+03  0.00000000000E+00 0. -1.
          5    1    1    2  501    0 -0.14038669056E+00 -0.74729645967E+01 -0.43476368766E+03  0.43485333046E+03  0.47000000000E+01 0. -1.
         -5    1    1    2    0  502  0.14038669056E+00  0.74729645967E+01 -0.33716612496E+03  0.33728170826E+03  0.47000000000E+01 0. -1.
<mgrwt>
<rscale>  2 0.88292077E+01</rscale>
<asrwt>0</asrwt>
<pdfrwt beam="1">  1       21 0.15787016E-04 0.88292077E+01</pdfrwt>
<pdfrwt beam="2">  1       21 0.11877127E+00 0.88292077E+01</pdfrwt>
<totfact> 0.50373204E+08</totfact>
</mgrwt>
</event>
<event>
 4    1  0.4144004E+006  0.5763236E+01  0.7546771E-02  0.2447296E+00
         21   -1    0    0  503  502  0.00000000000E+00  0.00000000000E+00  0.32056687830E+02  0.32056687830E+02  0.00000000000E+00 0. -1.
         21   -1    0    0  501  503 -0.00000000000E+00 -0.00000000000E+00 -0.19713830688E+01  0.19713830688E+01  0.00000000000E+00 0. -1.
          5    1    1    2  501    0 -0.15440233636E+00 -0.33318240073E+01  0.33237637521E+01  0.66529915660E+01  0.47000000000E+01 0. -1.
         -5    1    1    2    0  502  0.15440233636E+00  0.33318240073E+01  0.26761541009E+02  0.27375079333E+02  0.47000000000E+01 0. -1.
<mgrwt>
<rscale>  2 0.57632362E+01</rscale>
<asrwt>0</asrwt>
<pdfrwt beam="1">  1       21 0.49317978E-02 0.57632362E+01</pdfrwt>
<pdfrwt beam="2">  1       21 0.30328972E-03 0.57632362E+01</pdfrwt>
<totfact> 0.16073682E+09</totfact>
</mgrwt>
</event>
<event>
 4    1  0.4144004E+006  0.6576695E+01  0.7546771E-02  0.2345910E+00
         21   -1    0    0  503  502  0.00000000000E+00  0.00000000000E+00  0.27415648419E+02  0.27415648419E+02  0.00000000000E+00 0.  1.
         21   -1    0    0  501  503 -0.00000000000E+00 -0.00000000000E+00 -0.35559325536E+01  0.35559325536E+01  0.00000000000E+00 0.  1.
          5    1    1    2  501    0  0.45933556439E+01 -0.25298849651E+00  0.37942417452E+00  0.65876309820E+01  0.47000000000E+01 0.  1.
         -5    1    1    2    0  502 -0.45933556439E+01  0.25298849651E+00  0.23480291691E+02  0.24383949991E+02  0.47000000000E+01 0.  1.
<mgrwt>
<rscale>  2 0.65766952E+01</rscale>
<asrwt>0</asrwt>
<pdfrwt beam="1">  1       21 0.42177919E-02 0.65766952E+01</pdfrwt>
<pdfrwt beam="2">  1       21 0.54706656E-03 0.65766952E+01</pdfrwt>
<totfact> 0.99644409E+08</totfact>
</mgrwt>
</event>
<event>
 4    1  0.4144004E+006  0.6391269E+01  0.7546771E-02  0.2367121E+00
         21   -1    0    0  503  502  0.00000000000E+00  0.00000000000E+00  0.79036670133E+02  0.79036670133E+02  0.00000000000E+00 0.  1.
         21   -1    0    0  501  503 -0.00000000000E+00 -0.00000000000E+00 -0.15119640464E+01  0.15119640464E+01  0.00000000000E+00 0.  1.
          5    1    1    2  501    0  0.30581825692E+01 -0.30668940307E+01  0.60886163513E+01  0.88272061659E+01  0.47000000000E+01 0.  1.
         -5    1    1    2    0  502 -0.30581825692E+01  0.30668940307E+01  0.71436089735E+02  0.71721428013E+02  0.47000000000E+01 0.  1.
<mgrwt>
<rscale>  2 0.63912690E+01</rscale>
<asrwt>0</asrwt>
<pdfrwt beam="1">  1       21 0.12159484E-01 0.63912690E+01</pdfrwt>
<pdfrwt beam="2">  1       21 0.23260992E-03 0.63912690E+01</pdfrwt>
<totfact> 0.63921160E+08</totfact>
</mgrwt>
</event>
<event>
 4    1  0.4144004E+006  0.6467159E+01  0.7546771E-02  0.2358318E+00
         21   -1    0    0  503  502  0.00000000000E+00  0.00000000000E+00  0.36073743099E+00  0.36073743099E+00  0.00000000000E+00 0.  1.
         21   -1    0    0  501  503 -0.00000000000E+00 -0.00000000000E+00 -0.15677519389E+03  0.15677519389E+03  0.00000000000E+00 0.  1.
          5    1    1    2  501    0 -0.19317468570E+00 -0.44381105897E+01 -0.38109428314E+02  0.38654271025E+02  0.47000000000E+01 0.  1.
         -5    1    1    2    0  502  0.19317468570E+00  0.44381105897E+01 -0.11830502815E+03  0.11848166030E+03  0.47000000000E+01 0.  1.
<mgrwt>
<rscale>  2 0.64671587E+01</rscale>
<asrwt>0</asrwt>
<pdfrwt beam="1">  1       21 0.55497933E-04 0.64671587E+01</pdfrwt>
<pdfrwt beam="2">  1       21 0.24119319E-01 0.64671587E+01</pdfrwt>
<totfact> 0.14947116E+09</totfact>
</mgrwt>
</event>
<event>
 4    1  0.4144004E+006  0.7325443E+01  0.7546771E-02  0.2269383E+00
         21   -1    0    0  503  502  0.00000000000E+00  0.00000000000E+00  0.10251781146E+02  0.10251781146E+02  0.00000000000E+00 0. -1.
         21   -1    0    0  501  503 -0.00000000000E+00 -0.00000000000E+00 -0.66556891644E+02  0.66556891644E+02  0.00000000000E+00 0. -1.
          5    1    1    2  501    0  0.29385557129E+00  0.56112183198E+01 -0.65015801482E+02  0.65427185210E+02  0.47000000000E+01 0. -1.
         -5    1    1    2    0  502 -0.29385557129E+00 -0.56112183198E+01  0.87106909841E+01  0.11381487581E+02  0.47000000000E+01 0. -1.
<mgrwt>
<rscale>  2 0.73254435E+01</rscale>
<asrwt>0</asrwt>
<pdfrwt beam="1">  1       21 0.15771971E-02 0.73254435E+01</pdfrwt>
<pdfrwt beam="2">  1       21 0.10239522E-01 0.73254435E+01</pdfrwt>
<totfact> 0.61713408E+07</totfact>
</mgrwt>
</event>
<event>
 4    1  0.4144004E+006  0.6634230E+01  0.7546771E-02  0.2339528E+00
         21   -1    0    0  503  502  0.00000000000E+00  0.00000000000E+00  0.34104296833E+02  0.34104296833E+02  0.00000000000E+00 0.  1.
         21   -1    0    0  501  503 -0.00000000000E+00 -0.00000000000E+00 -0.16711851365E+01  0.16711851365E+01  0.00000000000E+00 0. -1.
          5    1    1    2  501    0  0.39055533760E+01 -0.25825675670E+01  0.24753503844E+02  0.25627113668E+02  0.47000000000E+01 0.  1.
         -5    1    1    2    0  502 -0.39055533760E+01  0.25825675670E+01  0.76796078523E+01  0.10148368301E+02  0.47000000000E+01 0. -1.
<mgrwt>
<rscale>  2 0.66342296E+01</rscale>
<asrwt>0</asrwt>
<pdfrwt beam="1">  1       21 0.52468144E-02 0.66342296E+01</pdfrwt>
<pdfrwt beam="2">  1       21 0.25710543E-03 0.66342296E+01</pdfrwt>
<totfact> 0.20669342E+09</totfact>
</mgrwt>
</event>
<event>
 4    1  0.4144004E+006  0.8311219E+01  0.7546771E-02  0.2186124E+00
         21   -1    0    0  501  502  0.00000000000E+00  0.00000000000E+00  0.28665624904E+01  0.28665624904E+01  0.00000000000E+00 0.  1.
         21   -1    0    0  502  503 -0.00000000000E+00 -0.00000000000E+00 -0.41426385160E+03  0.41426385160E+03  0.00000000000E+00 0. -1.
          5    1    1    2  501    0  0.66509459058E+01  0.16586981994E+01 -0.32903200533E+01  0.89388235922E+01  0.47000000000E+01 0.  1.
         -5    1    1    2    0  503 -0.66509459058E+01 -0.16586981994E+01 -0.40810696905E+03  0.40819159049E+03  0.47000000000E+01 0. -1.
<mgrwt>
<rscale>  2 0.83112190E+01</rscale>
<asrwt>0</asrwt>
<pdfrwt beam="1">  1       21 0.44100942E-03 0.83112190E+01</pdfrwt>
<pdfrwt beam="2">  1       21 0.63732928E-01 0.83112190E+01</pdfrwt>
<totfact> 0.17923624E+07</totfact>
</mgrwt>
</event>
<event>
 4    1  0.4144004E+006  0.6693744E+01  0.7546771E-02  0.2333023E+00
         21   -1    0    0  501  502  0.00000000000E+00  0.00000000000E+00  0.12388664119E+04  0.12388664119E+04  0.00000000000E+00 0. -1.
         21   -1    0    0  502  503 -0.00000000000E+00 -0.00000000000E+00 -0.36266270890E-01  0.36266270890E-01  0.00000000000E+00 0. -1.
          5    1    1    2  501    0  0.26757017272E+01  0.39442154716E+01  0.58702364058E+03  0.58706180323E+03  0.47000000000E+01 0. -1.
         -5    1    1    2    0  503 -0.26757017272E+01 -0.39442154716E+01  0.65180650501E+03  0.65184087490E+03  0.47000000000E+01 0. -1.
<mgrwt>
<rscale>  2 0.66937445E+01</rscale>
<asrwt>0</asrwt>
<pdfrwt beam="1">  1       21 0.19056094E+00 0.66937445E+01</pdfrwt>
<pdfrwt beam="2">  1       21 0.55804185E-05 0.66937445E+01</pdfrwt>
<totfact> 0.62501524E+08</totfact>
</mgrwt>
</event>
<event>
 4    1  0.4144004E+006  0.5924470E+01  0.7546771E-02  0.2425359E+00
         21   -1    0    0  503  502  0.00000000000E+00  0.00000000000E+00  0.54329045447E+01  0.54329045447E+01  0.00000000000E+00 0. -1.
         21   -1    0    0  501  503 -0.00000000000E+00 -0.00000000000E+00 -0.40508256595E+02  0.40508256595E+02  0.00000000000E+00 0. -1.
          5    1    1    2  501    0  0.21682327503E+00  0.36003234907E+01 -0.38596997490E+02  0.39049040409E+02  0.47000000000E+01 0. -1.
         -5    1    1    2    0  502 -0.21682327503E+00 -0.36003234907E+01  0.35216454398E+01  0.68921207312E+01  0.47000000000E+01 0. -1.
<mgrwt>
<rscale>  2 0.59244697E+01</rscale>
<asrwt>0</asrwt>
<pdfrwt beam="1">  1       21 0.83583148E-03 0.59244697E+01</pdfrwt>
<pdfrwt beam="2">  1       21 0.62320394E-02 0.59244697E+01</pdfrwt>
<totfact> 0.28435311E+08</totfact>
</mgrwt>
</event>
<event>
 4    1  0.4144004E+006  0.1383019E+02  0.7546771E-02  0.1906016E+00
         21   -1    0    0  503  502  0.00000000000E+00  0.00000000000E+00  0.13290065327E+02  0.13290065327E+02  0.00000000000E+00 0. -1.
         21   -1    0    0  501  503 -0.00000000000E+00 -0.00000000000E+00 -0.31931926691E+02  0.31931926691E+02  0.00000000000E+00 0. -1.
          5    1    1    2  501    0  0.11286724731E+02  0.64648293886E+01 -0.26078757880E+02  0.29519074964E+02  0.47000000000E+01 0. -1.
         -5    1    1    2    0  502 -0.11286724731E+02 -0.64648293886E+01  0.74368965168E+01  0.15702917053E+02  0.47000000000E+01 0. -1.
<mgrwt>
<rscale>  2 0.13830191E+02</rscale>
<asrwt>0</asrwt>
<pdfrwt beam="1">  1       21 0.20446255E-02 0.13830191E+02</pdfrwt>
<pdfrwt beam="2">  1       21 0.49126041E-02 0.13830191E+02</pdfrwt>
<totfact> 0.17785140E+08</totfact>
</mgrwt>
</event>
<event>
 4    1  0.4144004E+006  0.7339460E+01  0.7546771E-02  0.2268073E+00
         21   -1    0    0  503  502  0.00000000000E+00  0.00000000000E+00  0.12580407650E+02  0.12580407650E+02  0.00000000000E+00 0.  1.
         21   -1    0    0  501  503 -0.00000000000E+00 -0.00000000000E+00 -0.43615375799E+01  0.43615375799E+01  0.00000000000E+00 0. -1.
          5    1    1    2  501    0  0.43787979726E+01 -0.35501824042E+01  0.52543019335E+01  0.90263700122E+01  0.47000000000E+01 0.  1.
         -5    1    1    2    0  502 -0.43787979726E+01  0.35501824042E+01  0.29645681362E+01  0.79155752174E+01  0.47000000000E+01 0. -1.
<mgrwt>
<rscale>  2 0.73394596E+01</rscale>
<asrwt>0</asrwt>
<pdfrwt beam="1">  1       21 0.19354473E-02 0.73394596E+01</pdfrwt>
<pdfrwt beam="2">  1       21 0.67100579E-03 0.73394596E+01</pdfrwt>
<totfact> 0.25459094E+09</totfact>
</mgrwt>
</event>
<event>
 4    1  0.4144004E+006  0.4992881E+01  0.7546771E-02  0.2568418E+00
         21   -1    0    0  503  502  0.00000000000E+00  0.00000000000E+00  0.19443071639E+00  0.19443071639E+00  0.00000000000E+00 0. -1.
         21   -1    0    0  501  503 -0.00000000000E+00 -0.00000000000E+00 -0.21773104040E+03  0.21773104040E+03  0.00000000000E+00 0. -1.
          5    1    1    2  501    0  0.91467407467E+00  0.14150021291E+01 -0.17863483687E+03  0.17870459928E+03  0.47000000000E+01 0. -1.
         -5    1    1    2    0  502 -0.91467407467E+00 -0.14150021291E+01 -0.38901772814E+02  0.39220871838E+02  0.47000000000E+01 0. -1.
<mgrwt>
<rscale>  2 0.49928809E+01</rscale>
<asrwt>0</asrwt>
<pdfrwt beam="1">  1       21 0.29912347E-04 0.49928809E+01</pdfrwt>
<pdfrwt beam="2">  1       21 0.33497162E-01 0.49928809E+01</pdfrwt>
<totfact> 0.15952435E+09</totfact>
</mgrwt>
</event>
<event>
 4    1  0.4144004E+006  0.6648135E+01  0.7546771E-02  0.2338000E+00
         21   -1    0    0  501  502  0.00000000000E+00  0.00000000000E+00  0.35997457689E+02  0.35997457689E+02  0.00000000000E+00 0.  1.
         21   -1    0    0  502  503 -0.00000000000E+00 -0.00000000000E+00 -0.18255141130E+01  0.18255141130E+01  0.00000000000E+00 0. -1.
          5    1    1    2  501    0  0.31775927994E+01  0.34656308158E+01  0.27907277482E+02  0.28688217606E+02  0.47000000000E+01 0.  1.
         -5    1    1    2    0  503 -0.31775927994E+01 -0.34656308158E+01  0.62646660937E+01  0.91347541957E+01  0.47000000000E+01 0. -1.
<mgrwt>
<rscale>  2 0.66481345E+01</rscale>
<asrwt>0</asrwt>
<pdfrwt beam="1">  1       21 0.55380699E-02 0.66481345E+01</pdfrwt>
<pdfrwt beam="2">  1       21 0.28084835E-03 0.66481345E+01</pdfrwt>
<totfact> 0.16905482E+09</totfact>
</mgrwt>
</event>
<event>
 4    1  0.4144004E+006  0.9322314E+01  0.7546771E-02  0.2115740E+00
         21   -1    0    0  501  502  0.00000000000E+00  0.00000000000E+00  0.11210171115E+00  0.11210171115E+00  0.00000000000E+00 0.  1.
         21   -1    0    0  502  503 -0.00000000000E+00 -0.00000000000E+00 -0.90124051379E+03  0.90124051379E+03  0.00000000000E+00 0. -1.
          5    1    1    2  501    0 -0.69348046774E+01 -0.40895006900E+01 -0.28205113717E+03  0.28220515500E+03  0.47000000000E+01 0. -1.
         -5    1    1    2    0  503  0.69348046774E+01  0.40895006900E+01 -0.61907727490E+03  0.61914746049E+03  0.47000000000E+01 0.  1.
<mgrwt>
<rscale>  2 0.93223137E+01</rscale>
<asrwt>0</asrwt>
<pdfrwt beam="1">  1       21 0.17247140E-04 0.93223137E+01</pdfrwt>
<pdfrwt beam="2">  1       21 0.13864658E+00 0.93223137E+01</pdfrwt>
<totfact> 0.32771660E+08</totfact>
</mgrwt>
</event>
<event>
 4    1  0.4144004E+006  0.1898626E+02  0.7546771E-02  0.1766273E+00
         21   -1    0    0  501  502  0.00000000000E+00  0.00000000000E+00  0.19533771357E+02  0.19533771357E+02  0.00000000000E+00 0.  1.
         21   -1    0    0  502  503 -0.00000000000E+00 -0.00000000000E+00 -0.19176248201E+02  0.19176248201E+02  0.00000000000E+00 0. -1.
          5    1    1    2  501    0  0.12457937099E+02 -0.13534684605E+02  0.39347923516E+01  0.19389700229E+02  0.47000000000E+01 0.  1.
         -5    1    1    2    0  503 -0.12457937099E+02  0.13534684605E+02 -0.35772691956E+01  0.19320319330E+02  0.47000000000E+01 0. -1.
<mgrwt>
<rscale>  2 0.18986255E+02</rscale>
<asrwt>0</asrwt>
<pdfrwt beam="1">  1       21 0.30051956E-02 0.18986255E+02</pdfrwt>
<pdfrwt beam="2">  1       21 0.29501920E-02 0.18986255E+02</pdfrwt>
<totfact> 0.24569362E+08</totfact>
</mgrwt>
</event>
<event>
 4    1  0.4144004E+006  0.5211549E+01  0.7546771E-02  0.2530940E+00
         21   -1    0    0  503  502  0.00000000000E+00  0.00000000000E+00  0.68595899614E+00  0.68595899614E+00  0.00000000000E+00 0. -1.
         21   -1    0    0  501  503 -0.00000000000E+00 -0.00000000000E+00 -0.46359509014E+02  0.46359509014E+02  0.00000000000E+00 0. -1.
          5    1    1    2  501    0 -0.22508797445E+01  0.61534019466E-01 -0.31822447403E+02  0.32246370412E+02  0.47000000000E+01 0. -1.
         -5    1    1    2    0  502  0.22508797445E+01 -0.61534019466E-01 -0.13851102616E+02  0.14799097598E+02  0.47000000000E+01 0. -1.
<mgrwt>
<rscale>  2 0.52115493E+01</rscale>
<asrwt>0</asrwt>
<pdfrwt beam="1">  1       21 0.10553215E-03 0.52115493E+01</pdfrwt>
<pdfrwt beam="2">  1       21 0.71322322E-02 0.52115493E+01</pdfrwt>
<totfact> 0.35286350E+09</totfact>
</mgrwt>
</event>
<event>
 4    1  0.4144004E+006  0.6344776E+01  0.7546771E-02  0.2372600E+00
         21   -1    0    0  501  502  0.00000000000E+00  0.00000000000E+00  0.68447975106E+01  0.68447975106E+01  0.00000000000E+00 0.  1.
         21   -1    0    0  502  503 -0.00000000000E+00 -0.00000000000E+00 -0.21347790127E+02  0.21347790127E+02  0.00000000000E+00 0.  1.
          5    1    1    2  501    0  0.21826214541E+01 -0.36609218359E+01  0.47469390697E+01  0.79239898809E+01  0.47000000000E+01 0.  1.
         -5    1    1    2    0  503 -0.21826214541E+01  0.36609218359E+01 -0.19249931686E+02  0.20268597756E+02  0.47000000000E+01 0.  1.
<mgrwt>
<rscale>  2 0.63447762E+01</rscale>
<asrwt>0</asrwt>
<pdfrwt beam="1">  1       21 0.10530458E-02 0.63447762E+01</pdfrwt>
<pdfrwt beam="2">  1       21 0.32842753E-02 0.63447762E+01</pdfrwt>
<totfact> 0.55714731E+08</totfact>
</mgrwt>
</event>
<event>
 4    1  0.4144004E+006  0.6353749E+01  0.7546771E-02  0.2371537E+00
         21   -1    0    0  501  502  0.00000000000E+00  0.00000000000E+00  0.15544862190E+03  0.15544862190E+03  0.00000000000E+00 0. -1.
         21   -1    0    0  502  503 -0.00000000000E+00 -0.00000000000E+00 -0.92283945463E+00  0.92283945463E+00  0.00000000000E+00 0.  1.
          5    1    1    2  501    0 -0.41126322608E+01 -0.11689213579E+01  0.14354046711E+03  0.14368102109E+03  0.47000000000E+01 0. -1.
         -5    1    1    2    0  503  0.41126322608E+01  0.11689213579E+01  0.10985315329E+02  0.12690440266E+02  0.47000000000E+01 0.  1.
<mgrwt>
<rscale>  2 0.63537486E+01</rscale>
<asrwt>0</asrwt>
<pdfrwt beam="1">  1       21 0.23915152E-01 0.63537486E+01</pdfrwt>
<pdfrwt beam="2">  1       21 0.14197542E-03 0.63537486E+01</pdfrwt>
<totfact> 0.42201376E+08</totfact>
</mgrwt>
</event>
<event>
 4    1  0.4144004E+006  0.6221178E+01  0.7546771E-02  0.2387496E+00
         21   -1    0    0  503  502  0.00000000000E+00  0.00000000000E+00  0.44650757899E+02  0.44650757899E+02  0.00000000000E+00 0. -1.
         21   -1    0    0  501  503 -0.00000000000E+00 -0.00000000000E+00 -0.36028851218E+01  0.36028851218E+01  0.00000000000E+00 0.  1.
          5    1    1    2  501    0 -0.40097051367E+01  0.73165966399E+00 -0.50126138739E+00  0.62413399303E+01  0.47000000000E+01 0.  1.
         -5    1    1    2    0  502  0.40097051367E+01 -0.73165966399E+00  0.41549134164E+02  0.42012303090E+02  0.47000000000E+01 0. -1.
<mgrwt>
<rscale>  2 0.62211784E+01</rscale>
<asrwt>0</asrwt>
<pdfrwt beam="1">  1       21 0.68693470E-02 0.62211784E+01</pdfrwt>
<pdfrwt beam="2">  1       21 0.55429005E-03 0.62211784E+01</pdfrwt>
<totfact> 0.45259353E+08</totfact>
</mgrwt>
</event>
<event>
 4    1  0.4144004E+006  0.6790717E+01  0.7546771E-02  0.2322624E+00
         21   -1    0    0  503  502  0.00000000000E+00  0.00000000000E+00  0.68350008799E+01  0.68350008799E+01  0.00000000000E+00 0.  1.
         21   -1    0    0  501  503 -0.00000000000E+00 -0.00000000000E+00 -0.20321290498E+02  0.20321290498E+02  0.00000000000E+00 0. -1.
          5    1    1    2  501    0  0.16443158815E+01 -0.46173649072E+01 -0.17840714461E+02  0.19089393020E+02  0.47000000000E+01 0. -1.
         -5    1    1    2    0  502 -0.16443158815E+01  0.46173649072E+01  0.43544248428E+01  0.80668983578E+01  0.47000000000E+01 0.  1.
<mgrwt>
<rscale>  2 0.67907167E+01</rscale>
<asrwt>0</asrwt>
<pdfrwt beam="1">  1       21 0.10515386E-02 0.67907167E+01</pdfrwt>
<pdfrwt beam="2">  1       21 0.31263524E-02 0.67907167E+01</pdfrwt>
<totfact> 0.63079539E+08</totfact>
</mgrwt>
</event>
<event>
 4    1  0.4144004E+006  0.1073713E+02  0.7546771E-02  0.2035314E+00
         21   -1    0    0  503  502  0.00000000000E+00  0.00000000000E+00  0.48187451100E+01  0.48187451100E+01  0.00000000000E+00 0.  1.
         21   -1    0    0  501  503 -0.00000000000E+00 -0.00000000000E+00 -0.23996207224E+02  0.23996207224E+02  0.00000000000E+00 0. -1.
          5    1    1    2  501    0 -0.61865886648E+01  0.74109422704E+01 -0.88010050515E+01  0.13883214129E+02  0.47000000000E+01 0. -1.
         -5    1    1    2    0  502  0.61865886648E+01 -0.74109422704E+01 -0.10376457062E+02  0.14931738205E+02  0.47000000000E+01 0.  1.
<mgrwt>
<rscale>  2 0.10737129E+02</rscale>
<asrwt>0</asrwt>
<pdfrwt beam="1">  1       21 0.74134541E-03 0.10737129E+02</pdfrwt>
<pdfrwt beam="2">  1       21 0.36917242E-02 0.10737129E+02</pdfrwt>
<totfact> 0.10876620E+09</totfact>
</mgrwt>
</event>
<event>
 4    1  0.4144004E+006  0.1394864E+02  0.7546771E-02  0.1901956E+00
         21   -1    0    0  501  502  0.00000000000E+00  0.00000000000E+00  0.48311468672E+03  0.48311468672E+03  0.00000000000E+00 0.  1.
         21   -1    0    0  502  503 -0.00000000000E+00 -0.00000000000E+00 -0.49467457657E+00  0.49467457657E+00  0.00000000000E+00 0. -1.
          5    1    1    2  501    0 -0.13109587287E+02  0.78317464427E+00  0.34555822250E+03  0.34583963015E+03  0.47000000000E+01 0.  1.
         -5    1    1    2    0  503  0.13109587287E+02 -0.78317464427E+00  0.13706178965E+03  0.13776973115E+03  0.47000000000E+01 0. -1.
<mgrwt>
<rscale>  2 0.13948643E+02</rscale>
<asrwt>0</asrwt>
<pdfrwt beam="1">  1       21 0.74324959E-01 0.13948643E+02</pdfrwt>
<pdfrwt beam="2">  1       21 0.76104167E-04 0.13948643E+02</pdfrwt>
<totfact> 0.18817206E+08</totfact>
</mgrwt>
</event>
<event>
 4    1  0.4144004E+006  0.5954430E+01  0.7546771E-02  0.2421393E+00
         21   -1    0    0  501  502  0.00000000000E+00  0.00000000000E+00  0.46997232539E+02  0.46997232539E+02  0.00000000000E+00 0. -1.
         21   -1    0    0  502  503 -0.00000000000E+00 -0.00000000000E+00 -0.87894522337E+00  0.87894522337E+00  0.00000000000E+00 0. -1.
          5    1    1    2  501    0  0.26862794064E+01  0.24797462336E+01  0.32069720314E+02  0.32617820274E+02  0.47000000000E+01 0. -1.
         -5    1    1    2    0  503 -0.26862794064E+01 -0.24797462336E+01  0.14048567002E+02  0.15258357488E+02  0.47000000000E+01 0. -1.
<mgrwt>
<rscale>  2 0.59544302E+01</rscale>
<asrwt>0</asrwt>
<pdfrwt beam="1">  1       21 0.72303415E-02 0.59544302E+01</pdfrwt>
<pdfrwt beam="2">  1       21 0.13522238E-03 0.59544302E+01</pdfrwt>
<totfact> 0.28019580E+09</totfact>
</mgrwt>
</event>
<event>
 4    1  0.4144004E+006  0.1269299E+02  0.7546771E-02  0.1947893E+00
         21   -1    0    0  503  502  0.00000000000E+00  0.00000000000E+00  0.53398848898E+00  0.53398848898E+00  0.00000000000E+00 0.  1.
         21   -1    0    0  501  503 -0.00000000000E+00 -0.00000000000E+00 -0.30298163432E+03  0.30298163432E+03  0.00000000000E+00 0. -1.
          5    1    1    2  501    0  0.11722191209E+02 -0.12697210778E+01 -0.16103881703E+03  0.16153826961E+03  0.47000000000E+01 0. -1.
         -5    1    1    2    0  502 -0.11722191209E+02  0.12697210778E+01 -0.14140882881E+03  0.14197735320E+03  0.47000000000E+01 0.  1.
<mgrwt>
<rscale>  2 0.12692989E+02</rscale>
<asrwt>0</asrwt>
<pdfrwt beam="1">  1       21 0.82151900E-04 0.12692989E+02</pdfrwt>
<pdfrwt beam="2">  1       21 0.46612659E-01 0.12692989E+02</pdfrwt>
<totfact> 0.40359626E+08</totfact>
</mgrwt>
</event>
<event>
 4    1  0.4144004E+006  0.4950967E+01  0.7546771E-02  0.2575926E+00
         21   -1    0    0  503  502  0.00000000000E+00  0.00000000000E+00  0.44026156067E+01  0.44026156067E+01  0.00000000000E+00 0.  1.
         21   -1    0    0  501  503 -0.00000000000E+00 -0.00000000000E+00 -0.36334762526E+02  0.36334762526E+02  0.00000000000E+00 0. -1.
          5    1    1    2  501    0  0.15287037017E+01 -0.29177805590E+00 -0.34709350797E+02  0.35060677435E+02  0.47000000000E+01 0. -1.
         -5    1    1    2    0  502 -0.15287037017E+01  0.29177805590E+00  0.27772038773E+01  0.56767006982E+01  0.47000000000E+01 0.  1.
<mgrwt>
<rscale>  2 0.49509665E+01</rscale>
<asrwt>0</asrwt>
<pdfrwt beam="1">  1       21 0.67732552E-03 0.49509665E+01</pdfrwt>
<pdfrwt beam="2">  1       21 0.55899631E-02 0.49509665E+01</pdfrwt>
<totfact> 0.38748784E+08</totfact>
</mgrwt>
</event>
<event>
 4    1  0.4144004E+006  0.7086417E+01  0.7546771E-02  0.2292369E+00
         21   -1    0    0  501  502  0.00000000000E+00  0.00000000000E+00  0.29145821739E+03  0.29145821739E+03  0.00000000000E+00 0. -1.
         21   -1    0    0  502  503 -0.00000000000E+00 -0.00000000000E+00 -0.17345924297E+00  0.17345924297E+00  0.00000000000E+00 0. -1.
          5    1    1    2  501    0  0.15367489011E+01 -0.50759938511E+01  0.13370534138E+03  0.13389300066E+03  0.47000000000E+01 0. -1.
         -5    1    1    2    0  503 -0.15367489011E+01  0.50759938511E+01  0.15757941677E+03  0.15773867598E+03  0.47000000000E+01 0. -1.
<mgrwt>
<rscale>  2 0.70864173E+01</rscale>
<asrwt>0</asrwt>
<pdfrwt beam="1">  1       21 0.44839334E-01 0.70864173E+01</pdfrwt>
<pdfrwt beam="2">  1       21 0.26686271E-04 0.70864173E+01</pdfrwt>
<totfact> 0.14682261E+09</totfact>
</mgrwt>
</event>
<event>
 4    1  0.4144004E+006  0.1075187E+02  0.7546771E-02  0.2034564E+00
         21   -1    0    0  501  502  0.00000000000E+00  0.00000000000E+00  0.40096934455E+03  0.40096934455E+03  0.00000000000E+00 0.  1.
         21   -1    0    0  502  503 -0.00000000000E+00 -0.00000000000E+00 -0.29100635580E+00  0.29100635580E+00  0.00000000000E+00 0. -1.
          5    1    1    2  501    0  0.95708184469E+01 -0.13828250439E+01  0.21965771082E+03  0.21992069638E+03  0.47000000000E+01 0. -1.
         -5    1    1    2    0  503 -0.95708184469E+01  0.13828250439E+01  0.18102062737E+03  0.18133965453E+03  0.47000000000E+01 0.  1.
<mgrwt>
<rscale>  2 0.10751873E+02</rscale>
<asrwt>0</asrwt>
<pdfrwt beam="1">  1       21 0.61687149E-01 0.10751873E+02</pdfrwt>
<pdfrwt beam="2">  1       21 0.44770529E-04 0.10751873E+02</pdfrwt>
<totfact> 0.50839837E+08</totfact>
</mgrwt>
</event>
<event>
 4    1  0.4144004E+006  0.4788853E+01  0.7546771E-02  0.2606032E+00
         21   -1    0    0  503  502  0.00000000000E+00  0.00000000000E+00  0.11984583683E+01  0.11984583683E+01  0.00000000000E+00 0.  1.
         21   -1    0    0  501  503 -0.00000000000E+00 -0.00000000000E+00 -0.19628919624E+02  0.19628919624E+02  0.00000000000E+00 0.  1.
          5    1    1    2  501    0  0.91690403152E+00  0.48966235102E-01 -0.75641787249E+01  0.89526482383E+01  0.47000000000E+01 0. -1.
         -5    1    1    2    0  502 -0.91690403152E+00 -0.48966235102E-01 -0.10866282531E+02  0.11874729754E+02  0.47000000000E+01 0. -1.
<mgrwt>
<rscale>  2 0.47888528E+01</rscale>
<asrwt>0</asrwt>
<pdfrwt beam="1">  1       21 0.18437823E-03 0.47888528E+01</pdfrwt>
<pdfrwt beam="2">  1       21 0.30198335E-02 0.47888528E+01</pdfrwt>
<totfact> 0.53708389E+09</totfact>
</mgrwt>
</event>
<event>
 4    1  0.4144004E+006  0.4978537E+01  0.7546771E-02  0.2570975E+00
         21   -1    0    0  503  502  0.00000000000E+00  0.00000000000E+00  0.14456600937E+02  0.14456600937E+02  0.00000000000E+00 0. -1.
         21   -1    0    0  501  503 -0.00000000000E+00 -0.00000000000E+00 -0.33437395171E+01  0.33437395171E+01  0.00000000000E+00 0. -1.
          5    1    1    2  501    0  0.16408163057E+01 -0.59579041874E-01 -0.65618793243E+00  0.50215944096E+01  0.47000000000E+01 0. -1.
         -5    1    1    2    0  502 -0.16408163057E+01  0.59579041874E-01  0.11769049352E+02  0.12778746045E+02  0.47000000000E+01 0. -1.
<mgrwt>
<rscale>  2 0.49785367E+01</rscale>
<asrwt>0</asrwt>
<pdfrwt beam="1">  1       21 0.22240924E-02 0.49785367E+01</pdfrwt>
<pdfrwt beam="2">  1       21 0.51442147E-03 0.49785367E+01</pdfrwt>
<totfact> 0.21511155E+09</totfact>
</mgrwt>
</event>
<event>
 4    1  0.4144004E+006  0.6053768E+01  0.7546771E-02  0.2408478E+00
         21   -1    0    0  503  502  0.00000000000E+00  0.00000000000E+00  0.17381389936E+00  0.17381389936E+00  0.00000000000E+00 0. -1.
         21   -1    0    0  501  503 -0.00000000000E+00 -0.00000000000E+00 -0.43918512135E+03  0.43918512135E+03  0.00000000000E+00 0.  1.
          5    1    1    2  501    0  0.30087440071E+01  0.23463947537E+01 -0.37790560226E+03  0.37795408760E+03  0.47000000000E+01 0.  1.
         -5    1    1    2    0  502 -0.30087440071E+01 -0.23463947537E+01 -0.61105705187E+02  0.61404847652E+02  0.47000000000E+01 0. -1.
<mgrwt>
<rscale>  2 0.60537682E+01</rscale>
<asrwt>0</asrwt>
<pdfrwt beam="1">  1       21 0.26740916E-04 0.60537682E+01</pdfrwt>
<pdfrwt beam="2">  1       21 0.67566142E-01 0.60537682E+01</pdfrwt>
<totfact> 0.61852948E+08</totfact>
</mgrwt>
</event>
<event>
 4    1  0.4144004E+006  0.5862049E+01  0.7546771E-02  0.2433731E+00
         21   -1    0    0  503  502  0.00000000000E+00  0.00000000000E+00  0.31208429806E+01  0.31208429806E+01  0.00000000000E+00 0.  1.
         21   -1    0    0  501  503 -0.00000000000E+00 -0.00000000000E+00 -0.11240689199E+02  0.11240689199E+02  0.00000000000E+00 0.  1.
          5    1    1    2  501    0 -0.28548256618E+01  0.20306627273E+01 -0.50863758491E+01  0.77611107420E+01  0.47000000000E+01 0.  1.
         -5    1    1    2    0  502  0.28548256618E+01 -0.20306627273E+01 -0.30334703693E+01  0.66004214375E+01  0.47000000000E+01 0.  1.
<mgrwt>
<rscale>  2 0.58620492E+01</rscale>
<asrwt>0</asrwt>
<pdfrwt beam="1">  1       21 0.48012969E-03 0.58620492E+01</pdfrwt>
<pdfrwt beam="2">  1       21 0.17293368E-02 0.58620492E+01</pdfrwt>
<totfact> 0.39622415E+09</totfact>
</mgrwt>
</event>
<event>
 4    1  0.4144004E+006  0.5345048E+01  0.7546771E-02  0.2509357E+00
         21   -1    0    0  501  502  0.00000000000E+00  0.00000000000E+00  0.81792237252E+02  0.81792237252E+02  0.00000000000E+00 0. -1.
         21   -1    0    0  502  503 -0.00000000000E+00 -0.00000000000E+00 -0.10404978217E+01  0.10404978217E+01  0.00000000000E+00 0. -1.
          5    1    1    2  501    0 -0.21395335913E+01  0.13791075780E+01  0.74132140995E+02  0.74324584561E+02  0.47000000000E+01 0. -1.
         -5    1    1    2    0  503  0.21395335913E+01 -0.13791075780E+01  0.66195984354E+01  0.85081505127E+01  0.47000000000E+01 0. -1.
<mgrwt>
<rscale>  2 0.53450483E+01</rscale>
<asrwt>0</asrwt>
<pdfrwt beam="1">  1       21 0.12583416E-01 0.53450483E+01</pdfrwt>
<pdfrwt beam="2">  1       21 0.16007665E-03 0.53450483E+01</pdfrwt>
<totfact> 0.87473210E+08</totfact>
</mgrwt>
</event>
<event>
 4    1  0.4144004E+006  0.4851439E+01  0.7546771E-02  0.2594203E+00
         21   -1    0    0  503  502  0.00000000000E+00  0.00000000000E+00  0.11148955782E+00  0.11148955782E+00  0.00000000000E+00 0. -1.
         21   -1    0    0  501  503 -0.00000000000E+00 -0.00000000000E+00 -0.25391907482E+03  0.25391907482E+03  0.00000000000E+00 0. -1.
          5    1    1    2  501    0  0.90796676386E+00  0.78870390481E+00 -0.74750597094E+02  0.74907864897E+02  0.47000000000E+01 0. -1.
         -5    1    1    2    0  502 -0.90796676386E+00 -0.78870390481E+00 -0.17905698816E+03  0.17912269948E+03  0.47000000000E+01 0. -1.
<mgrwt>
<rscale>  2 0.48514387E+01</rscale>
<asrwt>0</asrwt>
<pdfrwt beam="1">  1       21 0.17152392E-04 0.48514387E+01</pdfrwt>
<pdfrwt beam="2">  1       21 0.39064126E-01 0.48514387E+01</pdfrwt>
<totfact> 0.24998429E+09</totfact>
</mgrwt>
</event>
<event>
 4    1  0.4144004E+006  0.8431521E+01  0.7546771E-02  0.2177048E+00
         21   -1    0    0  503  502  0.00000000000E+00  0.00000000000E+00  0.36982810709E+00  0.36982810709E+00  0.00000000000E+00 0. -1.
         21   -1    0    0  501  503 -0.00000000000E+00 -0.00000000000E+00 -0.36429872696E+03  0.36429872696E+03  0.00000000000E+00 0.  1.
          5    1    1    2  501    0  0.57751597161E+01 -0.39557652177E+01 -0.30727730169E+03  0.30739295808E+03  0.47000000000E+01 0.  1.
         -5    1    1    2    0  502 -0.57751597161E+01  0.39557652177E+01 -0.56651597164E+02  0.57275596980E+02  0.47000000000E+01 0. -1.
<mgrwt>
<rscale>  2 0.84315211E+01</rscale>
<asrwt>0</asrwt>
<pdfrwt beam="1">  1       21 0.56896575E-04 0.84315211E+01</pdfrwt>
<pdfrwt beam="2">  1       21 0.56046014E-01 0.84315211E+01</pdfrwt>
<totfact> 0.38942371E+08</totfact>
</mgrwt>
</event>
<event>
 4    1  0.4144004E+006  0.5733779E+01  0.7546771E-02  0.2451416E+00
         21   -1    0    0  501  502  0.00000000000E+00  0.00000000000E+00  0.12775356487E+00  0.12775356487E+00  0.00000000000E+00 0. -1.
         21   -1    0    0  502  503 -0.00000000000E+00 -0.00000000000E+00 -0.34416259113E+03  0.34416259113E+03  0.00000000000E+00 0. -1.
          5    1    1    2  501    0 -0.60465946906E+00  0.32280958962E+01 -0.85555043980E+02  0.85746963600E+02  0.47000000000E+01 0. -1.
         -5    1    1    2    0  503  0.60465946906E+00 -0.32280958962E+01 -0.25847979358E+03  0.25854338109E+03  0.47000000000E+01 0. -1.
<mgrwt>
<rscale>  2 0.57337785E+01</rscale>
<asrwt>0</asrwt>
<pdfrwt beam="1">  1       21 0.19654425E-04 0.57337785E+01</pdfrwt>
<pdfrwt beam="2">  1       21 0.52948010E-01 0.57337785E+01</pdfrwt>
<totfact> 0.14070940E+09</totfact>
</mgrwt>
</event>
<event>
 4    1  0.4144004E+006  0.4906830E+01  0.7546771E-02  0.2583952E+00
         21   -1    0    0  501  502  0.00000000000E+00  0.00000000000E+00  0.51082500882E+00  0.51082500882E+00  0.00000000000E+00 0. -1.
         21   -1    0    0  502  503 -0.00000000000E+00 -0.00000000000E+00 -0.12573331123E+03  0.12573331123E+03  0.00000000000E+00 0.  1.
          5    1    1    2  501    0 -0.11470051116E+01 -0.81936490531E+00 -0.12703636197E+02  0.13618346163E+02  0.47000000000E+01 0. -1.
         -5    1    1    2    0  503  0.11470051116E+01  0.81936490531E+00 -0.11251885003E+03  0.11262579008E+03  0.47000000000E+01 0.  1.
<mgrwt>
<rscale>  2 0.49068299E+01</rscale>
<asrwt>0</asrwt>
<pdfrwt beam="1">  1       21 0.78588368E-04 0.49068299E+01</pdfrwt>
<pdfrwt beam="2">  1       21 0.19343610E-01 0.49068299E+01</pdfrwt>
<totfact> 0.10689066E+09</totfact>
</mgrwt>
</event>
<event>
 4    1  0.4144004E+006  0.8784415E+01  0.7546771E-02  0.2151578E+00
         21   -1    0    0  501  502  0.00000000000E+00  0.00000000000E+00  0.10919605642E+02  0.10919605642E+02  0.00000000000E+00 0.  1.
         21   -1    0    0  502  503 -0.00000000000E+00 -0.00000000000E+00 -0.41253243382E+02  0.41253243382E+02  0.00000000000E+00 0. -1.
          5    1    1    2  501    0  0.17565391795E+01 -0.72104454501E+01  0.85804070895E+01  0.12279631073E+02  0.47000000000E+01 0.  1.
         -5    1    1    2    0  503 -0.17565391795E+01  0.72104454501E+01 -0.38914044830E+02  0.39893217951E+02  0.47000000000E+01 0. -1.
<mgrwt>
<rscale>  2 0.87844154E+01</rscale>
<asrwt>0</asrwt>
<pdfrwt beam="1">  1       21 0.16799393E-02 0.87844154E+01</pdfrwt>
<pdfrwt beam="2">  1       21 0.63466528E-02 0.87844154E+01</pdfrwt>
<totfact> 0.12992530E+08</totfact>
</mgrwt>
</event>
<event>
 4    1  0.4144004E+006  0.1143247E+02  0.7546771E-02  0.2001595E+00
         21   -1    0    0  501  502  0.00000000000E+00  0.00000000000E+00  0.37879127780E+03  0.37879127780E+03  0.00000000000E+00 0. -1.
         21   -1    0    0  502  503 -0.00000000000E+00 -0.00000000000E+00 -0.34514205766E+00  0.34514205766E+00  0.00000000000E+00 0.  1.
          5    1    1    2  501    0 -0.10407860153E+02  0.53648063916E+00  0.19234406000E+03  0.19268351974E+03  0.47000000000E+01 0. -1.
         -5    1    1    2    0  503  0.10407860153E+02 -0.53648063916E+00  0.18610207575E+03  0.18645290012E+03  0.47000000000E+01 0.  1.
<mgrwt>
<rscale>  2 0.11432470E+02</rscale>
<asrwt>0</asrwt>
<pdfrwt beam="1">  1       21 0.58275249E-01 0.11432470E+02</pdfrwt>
<pdfrwt beam="2">  1       21 0.53099081E-04 0.11432470E+02</pdfrwt>
<totfact> 0.46168724E+08</totfact>
</mgrwt>
</event>
<event>
 4    1  0.4144004E+006  0.5515281E+01  0.7546771E-02  0.2483131E+00
         21   -1    0    0  501  502  0.00000000000E+00  0.00000000000E+00  0.50270562636E+01  0.50270562636E+01  0.00000000000E+00 0.  1.
         21   -1    0    0  502  503 -0.00000000000E+00 -0.00000000000E+00 -0.62975713911E+01  0.62975713911E+01  0.00000000000E+00 0. -1.
          5    1    1    2  501    0 -0.25519887456E+01 -0.13474703291E+01  0.48533528627E+00  0.55365940059E+01  0.47000000000E+01 0.  1.
         -5    1    1    2    0  503  0.25519887456E+01  0.13474703291E+01 -0.17558504138E+01  0.57880336489E+01  0.47000000000E+01 0. -1.
<mgrwt>
<rscale>  2 0.55152808E+01</rscale>
<asrwt>0</asrwt>
<pdfrwt beam="1">  1       21 0.77339327E-03 0.55152808E+01</pdfrwt>
<pdfrwt beam="2">  1       21 0.96885713E-03 0.55152808E+01</pdfrwt>
<totfact> 0.43783597E+09</totfact>
</mgrwt>
</event>
<event>
 4    1  0.4144004E+006  0.7996996E+01  0.7546771E-02  0.2210858E+00
         21   -1    0    0  501  502  0.00000000000E+00  0.00000000000E+00  0.21711769736E+02  0.21711769736E+02  0.00000000000E+00 0. -1.
         21   -1    0    0  502  503 -0.00000000000E+00 -0.00000000000E+00 -0.48968989912E+01  0.48968989912E+01  0.00000000000E+00 0.  1.
          5    1    1    2  501    0  0.51847946796E+01 -0.38703807639E+01  0.16806017987E+02  0.18611667945E+02  0.47000000000E+01 0. -1.
         -5    1    1    2    0  503 -0.51847946796E+01  0.38703807639E+01  0.88527573514E-02  0.79970007815E+01  0.47000000000E+01 0.  1.
<mgrwt>
<rscale>  2 0.79969959E+01</rscale>
<asrwt>0</asrwt>
<pdfrwt beam="1">  1       21 0.33402722E-02 0.79969959E+01</pdfrwt>
<pdfrwt beam="2">  1       21 0.75336909E-03 0.79969959E+01</pdfrwt>
<totfact> 0.10309179E+09</totfact>
</mgrwt>
</event>
<event>
 4    1  0.4144004E+006  0.9227418E+01  0.7546771E-02  0.2121821E+00
         21   -1    0    0  501  502  0.00000000000E+00  0.00000000000E+00  0.14911684787E+03  0.14911684787E+03  0.00000000000E+00 0. -1.
         21   -1    0    0  502  503 -0.00000000000E+00 -0.00000000000E+00 -0.76175937038E+00  0.76175937038E+00  0.00000000000E+00 0.  1.
          5    1    1    2  501    0 -0.25078146466E+01 -0.75343288019E+01  0.11167893028E+03  0.11205948738E+03  0.47000000000E+01 0. -1.
         -5    1    1    2    0  503  0.25078146466E+01  0.75343288019E+01  0.36676158225E+02  0.37819119859E+02  0.47000000000E+01 0.  1.
<mgrwt>
<rscale>  2 0.92274181E+01</rscale>
<asrwt>0</asrwt>
<pdfrwt beam="1">  1       21 0.22941030E-01 0.92274181E+01</pdfrwt>
<pdfrwt beam="2">  1       21 0.11719387E-03 0.92274181E+01</pdfrwt>
<totfact> 0.74149085E+08</totfact>
</mgrwt>
</event>
<event>
 4    1  0.4144004E+006  0.5985384E+01  0.7546771E-02  0.2417330E+00
         21   -1    0    0  503  502  0.00000000000E+00  0.00000000000E+00  0.17221182468E+00  0.17221182468E+00  0.00000000000E+00 0. -1.
         21   -1    0    0  501  503 -0.00000000000E+00 -0.00000000000E+00 -0.79925739643E+03  0.79925739643E+03  0.00000000000E+00 0. -1.
          5    1    1    2  501    0 -0.29120556040E+01 -0.22923258998E+01 -0.74332609304E+03  0.74335019030E+03  0.47000000000E+01 0. -1.
         -5    1    1    2    0  502  0.29120556040E+01  0.22923258998E+01 -0.55759091561E+02  0.56079417950E+02  0.47000000000E+01 0. -1.
<mgrwt>
<rscale>  2 0.59853844E+01</rscale>
<asrwt>0</asrwt>
<pdfrwt beam="1">  1       21 0.26494794E-04 0.59853844E+01</pdfrwt>
<pdfrwt beam="2">  1       21 0.12295958E+00 0.59853844E+01</pdfrwt>
<totfact> 0.18871369E+08</totfact>
</mgrwt>
</event>
<event>
 4    1  0.4144004E+006  0.5707341E+01  0.7546771E-02  0.2455144E+00
         21   -1    0    0  501  502  0.00000000000E+00  0.00000000000E+00  0.11919098733E+03  0.11919098733E+03  0.00000000000E+00 0. -1.
         21   -1    0    0  502  503 -0.00000000000E+00 -0.00000000000E+00 -0.29261746152E+00  0.29261746152E+00  0.00000000000E+00 0. -1.
          5    1    1    2  501    0 -0.55855506871E+00 -0.31893198618E+01  0.74802842078E+02  0.75020256784E+02  0.47000000000E+01 0. -1.
         -5    1    1    2    0  503  0.55855506871E+00  0.31893198618E+01  0.44095527794E+02  0.44463348012E+02  0.47000000000E+01 0. -1.
<mgrwt>
<rscale>  2 0.57073413E+01</rscale>
<asrwt>0</asrwt>
<pdfrwt beam="1">  1       21 0.18337036E-01 0.57073413E+01</pdfrwt>
<pdfrwt beam="2">  1       21 0.45018166E-04 0.57073413E+01</pdfrwt>
<totfact> 0.27921303E+09</totfact>
</mgrwt>
</event>
<event>
 4    1  0.4144004E+006  0.6069691E+01  0.7546771E-02  0.2406441E+00
         21   -1    0    0  501  502  0.00000000000E+00  0.00000000000E+00  0.18551557011E+02  0.18551557011E+02  0.00000000000E+00 0. -1.
         21   -1    0    0  502  503 -0.00000000000E+00 -0.00000000000E+00 -0.21937132766E+01  0.21937132766E+01  0.00000000000E+00 0. -1.
          5    1    1    2  501    0 -0.13092787675E+01  0.36106702769E+01  0.11371617910E+02  0.12890106463E+02  0.47000000000E+01 0. -1.
         -5    1    1    2    0  503  0.13092787675E+01 -0.36106702769E+01  0.49862258250E+01  0.78551638250E+01  0.47000000000E+01 0. -1.
<mgrwt>
<rscale>  2 0.60696912E+01</rscale>
<asrwt>0</asrwt>
<pdfrwt beam="1">  1       21 0.28540856E-02 0.60696912E+01</pdfrwt>
<pdfrwt beam="2">  1       21 0.33749436E-03 0.60696912E+01</pdfrwt>
<totfact> 0.32339498E+09</totfact>
</mgrwt>
</event>
<event>
 4    1  0.4144004E+006  0.6108448E+01  0.7546771E-02  0.2401519E+00
         21   -1    0    0  503  502  0.00000000000E+00  0.00000000000E+00  0.13270702012E+02  0.13270702012E+02  0.00000000000E+00 0.  1.
         21   -1    0    0  501  503 -0.00000000000E+00 -0.00000000000E+00 -0.99243008265E+01  0.99243008265E+01  0.00000000000E+00 0.  1.
          5    1    1    2  501    0 -0.36716736959E+01 -0.13198314258E+01 -0.81449321499E+01  0.10181014804E+02  0.47000000000E+01 0.  1.
         -5    1    1    2    0  502  0.36716736959E+01  0.13198314258E+01  0.11491333335E+02  0.13013988034E+02  0.47000000000E+01 0.  1.
<mgrwt>
<rscale>  2 0.61084485E+01</rscale>
<asrwt>0</asrwt>
<pdfrwt beam="1">  1       21 0.20416465E-02 0.61084485E+01</pdfrwt>
<pdfrwt beam="2">  1       21 0.15268155E-02 0.61084485E+01</pdfrwt>
<totfact> 0.63577854E+08</totfact>
</mgrwt>
</event>
<event>
 4    1  0.4144004E+006  0.5168482E+01  0.7546771E-02  0.2538106E+00
         21   -1    0    0  501  502  0.00000000000E+00  0.00000000000E+00  0.87238303314E+01  0.87238303314E+01  0.00000000000E+00 0.  1.
         21   -1    0    0  502  503 -0.00000000000E+00 -0.00000000000E+00 -0.10090197567E+02  0.10090197567E+02  0.00000000000E+00 0.  1.
          5    1    1    2  501    0  0.64370224760E+00 -0.20515491280E+01  0.71677438680E+01  0.88368409834E+01  0.47000000000E+01 0.  1.
         -5    1    1    2    0  503 -0.64370224760E+00  0.20515491280E+01 -0.85341111035E+01  0.99771869149E+01  0.47000000000E+01 0.  1.
<mgrwt>
<rscale>  2 0.51684820E+01</rscale>
<asrwt>0</asrwt>
<pdfrwt beam="1">  1       21 0.13421277E-02 0.51684820E+01</pdfrwt>
<pdfrwt beam="2">  1       21 0.15523381E-02 0.51684820E+01</pdfrwt>
<totfact> 0.97889276E+08</totfact>
</mgrwt>
</event>
<event>
 4    1  0.4144004E+006  0.5138314E+01  0.7546771E-02  0.2543187E+00
         21   -1    0    0  503  502  0.00000000000E+00  0.00000000000E+00  0.44242760358E+03  0.44242760358E+03  0.00000000000E+00 0.  1.
         21   -1    0    0  501  503 -0.00000000000E+00 -0.00000000000E+00 -0.65690367371E-01  0.65690367371E-01  0.00000000000E+00 0.  1.
          5    1    1    2  501    0 -0.20377463359E+01 -0.39982070376E+00  0.15423500287E+03  0.15432057016E+03  0.47000000000E+01 0. -1.
         -5    1    1    2    0  502  0.20377463359E+01  0.39982070376E+00  0.28812691034E+03  0.28817272378E+03  0.47000000000E+01 0. -1.
<mgrwt>
<rscale>  2 0.51383136E+01</rscale>
<asrwt>0</asrwt>
<pdfrwt beam="1">  1       21 0.68063399E-01 0.51383136E+01</pdfrwt>
<pdfrwt beam="2">  1       21 0.10106565E-04 0.51383136E+01</pdfrwt>
<totfact> 0.19640677E+09</totfact>
</mgrwt>
</event>
<event>
 4    1  0.4144004E+006  0.6940077E+01  0.7546771E-02  0.2307078E+00
         21   -1    0    0  503  502  0.00000000000E+00  0.00000000000E+00  0.77840621547E+02  0.77840621547E+02  0.00000000000E+00 0. -1.
         21   -1    0    0  501  503 -0.00000000000E+00 -0.00000000000E+00 -0.66993101858E+00  0.66993101858E+00  0.00000000000E+00 0. -1.
          5    1    1    2  501    0 -0.50877346457E+01  0.43546624861E+00  0.27736228366E+02  0.28591310545E+02  0.47000000000E+01 0. -1.
         -5    1    1    2    0  502  0.50877346457E+01 -0.43546624861E+00  0.49434462162E+02  0.49919242021E+02  0.47000000000E+01 0. -1.
<mgrwt>
<rscale>  2 0.69400774E+01</rscale>
<asrwt>0</asrwt>
<pdfrwt beam="1">  1       21 0.11975473E-01 0.69400774E+01</pdfrwt>
<pdfrwt beam="2">  1       21 0.10306637E-03 0.69400774E+01</pdfrwt>
<totfact> 0.21086470E+09</totfact>
</mgrwt>
</event>
<event>
 4    1  0.4144004E+006  0.5100837E+01  0.7546771E-02  0.2549570E+00
         21   -1    0    0  503  502  0.00000000000E+00  0.00000000000E+00  0.23043941414E+01  0.23043941414E+01  0.00000000000E+00 0. -1.
         21   -1    0    0  501  503 -0.00000000000E+00 -0.00000000000E+00 -0.69874506235E+02  0.69874506235E+02  0.00000000000E+00 0. -1.
          5    1    1    2  501    0  0.75459392242E+00  0.18327931410E+01 -0.66830315633E+02  0.67024694183E+02  0.47000000000E+01 0. -1.
         -5    1    1    2    0  502 -0.75459392242E+00 -0.18327931410E+01 -0.73979646078E+00  0.51542061939E+01  0.47000000000E+01 0. -1.
<mgrwt>
<rscale>  2 0.51008374E+01</rscale>
<asrwt>0</asrwt>
<pdfrwt beam="1">  1       21 0.35452225E-03 0.51008374E+01</pdfrwt>
<pdfrwt beam="2">  1       21 0.10749922E-01 0.51008374E+01</pdfrwt>
<totfact> 0.36432643E+08</totfact>
</mgrwt>
</event>
<event>
 4    1  0.4144004E+006  0.4938786E+01  0.7546771E-02  0.2578129E+00
         21   -1    0    0  503  502  0.00000000000E+00  0.00000000000E+00  0.82431213880E+00  0.82431213880E+00  0.00000000000E+00 0.  1.
         21   -1    0    0  501  503 -0.00000000000E+00 -0.00000000000E+00 -0.76312562970E+02  0.76312562970E+02  0.00000000000E+00 0.  1.
          5    1    1    2  501    0 -0.73648354159E+00  0.13263481682E+01 -0.67922522139E+02  0.68101840072E+02  0.47000000000E+01 0.  1.
         -5    1    1    2    0  502  0.73648354159E+00 -0.13263481682E+01 -0.75657286916E+01  0.90350350362E+01  0.47000000000E+01 0.  1.
<mgrwt>
<rscale>  2 0.49387860E+01</rscale>
<asrwt>0</asrwt>
<pdfrwt beam="1">  1       21 0.12681723E-03 0.49387860E+01</pdfrwt>
<pdfrwt beam="2">  1       21 0.11740396E-01 0.49387860E+01</pdfrwt>
<totfact> 0.12371671E+09</totfact>
</mgrwt>
</event>
<event>
 4    1  0.4144004E+006  0.5219007E+01  0.7546771E-02  0.2529710E+00
         21   -1    0    0  503  502  0.00000000000E+00  0.00000000000E+00  0.60172260156E+02  0.60172260156E+02  0.00000000000E+00 0.  1.
         21   -1    0    0  501  503 -0.00000000000E+00 -0.00000000000E+00 -0.65143685162E+00  0.65143685162E+00  0.00000000000E+00 0.  1.
          5    1    1    2  501    0 -0.20986193507E+01 -0.86245469345E+00  0.12961494739E+02  0.13972772708E+02  0.47000000000E+01 0.  1.
         -5    1    1    2    0  502  0.20986193507E+01  0.86245469345E+00  0.46559328566E+02  0.46850924300E+02  0.47000000000E+01 0.  1.
<mgrwt>
<rscale>  2 0.52190067E+01</rscale>
<asrwt>0</asrwt>
<pdfrwt beam="1">  1       21 0.92572664E-02 0.52190067E+01</pdfrwt>
<pdfrwt beam="2">  1       21 0.10022110E-03 0.52190067E+01</pdfrwt>
<totfact> 0.25594533E+09</totfact>
</mgrwt>
</event>
<event>
 4    1  0.4144004E+006  0.6503295E+01  0.7546771E-02  0.2354186E+00
         21   -1    0    0  501  502  0.00000000000E+00  0.00000000000E+00  0.89699202551E+01  0.89699202551E+01  0.00000000000E+00 0.  1.
         21   -1    0    0  502  503 -0.00000000000E+00 -0.00000000000E+00 -0.52437885763E+01  0.52437885763E+01  0.00000000000E+00 0. -1.
          5    1    1    2  501    0 -0.26628709996E+01  0.36210450457E+01  0.41199576184E+01  0.76984998513E+01  0.47000000000E+01 0.  1.
         -5    1    1    2    0  503  0.26628709996E+01 -0.36210450457E+01 -0.39382593960E+00  0.65152089801E+01  0.47000000000E+01 0. -1.
<mgrwt>
<rscale>  2 0.65032953E+01</rscale>
<asrwt>0</asrwt>
<pdfrwt beam="1">  1       21 0.13799877E-02 0.65032953E+01</pdfrwt>
<pdfrwt beam="2">  1       21 0.80673671E-03 0.65032953E+01</pdfrwt>
<totfact> 0.29017796E+09</totfact>
</mgrwt>
</event>
<event>
 4    1  0.4144004E+006  0.4858201E+01  0.7546771E-02  0.2592941E+00
         21   -1    0    0  503  502  0.00000000000E+00  0.00000000000E+00  0.24327158455E+02  0.24327158455E+02  0.00000000000E+00 0. -1.
         21   -1    0    0  501  503 -0.00000000000E+00 -0.00000000000E+00 -0.37500307915E+01  0.37500307915E+01  0.00000000000E+00 0. -1.
          5    1    1    2  501    0 -0.51261580564E+00  0.11177391441E+01 -0.17983575458E+01  0.51803673249E+01  0.47000000000E+01 0. -1.
         -5    1    1    2    0  502  0.51261580564E+00 -0.11177391441E+01  0.22375485209E+02  0.22896821922E+02  0.47000000000E+01 0. -1.
<mgrwt>
<rscale>  2 0.48582009E+01</rscale>
<asrwt>0</asrwt>
<pdfrwt beam="1">  1       21 0.37426397E-02 0.48582009E+01</pdfrwt>
<pdfrwt beam="2">  1       21 0.57692783E-03 0.48582009E+01</pdfrwt>
<totfact> 0.85155548E+08</totfact>
</mgrwt>
</event>
<event>
 4    1  0.4144004E+006  0.4805086E+01  0.7546771E-02  0.2602938E+00
         21   -1    0    0  501  502  0.00000000000E+00  0.00000000000E+00  0.58320832952E+02  0.58320832952E+02  0.00000000000E+00 0. -1.
         21   -1    0    0  502  503 -0.00000000000E+00 -0.00000000000E+00 -0.12719088663E+01  0.12719088663E+01  0.00000000000E+00 0. -1.
          5    1    1    2  501    0  0.73671057887E+00  0.67535813108E+00  0.53252586839E+02  0.53468933561E+02  0.47000000000E+01 0. -1.
         -5    1    1    2    0  503 -0.73671057887E+00 -0.67535813108E+00  0.37963372463E+01  0.61238082571E+01  0.47000000000E+01 0. -1.
<mgrwt>
<rscale>  2 0.48050860E+01</rscale>
<asrwt>0</asrwt>
<pdfrwt beam="1">  1       21 0.89724337E-02 0.48050860E+01</pdfrwt>
<pdfrwt beam="2">  1       21 0.19567833E-03 0.48050860E+01</pdfrwt>
<totfact> 0.10138547E+09</totfact>
</mgrwt>
</event>
<event>
 4    1  0.4144004E+006  0.5684525E+01  0.7546771E-02  0.2458385E+00
         21   -1    0    0  503  502  0.00000000000E+00  0.00000000000E+00  0.32241141161E+00  0.32241141161E+00  0.00000000000E+00 0. -1.
         21   -1    0    0  501  503 -0.00000000000E+00 -0.00000000000E+00 -0.12488978151E+03  0.12488978151E+03  0.00000000000E+00 0. -1.
          5    1    1    2  501    0 -0.30424544858E+01  0.98351160615E+00 -0.90105660864E+02  0.90284793537E+02  0.47000000000E+01 0. -1.
         -5    1    1    2    0  502  0.30424544858E+01 -0.98351160615E+00 -0.34461709233E+02  0.34927399383E+02  0.47000000000E+01 0. -1.
<mgrwt>
<rscale>  2 0.56845250E+01</rscale>
<asrwt>0</asrwt>
<pdfrwt beam="1">  1       21 0.49601787E-04 0.56845250E+01</pdfrwt>
<pdfrwt beam="2">  1       21 0.19213801E-01 0.56845250E+01</pdfrwt>
<totfact> 0.22690904E+09</totfact>
</mgrwt>
</event>
<event>
 4    1  0.4144004E+006  0.9403982E+01  0.7546771E-02  0.2110584E+00
         21   -1    0    0  501  502  0.00000000000E+00  0.00000000000E+00  0.13987333360E+02  0.13987333360E+02  0.00000000000E+00 0. -1.
         21   -1    0    0  502  503 -0.00000000000E+00 -0.00000000000E+00 -0.75521603557E+01  0.75521603557E+01  0.00000000000E+00 0.  1.
          5    1    1    2  501    0  0.77215843154E+01  0.25926835287E+01  0.75633193228E+01  0.12068084827E+02  0.47000000000E+01 0. -1.
         -5    1    1    2    0  503 -0.77215843154E+01 -0.25926835287E+01 -0.11281463184E+01  0.94714088886E+01  0.47000000000E+01 0.  1.
<mgrwt>
<rscale>  2 0.94039817E+01</rscale>
<asrwt>0</asrwt>
<pdfrwt beam="1">  1       21 0.21518974E-02 0.94039817E+01</pdfrwt>
<pdfrwt beam="2">  1       21 0.11618708E-02 0.94039817E+01</pdfrwt>
<totfact> 0.11775234E+09</totfact>
</mgrwt>
</event>
<event>
 4    1  0.4144004E+006  0.5327112E+01  0.7546771E-02  0.2512203E+00
         21   -1    0    0  501  502  0.00000000000E+00  0.00000000000E+00  0.11367035514E+03  0.11367035514E+03  0.00000000000E+00 0. -1.
         21   -1    0    0  502  503 -0.00000000000E+00 -0.00000000000E+00 -0.30806604265E+00  0.30806604265E+00  0.00000000000E+00 0. -1.
          5    1    1    2  501    0  0.23300475725E+01 -0.92682567080E+00  0.81496826712E+02  0.81670746854E+02  0.47000000000E+01 0. -1.
         -5    1    1    2    0  503 -0.23300475725E+01  0.92682567080E+00  0.31865462385E+02  0.32307674329E+02  0.47000000000E+01 0. -1.
<mgrwt>
<rscale>  2 0.53271125E+01</rscale>
<asrwt>0</asrwt>
<pdfrwt beam="1">  1       21 0.17487713E-01 0.53271125E+01</pdfrwt>
<pdfrwt beam="2">  1       21 0.47394866E-04 0.53271125E+01</pdfrwt>
<totfact> 0.26451022E+09</totfact>
</mgrwt>
</event>
<event>
 4    1  0.4144004E+006  0.4933554E+01  0.7546771E-02  0.2579078E+00
         21   -1    0    0  503  502  0.00000000000E+00  0.00000000000E+00  0.22524813120E+02  0.22524813120E+02  0.00000000000E+00 0.  1.
         21   -1    0    0  501  503 -0.00000000000E+00 -0.00000000000E+00 -0.17521912210E+01  0.17521912210E+01  0.00000000000E+00 0.  1.
          5    1    1    2  501    0 -0.14429429445E+01 -0.40972437895E+00  0.28712597066E+01  0.57082476042E+01  0.47000000000E+01 0.  1.
         -5    1    1    2    0  502  0.14429429445E+01  0.40972437895E+00  0.17901362193E+02  0.18568756737E+02  0.47000000000E+01 0.  1.
<mgrwt>
<rscale>  2 0.49335543E+01</rscale>
<asrwt>0</asrwt>
<pdfrwt beam="1">  1       21 0.34653557E-02 0.49335543E+01</pdfrwt>
<pdfrwt beam="2">  1       21 0.26956790E-03 0.49335543E+01</pdfrwt>
<totfact> 0.27279749E+09</totfact>
</mgrwt>
</event>
<event>
 4    1  0.4144004E+006  0.5069319E+01  0.7546771E-02  0.2555002E+00
         21   -1    0    0  501  502  0.00000000000E+00  0.00000000000E+00  0.10655117780E+01  0.10655117780E+01  0.00000000000E+00 0. -1.
         21   -1    0    0  502  503 -0.00000000000E+00 -0.00000000000E+00 -0.39321342120E+02  0.39321342120E+02  0.00000000000E+00 0. -1.
          5    1    1    2  501    0 -0.15356852538E+01  0.11178863283E+01 -0.65715024152E+01  0.82995567975E+01  0.47000000000E+01 0. -1.
         -5    1    1    2    0  503  0.15356852538E+01 -0.11178863283E+01 -0.31684327927E+02  0.32087297100E+02  0.47000000000E+01 0. -1.
<mgrwt>
<rscale>  2 0.50693194E+01</rscale>
<asrwt>0</asrwt>
<pdfrwt beam="1">  1       21 0.16392492E-03 0.50693194E+01</pdfrwt>
<pdfrwt beam="2">  1       21 0.60494361E-02 0.50693194E+01</pdfrwt>
<totfact> 0.24326729E+09</totfact>
</mgrwt>
</event>
<event>
 4    1  0.4144004E+006  0.7017735E+01  0.7546771E-02  0.2299210E+00
         21   -1    0    0  503  502  0.00000000000E+00  0.00000000000E+00  0.33847865616E+00  0.33847865616E+00  0.00000000000E+00 0. -1.
         21   -1    0    0  501  503 -0.00000000000E+00 -0.00000000000E+00 -0.23985579984E+03  0.23985579984E+03  0.00000000000E+00 0.  1.
          5    1    1    2  501    0 -0.20861966544E+01 -0.47756029916E+01 -0.19508418261E+03  0.19521036577E+03  0.47000000000E+01 0. -1.
         -5    1    1    2    0  502  0.20861966544E+01  0.47756029916E+01 -0.44433138577E+02  0.44983912727E+02  0.47000000000E+01 0.  1.
<mgrwt>
<rscale>  2 0.70177347E+01</rscale>
<asrwt>0</asrwt>
<pdfrwt beam="1">  1       21 0.52073882E-04 0.70177347E+01</pdfrwt>
<pdfrwt beam="2">  1       21 0.36900720E-01 0.70177347E+01</pdfrwt>
<totfact> 0.83774964E+08</totfact>
</mgrwt>
</event>
<event>
 4    1  0.4144004E+006  0.6554826E+01  0.7546771E-02  0.2348360E+00
         21   -1    0    0  503  502  0.00000000000E+00  0.00000000000E+00  0.26655319261E+00  0.26655319261E+00  0.00000000000E+00 0.  1.
         21   -1    0    0  501  503 -0.00000000000E+00 -0.00000000000E+00 -0.17703424881E+03  0.17703424881E+03  0.00000000000E+00 0.  1.
          5    1    1    2  501    0  0.42036427842E+01 -0.17902872117E+01 -0.61863070558E+02  0.62209366174E+02  0.47000000000E+01 0.  1.
         -5    1    1    2    0  502 -0.42036427842E+01  0.17902872117E+01 -0.11490462506E+03  0.11509143583E+03  0.47000000000E+01 0.  1.
<mgrwt>
<rscale>  2 0.65548258E+01</rscale>
<asrwt>0</asrwt>
<pdfrwt beam="1">  1       21 0.41007994E-04 0.65548258E+01</pdfrwt>
<pdfrwt beam="2">  1       21 0.27236164E-01 0.65548258E+01</pdfrwt>
<totfact> 0.18509522E+09</totfact>
</mgrwt>
</event>
<event>
 4    1  0.4144004E+006  0.5169880E+01  0.7546771E-02  0.2537872E+00
         21   -1    0    0  501  502  0.00000000000E+00  0.00000000000E+00  0.10733715664E+02  0.10733715664E+02  0.00000000000E+00 0.  1.
         21   -1    0    0  502  503 -0.00000000000E+00 -0.00000000000E+00 -0.75283709471E+01  0.75283709471E+01  0.00000000000E+00 0.  1.
          5    1    1    2  501    0 -0.10247577888E+01  0.18940781348E+01  0.90725265064E+01  0.10442145264E+02  0.47000000000E+01 0.  1.
         -5    1    1    2    0  503  0.10247577888E+01 -0.18940781348E+01 -0.58671817901E+01  0.78199413466E+01  0.47000000000E+01 0.  1.
<mgrwt>
<rscale>  2 0.51698801E+01</rscale>
<asrwt>0</asrwt>
<pdfrwt beam="1">  1       21 0.16513409E-02 0.51698801E+01</pdfrwt>
<pdfrwt beam="2">  1       21 0.11582109E-02 0.51698801E+01</pdfrwt>
<totfact> 0.11036032E+09</totfact>
</mgrwt>
</event>
<event>
 4    1  0.4144004E+006  0.6334814E+01  0.7546771E-02  0.2373783E+00
         21   -1    0    0  501  502  0.00000000000E+00  0.00000000000E+00  0.43915075063E+00  0.43915075063E+00  0.00000000000E+00 0.  1.
         21   -1    0    0  502  503 -0.00000000000E+00 -0.00000000000E+00 -0.92544561809E+02  0.92544561809E+02  0.00000000000E+00 0.  1.
          5    1    1    2  501    0 -0.31964554379E+01  0.27968798075E+01 -0.40838733449E+02  0.41327134110E+02  0.47000000000E+01 0. -1.
         -5    1    1    2    0  503  0.31964554379E+01 -0.27968798075E+01 -0.51266677609E+02  0.51656578449E+02  0.47000000000E+01 0. -1.
<mgrwt>
<rscale>  2 0.63348137E+01</rscale>
<asrwt>0</asrwt>
<pdfrwt beam="1">  1       21 0.67561661E-04 0.63348137E+01</pdfrwt>
<pdfrwt beam="2">  1       21 0.14237623E-01 0.63348137E+01</pdfrwt>
<totfact> 0.26440256E+09</totfact>
</mgrwt>
</event>
<event>
 4    1  0.4144004E+006  0.7513856E+01  0.7546771E-02  0.2252109E+00
         21   -1    0    0  503  502  0.00000000000E+00  0.00000000000E+00  0.20697440221E+02  0.20697440221E+02  0.00000000000E+00 0. -1.
         21   -1    0    0  501  503 -0.00000000000E+00 -0.00000000000E+00 -0.47913783638E+01  0.47913783638E+01  0.00000000000E+00 0.  1.
          5    1    1    2  501    0 -0.17680854949E+01  0.55894459471E+01 -0.41074179417E+00  0.75250741614E+01  0.47000000000E+01 0.  1.
         -5    1    1    2    0  502  0.17680854949E+01 -0.55894459471E+01  0.16316803651E+02  0.17963744423E+02  0.47000000000E+01 0. -1.
<mgrwt>
<rscale>  2 0.75138560E+01</rscale>
<asrwt>0</asrwt>
<pdfrwt beam="1">  1       21 0.31842215E-02 0.75138560E+01</pdfrwt>
<pdfrwt beam="2">  1       21 0.73713515E-03 0.75138560E+01</pdfrwt>
<totfact> 0.10931800E+09</totfact>
</mgrwt>
</event>
<event>
 4    1  0.4144004E+006  0.5880199E+01  0.7546771E-02  0.2431281E+00
         21   -1    0    0  503  502  0.00000000000E+00  0.00000000000E+00  0.79379508511E+00  0.79379508511E+00  0.00000000000E+00 0. -1.
         21   -1    0    0  501  503 -0.00000000000E+00 -0.00000000000E+00 -0.67491808484E+02  0.67491808484E+02  0.00000000000E+00 0.  1.
          5    1    1    2  501    0 -0.17968573630E+01  0.30427038689E+01 -0.53680649855E+02  0.54001749157E+02  0.47000000000E+01 0.  1.
         -5    1    1    2    0  502  0.17968573630E+01 -0.30427038689E+01 -0.13017363544E+02  0.14283854411E+02  0.47000000000E+01 0. -1.
<mgrwt>
<rscale>  2 0.58801992E+01</rscale>
<asrwt>0</asrwt>
<pdfrwt beam="1">  1       21 0.12212227E-03 0.58801992E+01</pdfrwt>
<pdfrwt beam="2">  1       21 0.10383360E-01 0.58801992E+01</pdfrwt>
<totfact> 0.18340295E+09</totfact>
</mgrwt>
</event>
<event>
 4    1  0.4144004E+006  0.7441585E+01  0.7546771E-02  0.2258651E+00
         21   -1    0    0  501  502  0.00000000000E+00  0.00000000000E+00  0.25966559645E+02  0.25966559645E+02  0.00000000000E+00 0.  1.
         21   -1    0    0  502  503 -0.00000000000E+00 -0.00000000000E+00 -0.51646422073E+01  0.51646422073E+01  0.00000000000E+00 0. -1.
          5    1    1    2  501    0  0.48229937496E+01  0.31663738417E+01  0.22327400475E+02  0.23534867835E+02  0.47000000000E+01 0.  1.
         -5    1    1    2    0  503 -0.48229937496E+01 -0.31663738417E+01 -0.15254830373E+01  0.75963340179E+01  0.47000000000E+01 0. -1.
<mgrwt>
<rscale>  2 0.74415853E+01</rscale>
<asrwt>0</asrwt>
<pdfrwt beam="1">  1       21 0.39948553E-02 0.74415853E+01</pdfrwt>
<pdfrwt beam="2">  1       21 0.79456036E-03 0.74415853E+01</pdfrwt>
<totfact> 0.69707865E+08</totfact>
</mgrwt>
</event>
<event>
 4    1  0.4144004E+006  0.6252951E+01  0.7546771E-02  0.2383620E+00
         21   -1    0    0  501  502  0.00000000000E+00  0.00000000000E+00  0.10779607261E+02  0.10779607261E+02  0.00000000000E+00 0.  1.
         21   -1    0    0  502  503 -0.00000000000E+00 -0.00000000000E+00 -0.26988168502E+02  0.26988168502E+02  0.00000000000E+00 0. -1.
          5    1    1    2  501    0 -0.18132132459E+00 -0.41202570516E+01  0.94648580233E+01  0.11343850008E+02  0.47000000000E+01 0.  1.
         -5    1    1    2    0  503  0.18132132459E+00  0.41202570516E+01 -0.25673419264E+02  0.26423925755E+02  0.47000000000E+01 0. -1.
<mgrwt>
<rscale>  2 0.62529510E+01</rscale>
<asrwt>0</asrwt>
<pdfrwt beam="1">  1       21 0.16584011E-02 0.62529510E+01</pdfrwt>
<pdfrwt beam="2">  1       21 0.41520259E-02 0.62529510E+01</pdfrwt>
<totfact> 0.20446579E+08</totfact>
</mgrwt>
</event>
<event>
 4    1  0.4144004E+006  0.6681469E+01  0.7546771E-02  0.2334357E+00
         21   -1    0    0  503  502  0.00000000000E+00  0.00000000000E+00  0.10758770573E+01  0.10758770573E+01  0.00000000000E+00 0.  1.
         21   -1    0    0  501  503 -0.00000000000E+00 -0.00000000000E+00 -0.69185182392E+02  0.69185182392E+02  0.00000000000E+00 0.  1.
          5    1    1    2  501    0 -0.18640216228E+01  0.43677738696E+01 -0.56280173445E+02  0.56675391028E+02  0.47000000000E+01 0.  1.
         -5    1    1    2    0  502  0.18640216228E+01 -0.43677738696E+01 -0.11829131890E+02  0.13585668421E+02  0.47000000000E+01 0.  1.
<mgrwt>
<rscale>  2 0.66814688E+01</rscale>
<asrwt>0</asrwt>
<pdfrwt beam="1">  1       21 0.16551950E-03 0.66814688E+01</pdfrwt>
<pdfrwt beam="2">  1       21 0.10643877E-01 0.66814688E+01</pdfrwt>
<totfact> 0.12940507E+09</totfact>
</mgrwt>
</event>
<event>
 4    1  0.4144004E+006  0.7370068E+01  0.7546771E-02  0.2265227E+00
         21   -1    0    0  501  502  0.00000000000E+00  0.00000000000E+00  0.13473949789E+02  0.13473949789E+02  0.00000000000E+00 0. -1.
         21   -1    0    0  502  503 -0.00000000000E+00 -0.00000000000E+00 -0.53916358460E+01  0.53916358460E+01  0.00000000000E+00 0.  1.
          5    1    1    2  501    0 -0.54092620544E+01 -0.17227243854E+01  0.87791979010E+01  0.11462644157E+02  0.47000000000E+01 0. -1.
         -5    1    1    2    0  503  0.54092620544E+01  0.17227243854E+01 -0.69688395784E+00  0.74029414784E+01  0.47000000000E+01 0.  1.
<mgrwt>
<rscale>  2 0.73700675E+01</rscale>
<asrwt>0</asrwt>
<pdfrwt beam="1">  1       21 0.20729153E-02 0.73700675E+01</pdfrwt>
<pdfrwt beam="2">  1       21 0.82948244E-03 0.73700675E+01</pdfrwt>
<totfact> 0.17110822E+09</totfact>
</mgrwt>
</event>
<event>
 4    1  0.4144004E+006  0.7497969E+01  0.7546771E-02  0.2253539E+00
         21   -1    0    0  501  502  0.00000000000E+00  0.00000000000E+00  0.42694236142E+02  0.42694236142E+02  0.00000000000E+00 0.  1.
         21   -1    0    0  502  503 -0.00000000000E+00 -0.00000000000E+00 -0.13509400271E+01  0.13509400271E+01  0.00000000000E+00 0. -1.
          5    1    1    2  501    0 -0.21742891886E+01  0.54223618167E+01  0.17170452528E+02  0.18736167728E+02  0.47000000000E+01 0. -1.
         -5    1    1    2    0  503  0.21742891886E+01 -0.54223618167E+01  0.24172843587E+02  0.25309008441E+02  0.47000000000E+01 0.  1.
<mgrwt>
<rscale>  2 0.74979691E+01</rscale>
<asrwt>0</asrwt>
<pdfrwt beam="1">  1       21 0.65683430E-02 0.74979691E+01</pdfrwt>
<pdfrwt beam="2">  1       21 0.20783696E-03 0.74979691E+01</pdfrwt>
<totfact> 0.21658450E+09</totfact>
</mgrwt>
</event>
<event>
 4    1  0.4144004E+006  0.7304685E+01  0.7546771E-02  0.2271331E+00
         21   -1    0    0  503  502  0.00000000000E+00  0.00000000000E+00  0.18490217556E+01  0.18490217556E+01  0.00000000000E+00 0. -1.
         21   -1    0    0  501  503 -0.00000000000E+00 -0.00000000000E+00 -0.27563910241E+03  0.27563910241E+03  0.00000000000E+00 0.  1.
          5    1    1    2  501    0 -0.18077833890E+01 -0.52915352471E+01 -0.26817554823E+03  0.26827501392E+03  0.47000000000E+01 0.  1.
         -5    1    1    2    0  502  0.18077833890E+01  0.52915352471E+01 -0.56145324278E+01  0.92131102477E+01  0.47000000000E+01 0. -1.
<mgrwt>
<rscale>  2 0.73046852E+01</rscale>
<asrwt>0</asrwt>
<pdfrwt beam="1">  1       21 0.28446480E-03 0.73046852E+01</pdfrwt>
<pdfrwt beam="2">  1       21 0.42406028E-01 0.73046852E+01</pdfrwt>
<totfact> 0.66270134E+07</totfact>
</mgrwt>
</event>
<event>
 4    1  0.4144004E+006  0.7550902E+01  0.7546771E-02  0.2248795E+00
         21   -1    0    0  503  502  0.00000000000E+00  0.00000000000E+00  0.27167647074E+01  0.27167647074E+01  0.00000000000E+00 0.  1.
         21   -1    0    0  501  503 -0.00000000000E+00 -0.00000000000E+00 -0.41159435481E+02  0.41159435481E+02  0.00000000000E+00 0.  1.
          5    1    1    2  501    0 -0.19615022460E+01  0.55748214588E+01 -0.34579733303E+02  0.35394548742E+02  0.47000000000E+01 0.  1.
         -5    1    1    2    0  502  0.19615022460E+01 -0.55748214588E+01 -0.38629374713E+01  0.84816514468E+01  0.47000000000E+01 0.  1.
<mgrwt>
<rscale>  2 0.75509023E+01</rscale>
<asrwt>0</asrwt>
<pdfrwt beam="1">  1       21 0.41796380E-03 0.75509023E+01</pdfrwt>
<pdfrwt beam="2">  1       21 0.63322208E-02 0.75509023E+01</pdfrwt>
<totfact> 0.87127868E+08</totfact>
</mgrwt>
</event>
<event>
 4    1  0.4144004E+006  0.8668855E+01  0.7546771E-02  0.2159736E+00
         21   -1    0    0  503  502  0.00000000000E+00  0.00000000000E+00  0.84277861257E+02  0.84277861257E+02  0.00000000000E+00 0.  1.
         21   -1    0    0  501  503 -0.00000000000E+00 -0.00000000000E+00 -0.15179168808E+01  0.15179168808E+01  0.00000000000E+00 0. -1.
          5    1    1    2  501    0  0.21417445889E+01  0.69621816770E+01  0.13826230194E+02  0.16319120227E+02  0.47000000000E+01 0. -1.
         -5    1    1    2    0  502 -0.21417445889E+01 -0.69621816770E+01  0.68933714182E+02  0.69476657911E+02  0.47000000000E+01 0.  1.
<mgrwt>
<rscale>  2 0.86688548E+01</rscale>
<asrwt>0</asrwt>
<pdfrwt beam="1">  1       21 0.12965821E-01 0.86688548E+01</pdfrwt>
<pdfrwt beam="2">  1       21 0.23352574E-03 0.86688548E+01</pdfrwt>
<totfact> 0.70188548E+08</totfact>
</mgrwt>
</event>
<event>
 4    1  0.4144004E+006  0.4830325E+01  0.7546771E-02  0.2598164E+00
         21   -1    0    0  501  502  0.00000000000E+00  0.00000000000E+00  0.14738645143E+01  0.14738645143E+01  0.00000000000E+00 0.  1.
         21   -1    0    0  502  503 -0.00000000000E+00 -0.00000000000E+00 -0.30613761538E+02  0.30613761538E+02  0.00000000000E+00 0.  1.
          5    1    1    2  501    0  0.71231515442E+00 -0.85711565536E+00 -0.34209952106E+01  0.59190580633E+01  0.47000000000E+01 0.  1.
         -5    1    1    2    0  503 -0.71231515442E+00  0.85711565536E+00 -0.25718901813E+02  0.26168567989E+02  0.47000000000E+01 0.  1.
<mgrwt>
<rscale>  2 0.48303251E+01</rscale>
<asrwt>0</asrwt>
<pdfrwt beam="1">  1       21 0.22674839E-03 0.48303251E+01</pdfrwt>
<pdfrwt beam="2">  1       21 0.47098093E-02 0.48303251E+01</pdfrwt>
<totfact> 0.21630698E+09</totfact>
</mgrwt>
</event>
<event>
 4    1  0.4144004E+006  0.5712115E+01  0.7546771E-02  0.2454469E+00
         21   -1    0    0  501  502  0.00000000000E+00  0.00000000000E+00  0.37859175307E+02  0.37859175307E+02  0.00000000000E+00 0.  1.
         21   -1    0    0  502  503 -0.00000000000E+00 -0.00000000000E+00 -0.49931117588E+01  0.49931117588E+01  0.00000000000E+00 0.  1.
          5    1    1    2  501    0 -0.17801811561E+00 -0.32413844278E+01  0.35922529584E+02  0.36373842183E+02  0.47000000000E+01 0.  1.
         -5    1    1    2    0  503  0.17801811561E+00  0.32413844278E+01 -0.30564660364E+01  0.64784448820E+01  0.47000000000E+01 0.  1.
<mgrwt>
<rscale>  2 0.57121155E+01</rscale>
<asrwt>0</asrwt>
<pdfrwt beam="1">  1       21 0.58244883E-02 0.57121155E+01</pdfrwt>
<pdfrwt beam="2">  1       21 0.76817106E-03 0.57121155E+01</pdfrwt>
<totfact> 0.34451116E+08</totfact>
</mgrwt>
</event>
<event>
 4    1  0.4144004E+006  0.5492692E+01  0.7546771E-02  0.2486532E+00
         21   -1    0    0  503  502  0.00000000000E+00  0.00000000000E+00  0.42183661547E+01  0.42183661547E+01  0.00000000000E+00 0.  1.
         21   -1    0    0  501  503 -0.00000000000E+00 -0.00000000000E+00 -0.76210908958E+01  0.76210908958E+01  0.00000000000E+00 0.  1.
          5    1    1    2  501    0  0.57907070272E+00  0.27828661353E+01 -0.31700565419E+01  0.63418392667E+01  0.47000000000E+01 0.  1.
         -5    1    1    2    0  502 -0.57907070272E+00 -0.27828661353E+01 -0.23266819929E+00  0.54976177838E+01  0.47000000000E+01 0.  1.
<mgrwt>
<rscale>  2 0.54926921E+01</rscale>
<asrwt>0</asrwt>
<pdfrwt beam="1">  1       21 0.64897941E-03 0.54926921E+01</pdfrwt>
<pdfrwt beam="2">  1       21 0.11724755E-02 0.54926921E+01</pdfrwt>
<totfact> 0.42583419E+09</totfact>
</mgrwt>
</event>
<event>
 4    1  0.4144004E+006  0.9152522E+01  0.7546771E-02  0.2126691E+00
         21   -1    0    0  501  502  0.00000000000E+00  0.00000000000E+00  0.29925906248E+01  0.29925906248E+01  0.00000000000E+00 0. -1.
         21   -1    0    0  502  503 -0.00000000000E+00 -0.00000000000E+00 -0.10205124071E+03  0.10205124071E+03  0.00000000000E+00 0. -1.
          5    1    1    2  501    0 -0.48324101457E+01  0.61908381195E+01 -0.47867500444E+01  0.10328680478E+02  0.47000000000E+01 0. -1.
         -5    1    1    2    0  503  0.48324101457E+01 -0.61908381195E+01 -0.94271900043E+02  0.94715150859E+02  0.47000000000E+01 0. -1.
<mgrwt>
<rscale>  2 0.91525223E+01</rscale>
<asrwt>0</asrwt>
<pdfrwt beam="1">  1       21 0.46039869E-03 0.91525223E+01</pdfrwt>
<pdfrwt beam="2">  1       21 0.15700186E-01 0.91525223E+01</pdfrwt>
<totfact> 0.20454782E+08</totfact>
</mgrwt>
</event>
<event>
 4    1  0.4144004E+006  0.7688188E+01  0.7546771E-02  0.2236741E+00
         21   -1    0    0  503  502  0.00000000000E+00  0.00000000000E+00  0.11293040467E+01  0.11293040467E+01  0.00000000000E+00 0.  1.
         21   -1    0    0  501  503 -0.00000000000E+00 -0.00000000000E+00 -0.13222487228E+03  0.13222487228E+03  0.00000000000E+00 0.  1.
          5    1    1    2  501    0 -0.52314360050E+01 -0.31064955239E+01 -0.11737420348E+03  0.11762572797E+03  0.47000000000E+01 0.  1.
         -5    1    1    2    0  502  0.52314360050E+01  0.31064955239E+01 -0.13721364751E+02  0.15728448357E+02  0.47000000000E+01 0.  1.
<mgrwt>
<rscale>  2 0.76881882E+01</rscale>
<asrwt>0</asrwt>
<pdfrwt beam="1">  1       21 0.17373917E-03 0.76881882E+01</pdfrwt>
<pdfrwt beam="2">  1       21 0.20342278E-01 0.76881882E+01</pdfrwt>
<totfact> 0.47333494E+08</totfact>
</mgrwt>
</event>
<event>
 4    1  0.4144004E+006  0.5425132E+01  0.7546771E-02  0.2496845E+00
         21   -1    0    0  503  502  0.00000000000E+00  0.00000000000E+00  0.20526835344E+01  0.20526835344E+01  0.00000000000E+00 0. -1.
         21   -1    0    0  501  503 -0.00000000000E+00 -0.00000000000E+00 -0.14366511217E+02  0.14366511217E+02  0.00000000000E+00 0. -1.
          5    1    1    2  501    0 -0.17712751152E+01  0.20505227152E+01 -0.57933278313E+01  0.79369204544E+01  0.47000000000E+01 0. -1.
         -5    1    1    2    0  502  0.17712751152E+01 -0.20505227152E+01 -0.65204998512E+01  0.84822742969E+01  0.47000000000E+01 0. -1.
<mgrwt>
<rscale>  2 0.54251322E+01</rscale>
<asrwt>0</asrwt>
<pdfrwt beam="1">  1       21 0.31579748E-03 0.54251322E+01</pdfrwt>
<pdfrwt beam="2">  1       21 0.22102324E-02 0.54251322E+01</pdfrwt>
<totfact> 0.46179007E+09</totfact>
</mgrwt>
</event>
<event>
 4    1  0.4144004E+006  0.8766252E+01  0.7546771E-02  0.2152849E+00
         21   -1    0    0  503  502  0.00000000000E+00  0.00000000000E+00  0.75216554745E+01  0.75216554745E+01  0.00000000000E+00 0.  1.
         21   -1    0    0  501  503 -0.00000000000E+00 -0.00000000000E+00 -0.25886999139E+02  0.25886999139E+02  0.00000000000E+00 0.  1.
          5    1    1    2  501    0  0.33419927800E+01  0.66021403401E+01 -0.22179145636E+02  0.23848724787E+02  0.47000000000E+01 0.  1.
         -5    1    1    2    0  502 -0.33419927800E+01 -0.66021403401E+01  0.38138019716E+01  0.95599298266E+01  0.47000000000E+01 0.  1.
<mgrwt>
<rscale>  2 0.87662519E+01</rscale>
<asrwt>0</asrwt>
<pdfrwt beam="1">  1       21 0.11571777E-02 0.87662519E+01</pdfrwt>
<pdfrwt beam="2">  1       21 0.39826153E-02 0.87662519E+01</pdfrwt>
<totfact> 0.45319185E+08</totfact>
</mgrwt>
</event>
<event>
 4    1  0.4144004E+006  0.9968955E+01  0.7546771E-02  0.2076759E+00
         21   -1    0    0  503  502  0.00000000000E+00  0.00000000000E+00  0.17246067295E+02  0.17246067295E+02  0.00000000000E+00 0. -1.
         21   -1    0    0  501  503 -0.00000000000E+00 -0.00000000000E+00 -0.14094849750E+02  0.14094849750E+02  0.00000000000E+00 0.  1.
          5    1    1    2  501    0  0.16702097266E+01  0.86313646354E+01 -0.10472970494E+02  0.14459016805E+02  0.47000000000E+01 0.  1.
         -5    1    1    2    0  502 -0.16702097266E+01 -0.86313646354E+01  0.13624188039E+02  0.16881900241E+02  0.47000000000E+01 0. -1.
<mgrwt>
<rscale>  2 0.99689546E+01</rscale>
<asrwt>0</asrwt>
<pdfrwt beam="1">  1       21 0.26532411E-02 0.99689546E+01</pdfrwt>
<pdfrwt beam="2">  1       21 0.21684384E-02 0.99689546E+01</pdfrwt>
<totfact> 0.35704598E+08</totfact>
</mgrwt>
</event>
<event>
 4    1  0.4144004E+006  0.4925607E+01  0.7546771E-02  0.2580523E+00
         21   -1    0    0  503  502  0.00000000000E+00  0.00000000000E+00  0.23294489379E+01  0.23294489379E+01  0.00000000000E+00 0. -1.
         21   -1    0    0  501  503 -0.00000000000E+00 -0.00000000000E+00 -0.12434227390E+02  0.12434227390E+02  0.00000000000E+00 0. -1.
          5    1    1    2  501    0 -0.42787795266E+00 -0.14101508803E+01 -0.80269957420E+01  0.94177633061E+01  0.47000000000E+01 0. -1.
         -5    1    1    2    0  502  0.42787795266E+00  0.14101508803E+01 -0.20777827102E+01  0.53459130220E+01  0.47000000000E+01 0. -1.
<mgrwt>
<rscale>  2 0.49256071E+01</rscale>
<asrwt>0</asrwt>
<pdfrwt beam="1">  1       21 0.35837675E-03 0.49256071E+01</pdfrwt>
<pdfrwt beam="2">  1       21 0.19129581E-02 0.49256071E+01</pdfrwt>
<totfact> 0.43194599E+09</totfact>
</mgrwt>
</event>
<event>
 4    1  0.4144004E+006  0.5640621E+01  0.7546771E-02  0.2464684E+00
         21   -1    0    0  501  502  0.00000000000E+00  0.00000000000E+00  0.34606623842E+02  0.34606623842E+02  0.00000000000E+00 0.  1.
         21   -1    0    0  502  503 -0.00000000000E+00 -0.00000000000E+00 -0.32608841721E+01  0.32608841721E+01  0.00000000000E+00 0. -1.
          5    1    1    2  501    0 -0.12231283292E+01 -0.28688948709E+01  0.31717016060E+02  0.32214681566E+02  0.47000000000E+01 0.  1.
         -5    1    1    2    0  503  0.12231283292E+01  0.28688948709E+01 -0.37127638993E+00  0.56528264477E+01  0.47000000000E+01 0. -1.
<mgrwt>
<rscale>  2 0.56406206E+01</rscale>
<asrwt>0</asrwt>
<pdfrwt beam="1">  1       21 0.53240957E-02 0.56406206E+01</pdfrwt>
<pdfrwt beam="2">  1       21 0.50167451E-03 0.56406206E+01</pdfrwt>
<totfact> 0.70498506E+08</totfact>
</mgrwt>
</event>
<event>
 4    1  0.4144004E+006  0.6191316E+01  0.7546771E-02  0.2391169E+00
         21   -1    0    0  503  502  0.00000000000E+00  0.00000000000E+00  0.15685443928E+00  0.15685443928E+00  0.00000000000E+00 0.  1.
         21   -1    0    0  501  503 -0.00000000000E+00 -0.00000000000E+00 -0.33613479359E+03  0.33613479359E+03  0.00000000000E+00 0.  1.
          5    1    1    2  501    0  0.38777572953E+01 -0.10979051646E+01 -0.25583842276E+03  0.25591332704E+03  0.47000000000E+01 0.  1.
         -5    1    1    2    0  502 -0.38777572953E+01  0.10979051646E+01 -0.80139516392E+02  0.80378320989E+02  0.47000000000E+01 0.  1.
<mgrwt>
<rscale>  2 0.61913163E+01</rscale>
<asrwt>0</asrwt>
<pdfrwt beam="1">  1       21 0.24131803E-04 0.61913163E+01</pdfrwt>
<pdfrwt beam="2">  1       21 0.51712293E-01 0.61913163E+01</pdfrwt>
<totfact> 0.11824930E+09</totfact>
</mgrwt>
</event>
<event>
 4    1  0.4144004E+006  0.5244729E+01  0.7546771E-02  0.2525488E+00
         21   -1    0    0  503  502  0.00000000000E+00  0.00000000000E+00  0.21977587435E+01  0.21977587435E+01  0.00000000000E+00 0.  1.
         21   -1    0    0  501  503 -0.00000000000E+00 -0.00000000000E+00 -0.14776206611E+02  0.14776206611E+02  0.00000000000E+00 0.  1.
          5    1    1    2  501    0 -0.89430240450E+00  0.21488144792E+01 -0.96085086695E+01  0.10946717285E+02  0.47000000000E+01 0.  1.
         -5    1    1    2    0  502  0.89430240450E+00 -0.21488144792E+01 -0.29699391981E+01  0.60272480700E+01  0.47000000000E+01 0.  1.
<mgrwt>
<rscale>  2 0.52447288E+01</rscale>
<asrwt>0</asrwt>
<pdfrwt beam="1">  1       21 0.33811671E-03 0.52447288E+01</pdfrwt>
<pdfrwt beam="2">  1       21 0.22732627E-02 0.52447288E+01</pdfrwt>
<totfact> 0.39052828E+09</totfact>
</mgrwt>
</event>
<event>
 4    1  0.4144004E+006  0.5299192E+01  0.7546771E-02  0.2516666E+00
         21   -1    0    0  501  502  0.00000000000E+00  0.00000000000E+00  0.10314244665E+01  0.10314244665E+01  0.00000000000E+00 0.  1.
         21   -1    0    0  502  503 -0.00000000000E+00 -0.00000000000E+00 -0.32980939539E+02  0.32980939539E+02  0.00000000000E+00 0.  1.
          5    1    1    2  501    0 -0.27876402125E+00 -0.24318153895E+01 -0.88708002471E+01  0.10333079526E+02  0.47000000000E+01 0.  1.
         -5    1    1    2    0  503  0.27876402125E+00  0.24318153895E+01 -0.23078714825E+02  0.23679284479E+02  0.47000000000E+01 0.  1.
<mgrwt>
<rscale>  2 0.52991920E+01</rscale>
<asrwt>0</asrwt>
<pdfrwt beam="1">  1       21 0.15868071E-03 0.52991920E+01</pdfrwt>
<pdfrwt beam="2">  1       21 0.50739900E-02 0.52991920E+01</pdfrwt>
<totfact> 0.34393064E+09</totfact>
</mgrwt>
</event>
<event>
 4    1  0.4144004E+006  0.7891690E+01  0.7546771E-02  0.2219501E+00
         21   -1    0    0  503  502  0.00000000000E+00  0.00000000000E+00  0.20764851232E+02  0.20764851232E+02  0.00000000000E+00 0. -1.
         21   -1    0    0  501  503 -0.00000000000E+00 -0.00000000000E+00 -0.39963671210E+01  0.39963671210E+01  0.00000000000E+00 0.  1.
          5    1    1    2  501    0 -0.60460033986E+01 -0.19064676820E+01  0.22000274635E+01  0.81926123403E+01  0.47000000000E+01 0.  1.
         -5    1    1    2    0  502  0.60460033986E+01  0.19064676820E+01  0.14568456648E+02  0.16568606013E+02  0.47000000000E+01 0. -1.
<mgrwt>
<rscale>  2 0.78916903E+01</rscale>
<asrwt>0</asrwt>
<pdfrwt beam="1">  1       21 0.31945924E-02 0.78916903E+01</pdfrwt>
<pdfrwt beam="2">  1       21 0.61482572E-03 0.78916903E+01</pdfrwt>
<totfact> 0.14571427E+09</totfact>
</mgrwt>
</event>
<event>
 4    1  0.4144004E+006  0.1108832E+02  0.7546771E-02  0.2017873E+00
         21   -1    0    0  503  502  0.00000000000E+00  0.00000000000E+00  0.37155370642E+01  0.37155370642E+01  0.00000000000E+00 0. -1.
         21   -1    0    0  501  503 -0.00000000000E+00 -0.00000000000E+00 -0.49191432065E+02  0.49191432065E+02  0.00000000000E+00 0.  1.
          5    1    1    2  501    0 -0.19236623119E+01 -0.98569965467E+01 -0.37872056056E+02  0.39461924529E+02  0.47000000000E+01 0.  1.
         -5    1    1    2    0  502  0.19236623119E+01  0.98569965467E+01 -0.76038389452E+01  0.13445044601E+02  0.47000000000E+01 0. -1.
<mgrwt>
<rscale>  2 0.11088321E+02</rscale>
<asrwt>0</asrwt>
<pdfrwt beam="1">  1       21 0.57162111E-03 0.11088321E+02</pdfrwt>
<pdfrwt beam="2">  1       21 0.75679123E-02 0.11088321E+02</pdfrwt>
<totfact> 0.53194944E+08</totfact>
</mgrwt>
</event>
<event>
 4    1  0.4144004E+006  0.6281235E+01  0.7546771E-02  0.2380197E+00
         21   -1    0    0  503  502  0.00000000000E+00  0.00000000000E+00  0.60766528391E+00  0.60766528391E+00  0.00000000000E+00 0.  1.
         21   -1    0    0  501  503 -0.00000000000E+00 -0.00000000000E+00 -0.65373868516E+02  0.65373868516E+02  0.00000000000E+00 0. -1.
          5    1    1    2  501    0  0.25537013253E+01 -0.32927990432E+01 -0.29655665928E+02  0.30313568540E+02  0.47000000000E+01 0. -1.
         -5    1    1    2    0  502 -0.25537013253E+01  0.32927990432E+01 -0.35110537304E+02  0.35667965260E+02  0.47000000000E+01 0.  1.
<mgrwt>
<rscale>  2 0.62812352E+01</rscale>
<asrwt>0</asrwt>
<pdfrwt beam="1">  1       21 0.93486996E-04 0.62812352E+01</pdfrwt>
<pdfrwt beam="2">  1       21 0.10057515E-01 0.62812352E+01</pdfrwt>
<totfact> 0.29166923E+09</totfact>
</mgrwt>
</event>
<event>
 4    1  0.4144004E+006  0.6107386E+01  0.7546771E-02  0.2401653E+00
         21   -1    0    0  501  502  0.00000000000E+00  0.00000000000E+00  0.13696602791E+03  0.13696602791E+03  0.00000000000E+00 0. -1.
         21   -1    0    0  502  503 -0.00000000000E+00 -0.00000000000E+00 -0.31797064502E+00  0.31797064502E+00  0.00000000000E+00 0. -1.
          5    1    1    2  501    0 -0.29562259754E+01 -0.25437954042E+01  0.94329519016E+02  0.94527024310E+02  0.47000000000E+01 0. -1.
         -5    1    1    2    0  503  0.29562259754E+01  0.25437954042E+01  0.42318538249E+02  0.42756974246E+02  0.47000000000E+01 0. -1.
<mgrwt>
<rscale>  2 0.61073863E+01</rscale>
<asrwt>0</asrwt>
<pdfrwt beam="1">  1       21 0.21071650E-01 0.61073863E+01</pdfrwt>
<pdfrwt beam="2">  1       21 0.48918670E-04 0.61073863E+01</pdfrwt>
<totfact> 0.21129540E+09</totfact>
</mgrwt>
</event>
<event>
 4    1  0.4144004E+006  0.5968301E+01  0.7546771E-02  0.2419568E+00
         21   -1    0    0  501  502  0.00000000000E+00  0.00000000000E+00  0.11456310137E+02  0.11456310137E+02  0.00000000000E+00 0.  1.
         21   -1    0    0  502  503 -0.00000000000E+00 -0.00000000000E+00 -0.51097753440E+01  0.51097753440E+01  0.00000000000E+00 0.  1.
          5    1    1    2  501    0  0.34500889774E+01 -0.12757380245E+01  0.83560164760E+01  0.10268575013E+02  0.47000000000E+01 0.  1.
         -5    1    1    2    0  503 -0.34500889774E+01  0.12757380245E+01 -0.20094816828E+01  0.62975104678E+01  0.47000000000E+01 0.  1.
<mgrwt>
<rscale>  2 0.59683014E+01</rscale>
<asrwt>0</asrwt>
<pdfrwt beam="1">  1       21 0.17625092E-02 0.59683014E+01</pdfrwt>
<pdfrwt beam="2">  1       21 0.78611929E-03 0.59683014E+01</pdfrwt>
<totfact> 0.19702001E+09</totfact>
</mgrwt>
</event>
<event>
 4    1  0.4144004E+006  0.5010393E+01  0.7546771E-02  0.2565313E+00
         21   -1    0    0  501  502  0.00000000000E+00  0.00000000000E+00  0.17166031322E+02  0.17166031322E+02  0.00000000000E+00 0. -1.
         21   -1    0    0  502  503 -0.00000000000E+00 -0.00000000000E+00 -0.16792915486E+01  0.16792915486E+01  0.00000000000E+00 0. -1.
          5    1    1    2  501    0  0.92434092188E+00  0.14695694565E+01  0.11129521514E+02  0.12205338572E+02  0.47000000000E+01 0. -1.
         -5    1    1    2    0  503 -0.92434092188E+00 -0.14695694565E+01  0.43572182597E+01  0.66399842989E+01  0.47000000000E+01 0. -1.
<mgrwt>
<rscale>  2 0.50103933E+01</rscale>
<asrwt>0</asrwt>
<pdfrwt beam="1">  1       21 0.26409278E-02 0.50103933E+01</pdfrwt>
<pdfrwt beam="2">  1       21 0.25835256E-03 0.50103933E+01</pdfrwt>
<totfact> 0.43357214E+09</totfact>
</mgrwt>
</event>
<event>
 4    1  0.4144004E+006  0.7102671E+01  0.7546771E-02  0.2290766E+00
         21   -1    0    0  501  502  0.00000000000E+00  0.00000000000E+00  0.24045967877E+00  0.24045967877E+00  0.00000000000E+00 0.  1.
         21   -1    0    0  502  503 -0.00000000000E+00 -0.00000000000E+00 -0.29375120891E+03  0.29375120891E+03  0.00000000000E+00 0. -1.
          5    1    1    2  501    0  0.30395806100E+01  0.43725149187E+01 -0.68171381942E+02  0.68540391397E+02  0.47000000000E+01 0.  1.
         -5    1    1    2    0  503 -0.30395806100E+01 -0.43725149187E+01 -0.22533936728E+03  0.22545127719E+03  0.47000000000E+01 0. -1.
<mgrwt>
<rscale>  2 0.71026711E+01</rscale>
<asrwt>0</asrwt>
<pdfrwt beam="1">  1       21 0.36993692E-04 0.71026711E+01</pdfrwt>
<pdfrwt beam="2">  1       21 0.45192621E-01 0.71026711E+01</pdfrwt>
<totfact> 0.93454835E+08</totfact>
</mgrwt>
</event>
<event>
 4    1  0.4144004E+006  0.1777006E+02  0.7546771E-02  0.1793692E+00
         21   -1    0    0  501  502  0.00000000000E+00  0.00000000000E+00  0.12996169074E+02  0.12996169074E+02  0.00000000000E+00 0. -1.
         21   -1    0    0  502  503 -0.00000000000E+00 -0.00000000000E+00 -0.24560590665E+02  0.24560590665E+02  0.00000000000E+00 0.  1.
          5    1    1    2  501    0 -0.76631158159E+00 -0.17120102649E+02 -0.38388874608E+01  0.18179994639E+02  0.47000000000E+01 0. -1.
         -5    1    1    2    0  503  0.76631158159E+00  0.17120102649E+02 -0.77255341302E+01  0.19376765100E+02  0.47000000000E+01 0.  1.
<mgrwt>
<rscale>  2 0.17770063E+02</rscale>
<asrwt>0</asrwt>
<pdfrwt beam="1">  1       21 0.19994106E-02 0.17770063E+02</pdfrwt>
<pdfrwt beam="2">  1       21 0.37785524E-02 0.17770063E+02</pdfrwt>
<totfact> 0.30509441E+08</totfact>
</mgrwt>
</event>
<event>
 4    1  0.4144004E+006  0.5644850E+01  0.7546771E-02  0.2464074E+00
         21   -1    0    0  501  502  0.00000000000E+00  0.00000000000E+00  0.17329561783E+00  0.17329561783E+00  0.00000000000E+00 0. -1.
         21   -1    0    0  502  503 -0.00000000000E+00 -0.00000000000E+00 -0.18446005534E+03  0.18446005534E+03  0.00000000000E+00 0.  1.
          5    1    1    2  501    0  0.16338388498E+01 -0.26655026810E+01 -0.97352660835E+02  0.97516177661E+02  0.47000000000E+01 0.  1.
         -5    1    1    2    0  503 -0.16338388498E+01  0.26655026810E+01 -0.86934098883E+02  0.87117173292E+02  0.47000000000E+01 0. -1.
<mgrwt>
<rscale>  2 0.56448502E+01</rscale>
<asrwt>0</asrwt>
<pdfrwt beam="1">  1       21 0.26660835E-04 0.56448502E+01</pdfrwt>
<pdfrwt beam="2">  1       21 0.28378501E-01 0.56448502E+01</pdfrwt>
<totfact> 0.27290644E+09</totfact>
</mgrwt>
</event>
<event>
 4    1  0.4144004E+006  0.6779202E+01  0.7546771E-02  0.2323846E+00
         21   -1    0    0  501  502  0.00000000000E+00  0.00000000000E+00  0.17588336520E+02  0.17588336520E+02  0.00000000000E+00 0. -1.
         21   -1    0    0  502  503 -0.00000000000E+00 -0.00000000000E+00 -0.56817925606E+01  0.56817925606E+01  0.00000000000E+00 0. -1.
          5    1    1    2  501    0 -0.42953313154E+01 -0.23275963205E+01  0.14504192775E+02  0.16010283689E+02  0.47000000000E+01 0. -1.
         -5    1    1    2    0  503  0.42953313154E+01  0.23275963205E+01 -0.25976488158E+01  0.72598453917E+01  0.47000000000E+01 0. -1.
<mgrwt>
<rscale>  2 0.67792017E+01</rscale>
<asrwt>0</asrwt>
<pdfrwt beam="1">  1       21 0.27058979E-02 0.67792017E+01</pdfrwt>
<pdfrwt beam="2">  1       21 0.87412194E-03 0.67792017E+01</pdfrwt>
<totfact> 0.10120208E+09</totfact>
</mgrwt>
</event>
<event>
 4    1  0.4144004E+006  0.9364332E+01  0.7546771E-02  0.2113078E+00
         21   -1    0    0  501  502  0.00000000000E+00  0.00000000000E+00  0.22672084020E+02  0.22672084020E+02  0.00000000000E+00 0. -1.
         21   -1    0    0  502  503 -0.00000000000E+00 -0.00000000000E+00 -0.45161133719E+01  0.45161133719E+01  0.00000000000E+00 0. -1.
          5    1    1    2  501    0  0.80673624201E+01  0.71999031440E+00  0.14228680745E+02  0.17033674830E+02  0.47000000000E+01 0. -1.
         -5    1    1    2    0  503 -0.80673624201E+01 -0.71999031440E+00  0.39272899025E+01  0.10154522561E+02  0.47000000000E+01 0. -1.
<mgrwt>
<rscale>  2 0.93643325E+01</rscale>
<asrwt>0</asrwt>
<pdfrwt beam="1">  1       21 0.34880129E-02 0.93643325E+01</pdfrwt>
<pdfrwt beam="2">  1       21 0.69478668E-03 0.93643325E+01</pdfrwt>
<totfact> 0.12007071E+09</totfact>
</mgrwt>
</event>
<event>
 4    1  0.4144004E+006  0.5472988E+01  0.7546771E-02  0.2489517E+00
         21   -1    0    0  501  502  0.00000000000E+00  0.00000000000E+00  0.59583676456E+02  0.59583676456E+02  0.00000000000E+00 0. -1.
         21   -1    0    0  502  503 -0.00000000000E+00 -0.00000000000E+00 -0.72249689539E+02  0.72249689539E+02  0.00000000000E+00 0. -1.
          5    1    1    2  501    0 -0.95596999831E+00  0.26362315997E+01  0.59353951347E+02  0.59605747510E+02  0.47000000000E+01 0. -1.
         -5    1    1    2    0  503  0.95596999831E+00 -0.26362315997E+01 -0.72019964430E+02  0.72227618486E+02  0.47000000000E+01 0. -1.
<mgrwt>
<rscale>  2 0.54729878E+01</rscale>
<asrwt>0</asrwt>
<pdfrwt beam="1">  1       21 0.91667194E-02 0.54729878E+01</pdfrwt>
<pdfrwt beam="2">  1       21 0.11115337E-01 0.54729878E+01</pdfrwt>
<totfact> 0.35067643E+06</totfact>
</mgrwt>
</event>
<event>
 4    1  0.4144004E+006  0.4997229E+01  0.7546771E-02  0.2567646E+00
         21   -1    0    0  501  502  0.00000000000E+00  0.00000000000E+00  0.49889418488E+03  0.49889418488E+03  0.00000000000E+00 0.  1.
         21   -1    0    0  502  503 -0.00000000000E+00 -0.00000000000E+00 -0.50702786023E-01  0.50702786023E-01  0.00000000000E+00 0.  1.
          5    1    1    2  501    0  0.44981184289E+00  0.16370610325E+01  0.22123006409E+03  0.22128649656E+03  0.47000000000E+01 0.  1.
         -5    1    1    2    0  503 -0.44981184289E+00 -0.16370610325E+01  0.27761341800E+03  0.27765839111E+03  0.47000000000E+01 0.  1.
<mgrwt>
<rscale>  2 0.49972292E+01</rscale>
<asrwt>0</asrwt>
<pdfrwt beam="1">  1       21 0.76749020E-01 0.49972292E+01</pdfrwt>
<pdfrwt beam="2">  1       21 0.78008282E-05 0.49972292E+01</pdfrwt>
<totfact> 0.21586377E+09</totfact>
</mgrwt>
</event>
<event>
 4    1  0.4144004E+006  0.6122490E+01  0.7546771E-02  0.2399749E+00
         21   -1    0    0  501  502  0.00000000000E+00  0.00000000000E+00  0.56383570138E-01  0.56383570138E-01  0.00000000000E+00 0. -1.
         21   -1    0    0  502  503 -0.00000000000E+00 -0.00000000000E+00 -0.82739807922E+03  0.82739807922E+03  0.00000000000E+00 0. -1.
          5    1    1    2  501    0  0.16711109357E+01  0.35499671030E+01 -0.59706646731E+03  0.59709785736E+03  0.47000000000E+01 0. -1.
         -5    1    1    2    0  503 -0.16711109357E+01 -0.35499671030E+01 -0.23027522834E+03  0.23035660543E+03  0.47000000000E+01 0. -1.
<mgrwt>
<rscale>  2 0.61224895E+01</rscale>
<asrwt>0</asrwt>
<pdfrwt beam="1">  1       21 0.86743494E-05 0.61224895E+01</pdfrwt>
<pdfrwt beam="2">  1       21 0.12729269E+00 0.61224895E+01</pdfrwt>
<totfact> 0.78837802E+08</totfact>
</mgrwt>
</event>
<event>
 4    1  0.4144004E+006  0.6076824E+01  0.7546771E-02  0.2405531E+00
         21   -1    0    0  503  502  0.00000000000E+00  0.00000000000E+00  0.49121796315E+02  0.49121796315E+02  0.00000000000E+00 0. -1.
         21   -1    0    0  501  503 -0.00000000000E+00 -0.00000000000E+00 -0.76045242339E+00  0.76045242339E+00  0.00000000000E+00 0. -1.
          5    1    1    2  501    0  0.30960321383E+01  0.22918060388E+01  0.26847262753E+02  0.27526411085E+02  0.47000000000E+01 0. -1.
         -5    1    1    2    0  502 -0.30960321383E+01 -0.22918060388E+01  0.21514081138E+02  0.22355837652E+02  0.47000000000E+01 0. -1.
<mgrwt>
<rscale>  2 0.60768240E+01</rscale>
<asrwt>0</asrwt>
<pdfrwt beam="1">  1       21 0.75571970E-02 0.60768240E+01</pdfrwt>
<pdfrwt beam="2">  1       21 0.11699272E-03 0.60768240E+01</pdfrwt>
<totfact> 0.32429681E+09</totfact>
</mgrwt>
</event>
<event>
 4    1  0.4144004E+006  0.5443376E+01  0.7546771E-02  0.2494039E+00
         21   -1    0    0  501  502  0.00000000000E+00  0.00000000000E+00  0.17709639836E-01  0.17709639836E-01  0.00000000000E+00 0.  1.
         21   -1    0    0  502  503 -0.00000000000E+00 -0.00000000000E+00 -0.17159601845E+04  0.17159601845E+04  0.00000000000E+00 0.  1.
          5    1    1    2  501    0  0.26852965773E+01 -0.57403922830E+00 -0.72240307084E+03  0.72242357872E+03  0.47000000000E+01 0.  1.
         -5    1    1    2    0  503 -0.26852965773E+01  0.57403922830E+00 -0.99353940399E+03  0.99355431539E+03  0.47000000000E+01 0.  1.
<mgrwt>
<rscale>  2 0.54433757E+01</rscale>
<asrwt>0</asrwt>
<pdfrwt beam="1">  1       21 0.27244261E-05 0.54433757E+01</pdfrwt>
<pdfrwt beam="2">  1       21 0.26400685E+00 0.54433757E+01</pdfrwt>
<totfact> 0.70540166E+08</totfact>
</mgrwt>
</event>
<event>
 4    1  0.4144004E+006  0.5631602E+01  0.7546771E-02  0.2465988E+00
         21   -1    0    0  501  502  0.00000000000E+00  0.00000000000E+00  0.15268636687E+01  0.15268636687E+01  0.00000000000E+00 0.  1.
         21   -1    0    0  502  503 -0.00000000000E+00 -0.00000000000E+00 -0.21446964998E+02  0.21446964998E+02  0.00000000000E+00 0.  1.
          5    1    1    2  501    0 -0.89306406380E+00 -0.29710912434E+01 -0.79211996967E+01  0.97190715212E+01  0.47000000000E+01 0.  1.
         -5    1    1    2    0  503  0.89306406380E+00  0.29710912434E+01 -0.11998901633E+02  0.13254757146E+02  0.47000000000E+01 0.  1.
<mgrwt>
<rscale>  2 0.56316025E+01</rscale>
<asrwt>0</asrwt>
<pdfrwt beam="1">  1       21 0.23490209E-03 0.56316025E+01</pdfrwt>
<pdfrwt beam="2">  1       21 0.32995333E-02 0.56316025E+01</pdfrwt>
<totfact> 0.40207199E+09</totfact>
</mgrwt>
</event>
<event>
 4    1  0.4144004E+006  0.7973929E+01  0.7546771E-02  0.2212736E+00
         21   -1    0    0  501  502  0.00000000000E+00  0.00000000000E+00  0.59916823827E+00  0.59916823827E+00  0.00000000000E+00 0.  1.
         21   -1    0    0  502  503 -0.00000000000E+00 -0.00000000000E+00 -0.11268339670E+03  0.11268339670E+03  0.00000000000E+00 0. -1.
          5    1    1    2  501    0 -0.54124559818E+01 -0.34926870294E+01 -0.42371816071E+02  0.43115592767E+02  0.47000000000E+01 0.  1.
         -5    1    1    2    0  503  0.54124559818E+01  0.34926870294E+01 -0.69712412392E+02  0.70166972173E+02  0.47000000000E+01 0.  1.
<mgrwt>
<rscale>  2 0.79739289E+01</rscale>
<asrwt>0</asrwt>
<pdfrwt beam="1">  1       21 0.92179804E-04 0.79739289E+01</pdfrwt>
<pdfrwt beam="2">  1       21 0.17335893E-01 0.79739289E+01</pdfrwt>
<totfact> 0.14992532E+09</totfact>
</mgrwt>
</event>
<event>
 4    1  0.4144004E+006  0.8711220E+01  0.7546771E-02  0.2156725E+00
         21   -1    0    0  501  502  0.00000000000E+00  0.00000000000E+00  0.61695823954E+01  0.61695823954E+01  0.00000000000E+00 0.  1.
         21   -1    0    0  502  503 -0.00000000000E+00 -0.00000000000E+00 -0.31675573231E+02  0.31675573231E+02  0.00000000000E+00 0. -1.
          5    1    1    2  501    0  0.44718672494E+01  0.58135843535E+01  0.20464776730E+01  0.89483758637E+01  0.47000000000E+01 0.  1.
         -5    1    1    2    0  503 -0.44718672494E+01 -0.58135843535E+01 -0.27552468508E+02  0.28896779762E+02  0.47000000000E+01 0.  1.
<mgrwt>
<rscale>  2 0.87112203E+01</rscale>
<asrwt>0</asrwt>
<pdfrwt beam="1">  1       21 0.94916653E-03 0.87112203E+01</pdfrwt>
<pdfrwt beam="2">  1       21 0.48731651E-02 0.87112203E+01</pdfrwt>
<totfact> 0.44302839E+08</totfact>
</mgrwt>
</event>
<event>
 4    1  0.4144004E+006  0.6669380E+01  0.7546771E-02  0.2335674E+00
         21   -1    0    0  501  502  0.00000000000E+00  0.00000000000E+00  0.42103861342E+01  0.42103861342E+01  0.00000000000E+00 0.  1.
         21   -1    0    0  502  503 -0.00000000000E+00 -0.00000000000E+00 -0.37209589377E+02  0.37209589377E+02  0.00000000000E+00 0. -1.
          5    1    1    2  501    0 -0.30978651616E+01 -0.35768501975E+01 -0.34024721243E+02  0.34672211951E+02  0.47000000000E+01 0. -1.
         -5    1    1    2    0  503  0.30978651616E+01  0.35768501975E+01  0.10255180005E+01  0.67477635602E+01  0.47000000000E+01 0.  1.
<mgrwt>
<rscale>  2 0.66693797E+01</rscale>
<asrwt>0</asrwt>
<pdfrwt beam="1">  1       21 0.64775169E-03 0.66693797E+01</pdfrwt>
<pdfrwt beam="2">  1       21 0.57245524E-02 0.66693797E+01</pdfrwt>
<totfact> 0.50356456E+08</totfact>
</mgrwt>
</event>
<event>
 4    1  0.4144004E+006  0.5963866E+01  0.7546771E-02  0.2420150E+00
         21   -1    0    0  503  502  0.00000000000E+00  0.00000000000E+00  0.50120843382E+03  0.50120843382E+03  0.00000000000E+00 0. -1.
         21   -1    0    0  501  503 -0.00000000000E+00 -0.00000000000E+00 -0.40249672120E+00  0.40249672120E+00  0.00000000000E+00 0. -1.
          5    1    1    2  501    0  0.36573080052E+01 -0.31906032911E+00  0.22778422788E+02  0.23546215111E+02  0.47000000000E+01 0. -1.
         -5    1    1    2    0  502 -0.36573080052E+01  0.31906032911E+00  0.47802751431E+03  0.47806471543E+03  0.47000000000E+01 0. -1.
<mgrwt>
<rscale>  2 0.59638663E+01</rscale>
<asrwt>0</asrwt>
<pdfrwt beam="1">  1       21 0.77108490E-01 0.59638663E+01</pdfrwt>
<pdfrwt beam="2">  1       21 0.61922974E-04 0.59638663E+01</pdfrwt>
<totfact> 0.15493007E+08</totfact>
</mgrwt>
</event>
<event>
 4    1  0.4144004E+006  0.5420057E+01  0.7546771E-02  0.2497628E+00
         21   -1    0    0  503  502  0.00000000000E+00  0.00000000000E+00  0.79101609467E+02  0.79101609467E+02  0.00000000000E+00 0.  1.
         21   -1    0    0  501  503 -0.00000000000E+00 -0.00000000000E+00 -0.39981875505E+00  0.39981875505E+00  0.00000000000E+00 0.  1.
          5    1    1    2  501    0 -0.43971783452E+00  0.26633929990E+01  0.28749971686E+02  0.29256416151E+02  0.47000000000E+01 0.  1.
         -5    1    1    2    0  502  0.43971783452E+00 -0.26633929990E+01  0.49951819026E+02  0.50245012071E+02  0.47000000000E+01 0.  1.
<mgrwt>
<rscale>  2 0.54200566E+01</rscale>
<asrwt>0</asrwt>
<pdfrwt beam="1">  1       21 0.12169466E-01 0.54200566E+01</pdfrwt>
<pdfrwt beam="2">  1       21 0.61510641E-04 0.54200566E+01</pdfrwt>
<totfact> 0.33471533E+09</totfact>
</mgrwt>
</event>
<event>
 4    1  0.4144004E+006  0.4785057E+01  0.7546771E-02  0.2606758E+00
         21   -1    0    0  503  502  0.00000000000E+00  0.00000000000E+00  0.99800375370E+03  0.99800375370E+03  0.00000000000E+00 0. -1.
         21   -1    0    0  501  503 -0.00000000000E+00 -0.00000000000E+00 -0.37864900149E-01  0.37864900149E-01  0.00000000000E+00 0. -1.
          5    1    1    2  501    0  0.26603885436E+00 -0.85790271635E+00  0.18571314419E+03  0.18577477950E+03  0.47000000000E+01 0. -1.
         -5    1    1    2    0  502 -0.26603885436E+00  0.85790271635E+00  0.81225274461E+03  0.81226683909E+03  0.47000000000E+01 0. -1.
<mgrwt>
<rscale>  2 0.47850573E+01</rscale>
<asrwt>0</asrwt>
<pdfrwt beam="1">  1       21 0.15351797E+00 0.47850573E+01</pdfrwt>
<pdfrwt beam="2">  1       21 0.58261686E-05 0.47850573E+01</pdfrwt>
<totfact> 0.76114581E+08</totfact>
</mgrwt>
</event>
<event>
 4    1  0.4144004E+006  0.5485335E+01  0.7546771E-02  0.2487644E+00
         21   -1    0    0  503  502  0.00000000000E+00  0.00000000000E+00  0.36751161925E+02  0.36751161925E+02  0.00000000000E+00 0. -1.
         21   -1    0    0  501  503 -0.00000000000E+00 -0.00000000000E+00 -0.23634308182E+01  0.23634308182E+01  0.00000000000E+00 0. -1.
          5    1    1    2  501    0 -0.22529603853E+01 -0.17096993619E+01  0.13828051429E+01  0.56569472747E+01  0.47000000000E+01 0. -1.
         -5    1    1    2    0  502  0.22529603853E+01  0.17096993619E+01  0.33004925964E+02  0.33457645468E+02  0.47000000000E+01 0. -1.
<mgrwt>
<rscale>  2 0.54853352E+01</rscale>
<asrwt>0</asrwt>
<pdfrwt beam="1">  1       21 0.56540245E-02 0.54853352E+01</pdfrwt>
<pdfrwt beam="2">  1       21 0.36360477E-03 0.54853352E+01</pdfrwt>
<totfact> 0.98204115E+08</totfact>
</mgrwt>
</event>
<event>
 4    1  0.4144004E+006  0.7416631E+01  0.7546771E-02  0.2260934E+00
         21   -1    0    0  501  502  0.00000000000E+00  0.00000000000E+00  0.24627777792E+01  0.24627777792E+01  0.00000000000E+00 0. -1.
         21   -1    0    0  502  503 -0.00000000000E+00 -0.00000000000E+00 -0.12293692836E+03  0.12293692836E+03  0.00000000000E+00 0. -1.
          5    1    1    2  501    0 -0.57159727514E+01  0.49403175436E+00 -0.35181151466E+01  0.82087481417E+01  0.47000000000E+01 0. -1.
         -5    1    1    2    0  503  0.57159727514E+01 -0.49403175436E+00 -0.11695603543E+03  0.11719095800E+03  0.47000000000E+01 0. -1.
<mgrwt>
<rscale>  2 0.74166308E+01</rscale>
<asrwt>0</asrwt>
<pdfrwt beam="1">  1       21 0.37888884E-03 0.74166308E+01</pdfrwt>
<pdfrwt beam="2">  1       21 0.18913376E-01 0.74166308E+01</pdfrwt>
<totfact> 0.17710388E+08</totfact>
</mgrwt>
</event>
<event>
 4    1  0.4144004E+006  0.4947816E+01  0.7546771E-02  0.2576495E+00
         21   -1    0    0  503  502  0.00000000000E+00  0.00000000000E+00  0.19936879066E+02  0.19936879066E+02  0.00000000000E+00 0. -1.
         21   -1    0    0  501  503 -0.00000000000E+00 -0.00000000000E+00 -0.14344718472E+01  0.14344718472E+01  0.00000000000E+00 0.  1.
          5    1    1    2  501    0 -0.24739149974E+00 -0.15263303150E+01  0.51963907941E+01  0.71751908734E+01  0.47000000000E+01 0.  1.
         -5    1    1    2    0  502  0.24739149974E+00  0.15263303150E+01  0.13306016425E+02  0.14196160040E+02  0.47000000000E+01 0. -1.
<mgrwt>
<rscale>  2 0.49478164E+01</rscale>
<asrwt>0</asrwt>
<pdfrwt beam="1">  1       21 0.30672120E-02 0.49478164E+01</pdfrwt>
<pdfrwt beam="2">  1       21 0.22068799E-03 0.49478164E+01</pdfrwt>
<totfact> 0.42725675E+09</totfact>
</mgrwt>
</event>
<event>
 4    1  0.4144004E+006  0.5241032E+01  0.7546771E-02  0.2526093E+00
         21   -1    0    0  501  502  0.00000000000E+00  0.00000000000E+00  0.44296671750E+00  0.44296671750E+00  0.00000000000E+00 0.  1.
         21   -1    0    0  502  503 -0.00000000000E+00 -0.00000000000E+00 -0.62059933638E+02  0.62059933638E+02  0.00000000000E+00 0.  1.
          5    1    1    2  501    0 -0.22114399547E+01  0.69853230734E+00 -0.29922979888E+02  0.30378497978E+02  0.47000000000E+01 0.  1.
         -5    1    1    2    0  503  0.22114399547E+01 -0.69853230734E+00 -0.31693987033E+02  0.32124402378E+02  0.47000000000E+01 0.  1.
<mgrwt>
<rscale>  2 0.52410318E+01</rscale>
<asrwt>0</asrwt>
<pdfrwt beam="1">  1       21 0.68148728E-04 0.52410318E+01</pdfrwt>
<pdfrwt beam="2">  1       21 0.95476818E-02 0.52410318E+01</pdfrwt>
<totfact> 0.40970026E+09</totfact>
</mgrwt>
</event>
<event>
 4    1  0.4144004E+006  0.4987071E+01  0.7546771E-02  0.2569453E+00
         21   -1    0    0  503  502  0.00000000000E+00  0.00000000000E+00  0.15771024408E+00  0.15771024408E+00  0.00000000000E+00 0. -1.
         21   -1    0    0  501  503 -0.00000000000E+00 -0.00000000000E+00 -0.15923944151E+03  0.15923944151E+03  0.00000000000E+00 0. -1.
          5    1    1    2  501    0  0.12895878302E+01 -0.10572774558E+01 -0.87377623680E+02  0.87519826282E+02  0.47000000000E+01 0. -1.
         -5    1    1    2    0  502 -0.12895878302E+01  0.10572774558E+01 -0.71704107587E+02  0.71877325473E+02  0.47000000000E+01 0. -1.
<mgrwt>
<rscale>  2 0.49870705E+01</rscale>
<asrwt>0</asrwt>
<pdfrwt beam="1">  1       21 0.24263093E-04 0.49870705E+01</pdfrwt>
<pdfrwt beam="2">  1       21 0.24498398E-01 0.49870705E+01</pdfrwt>
<totfact> 0.35231888E+09</totfact>
</mgrwt>
</event>
<event>
 4    1  0.4144004E+006  0.6267351E+01  0.7546771E-02  0.2381874E+00
         21   -1    0    0  503  502  0.00000000000E+00  0.00000000000E+00  0.30898355738E+00  0.30898355738E+00  0.00000000000E+00 0.  1.
         21   -1    0    0  501  503 -0.00000000000E+00 -0.00000000000E+00 -0.43095240736E+03  0.43095240736E+03  0.00000000000E+00 0. -1.
          5    1    1    2  501    0  0.49776325745E+00 -0.41160568679E+01 -0.39637609258E+03  0.39642563800E+03  0.47000000000E+01 0. -1.
         -5    1    1    2    0  502 -0.49776325745E+00  0.41160568679E+01 -0.34267331220E+02  0.34835752918E+02  0.47000000000E+01 0.  1.
<mgrwt>
<rscale>  2 0.62673513E+01</rscale>
<asrwt>0</asrwt>
<pdfrwt beam="1">  1       21 0.47535946E-04 0.62673513E+01</pdfrwt>
<pdfrwt beam="2">  1       21 0.66300350E-01 0.62673513E+01</pdfrwt>
<totfact> 0.30391046E+08</totfact>
</mgrwt>
</event>
<event>
 4    1  0.4144004E+006  0.1046021E+02  0.7546771E-02  0.2049705E+00
         21   -1    0    0  503  502  0.00000000000E+00  0.00000000000E+00  0.29624313026E+02  0.29624313026E+02  0.00000000000E+00 0.  1.
         21   -1    0    0  501  503 -0.00000000000E+00 -0.00000000000E+00 -0.47663242800E+01  0.47663242800E+01  0.00000000000E+00 0. -1.
          5    1    1    2  501    0 -0.72303479426E+01  0.59201458189E+01  0.42708403043E+01  0.11298501440E+02  0.47000000000E+01 0.  1.
         -5    1    1    2    0  502  0.72303479426E+01 -0.59201458189E+01  0.20587148442E+02  0.23092135866E+02  0.47000000000E+01 0. -1.
<mgrwt>
<rscale>  2 0.10460213E+02</rscale>
<asrwt>0</asrwt>
<pdfrwt beam="1">  1       21 0.45575865E-02 0.10460213E+02</pdfrwt>
<pdfrwt beam="2">  1       21 0.73328068E-03 0.10460213E+02</pdfrwt>
<totfact> 0.79005489E+08</totfact>
</mgrwt>
</event>
<event>
 4    1  0.4144004E+006  0.6572318E+01  0.7546771E-02  0.2346399E+00
         21   -1    0    0  501  502  0.00000000000E+00  0.00000000000E+00  0.50797708198E+03  0.50797708198E+03  0.00000000000E+00 0.  1.
         21   -1    0    0  502  503 -0.00000000000E+00 -0.00000000000E+00 -0.68697817199E+00  0.68697817199E+00  0.00000000000E+00 0.  1.
          5    1    1    2  501    0  0.45666698064E+01 -0.50088867637E+00  0.49171669417E+03  0.49176061523E+03  0.47000000000E+01 0.  1.
         -5    1    1    2    0  503 -0.45666698064E+01  0.50088867637E+00  0.15573409636E+02  0.16903444923E+02  0.47000000000E+01 0.  1.
<mgrwt>
<rscale>  2 0.65723179E+01</rscale>
<asrwt>0</asrwt>
<pdfrwt beam="1">  1       21 0.78150020E-01 0.65723179E+01</pdfrwt>
<pdfrwt beam="2">  1       21 0.10568936E-03 0.65723179E+01</pdfrwt>
<totfact> 0.77865281E+07</totfact>
</mgrwt>
</event>
<event>
 4    1  0.4144004E+006  0.5536827E+01  0.7546771E-02  0.2479910E+00
         21   -1    0    0  501  502  0.00000000000E+00  0.00000000000E+00  0.55796341625E-01  0.55796341625E-01  0.00000000000E+00 0.  1.
         21   -1    0    0  502  503 -0.00000000000E+00 -0.00000000000E+00 -0.22461263886E+04  0.22461263886E+04  0.00000000000E+00 0.  1.
          5    1    1    2  501    0 -0.31993141351E+00  0.29093125389E+01 -0.14692401406E+03  0.14702830463E+03  0.47000000000E+01 0.  1.
         -5    1    1    2    0  503  0.31993141351E+00 -0.29093125389E+01 -0.20991465782E+04  0.20991538803E+04  0.47000000000E+01 0.  1.
<mgrwt>
<rscale>  2 0.55368272E+01</rscale>
<asrwt>0</asrwt>
<pdfrwt beam="1">  1       21 0.85844952E-05 0.55368272E+01</pdfrwt>
<pdfrwt beam="2">  1       21 0.34554009E+00 0.55368272E+01</pdfrwt>
<totfact> 0.73371627E+07</totfact>
</mgrwt>
</event>
<event>
 4    1  0.4144004E+006  0.6334599E+01  0.7546771E-02  0.2373808E+00
         21   -1    0    0  501  502  0.00000000000E+00  0.00000000000E+00  0.13546579230E+01  0.13546579230E+01  0.00000000000E+00 0. -1.
         21   -1    0    0  502  503 -0.00000000000E+00 -0.00000000000E+00 -0.28529299567E+03  0.28529299567E+03  0.00000000000E+00 0.  1.
          5    1    1    2  501    0  0.25244043777E+01 -0.34153368773E+01 -0.62897712706E+01  0.89268340459E+01  0.47000000000E+01 0. -1.
         -5    1    1    2    0  503 -0.25244043777E+01  0.34153368773E+01 -0.27764856648E+03  0.27772081955E+03  0.47000000000E+01 0.  1.
<mgrwt>
<rscale>  2 0.63345989E+01</rscale>
<asrwt>0</asrwt>
<pdfrwt beam="1">  1       21 0.20840871E-03 0.63345989E+01</pdfrwt>
<pdfrwt beam="2">  1       21 0.43891272E-01 0.63345989E+01</pdfrwt>
<totfact> 0.88542417E+07</totfact>
</mgrwt>
</event>
<event>
 4    1  0.4144004E+006  0.1169651E+02  0.7546771E-02  0.1989611E+00
         21   -1    0    0  503  502  0.00000000000E+00  0.00000000000E+00  0.19824029394E+02  0.19824029394E+02  0.00000000000E+00 0.  1.
         21   -1    0    0  501  503 -0.00000000000E+00 -0.00000000000E+00 -0.70167917646E+01  0.70167917646E+01  0.00000000000E+00 0. -1.
          5    1    1    2  501    0 -0.38804118287E+01  0.99830204727E+01  0.46806281839E+01  0.12598276625E+02  0.47000000000E+01 0. -1.
         -5    1    1    2    0  502  0.38804118287E+01 -0.99830204727E+01  0.81266094458E+01  0.14242544534E+02  0.47000000000E+01 0.  1.
<mgrwt>
<rscale>  2 0.11696508E+02</rscale>
<asrwt>0</asrwt>
<pdfrwt beam="1">  1       21 0.30498506E-02 0.11696508E+02</pdfrwt>
<pdfrwt beam="2">  1       21 0.10795064E-02 0.11696508E+02</pdfrwt>
<totfact> 0.88137406E+08</totfact>
</mgrwt>
</event>
<event>
 4    1  0.4144004E+006  0.4757118E+01  0.7546771E-02  0.2612133E+00
         21   -1    0    0  501  502  0.00000000000E+00  0.00000000000E+00  0.20177647028E+02  0.20177647028E+02  0.00000000000E+00 0. -1.
         21   -1    0    0  502  503 -0.00000000000E+00 -0.00000000000E+00 -0.12179130793E+01  0.12179130793E+01  0.00000000000E+00 0. -1.
          5    1    1    2  501    0 -0.62070485033E+00 -0.39357062911E+00  0.12489048657E+02  0.13364374610E+02  0.47000000000E+01 0. -1.
         -5    1    1    2    0  503  0.62070485033E+00  0.39357062911E+00  0.64706852916E+01  0.80311854974E+01  0.47000000000E+01 0. -1.
<mgrwt>
<rscale>  2 0.47571181E+01</rscale>
<asrwt>0</asrwt>
<pdfrwt beam="1">  1       21 0.31042531E-02 0.47571181E+01</pdfrwt>
<pdfrwt beam="2">  1       21 0.18737126E-03 0.47571181E+01</pdfrwt>
<totfact> 0.50164983E+09</totfact>
</mgrwt>
</event>
<event>
 4    1  0.4144004E+006  0.6752755E+01  0.7546771E-02  0.2326666E+00
         21   -1    0    0  503  502  0.00000000000E+00  0.00000000000E+00  0.46330821738E+02  0.46330821738E+02  0.00000000000E+00 0.  1.
         21   -1    0    0  501  503 -0.00000000000E+00 -0.00000000000E+00 -0.17489015361E+01  0.17489015361E+01  0.00000000000E+00 0. -1.
          5    1    1    2  501    0 -0.23758300658E+01 -0.42267171332E+01  0.63948933096E+01  0.93002347641E+01  0.47000000000E+01 0. -1.
         -5    1    1    2    0  502  0.23758300658E+01  0.42267171332E+01  0.38187026892E+02  0.38779488510E+02  0.47000000000E+01 0.  1.
<mgrwt>
<rscale>  2 0.67527555E+01</rscale>
<asrwt>0</asrwt>
<pdfrwt beam="1">  1       21 0.71278178E-02 0.67527555E+01</pdfrwt>
<pdfrwt beam="2">  1       21 0.26906181E-03 0.67527555E+01</pdfrwt>
<totfact> 0.12399256E+09</totfact>
</mgrwt>
</event>
<event>
 4    1  0.4144004E+006  0.5047927E+01  0.7546771E-02  0.2558721E+00
         21   -1    0    0  503  502  0.00000000000E+00  0.00000000000E+00  0.29821352890E+00  0.29821352890E+00  0.00000000000E+00 0.  1.
         21   -1    0    0  501  503 -0.00000000000E+00 -0.00000000000E+00 -0.87425932999E+02  0.87425932999E+02  0.00000000000E+00 0.  1.
          5    1    1    2  501    0 -0.98492059411E+00  0.15561177302E+01 -0.50162288989E+02  0.50415640506E+02  0.47000000000E+01 0.  1.
         -5    1    1    2    0  502  0.98492059411E+00 -0.15561177302E+01 -0.36965430481E+02  0.37308506022E+02  0.47000000000E+01 0.  1.
<mgrwt>
<rscale>  2 0.50479274E+01</rscale>
<asrwt>0</asrwt>
<pdfrwt beam="1">  1       21 0.45878938E-04 0.50479274E+01</pdfrwt>
<pdfrwt beam="2">  1       21 0.13450163E-01 0.50479274E+01</pdfrwt>
<totfact> 0.39530030E+09</totfact>
</mgrwt>
</event>
<event>
 4    1  0.4144004E+006  0.5283587E+01  0.7546771E-02  0.2519178E+00
         21   -1    0    0  501  502  0.00000000000E+00  0.00000000000E+00  0.58539427625E+02  0.58539427625E+02  0.00000000000E+00 0. -1.
         21   -1    0    0  502  503 -0.00000000000E+00 -0.00000000000E+00 -0.15626359371E+01  0.15626359371E+01  0.00000000000E+00 0.  1.
          5    1    1    2  501    0 -0.18061536513E+01 -0.16012822706E+01  0.53537750608E+02  0.53797834865E+02  0.47000000000E+01 0. -1.
         -5    1    1    2    0  503  0.18061536513E+01  0.16012822706E+01  0.34390410796E+01  0.63042286974E+01  0.47000000000E+01 0.  1.
<mgrwt>
<rscale>  2 0.52835874E+01</rscale>
<asrwt>0</asrwt>
<pdfrwt beam="1">  1       21 0.90060641E-02 0.52835874E+01</pdfrwt>
<pdfrwt beam="2">  1       21 0.24040557E-03 0.52835874E+01</pdfrwt>
<totfact> 0.83321611E+08</totfact>
</mgrwt>
</event>
<event>
 4    1  0.4144004E+006  0.6096332E+01  0.7546771E-02  0.2403052E+00
         21   -1    0    0  501  502  0.00000000000E+00  0.00000000000E+00  0.15692795962E+01  0.15692795962E+01  0.00000000000E+00 0. -1.
         21   -1    0    0  502  503 -0.00000000000E+00 -0.00000000000E+00 -0.24398985735E+02  0.24398985735E+02  0.00000000000E+00 0.  1.
          5    1    1    2  501    0  0.14121206560E+01  0.36167913907E+01 -0.91906412522E+01  0.11028742056E+02  0.47000000000E+01 0. -1.
         -5    1    1    2    0  503 -0.14121206560E+01 -0.36167913907E+01 -0.13639064887E+02  0.14939523276E+02  0.47000000000E+01 0.  1.
<mgrwt>
<rscale>  2 0.60963321E+01</rscale>
<asrwt>0</asrwt>
<pdfrwt beam="1">  1       21 0.24142764E-03 0.60963321E+01</pdfrwt>
<pdfrwt beam="2">  1       21 0.37536900E-02 0.60963321E+01</pdfrwt>
<totfact> 0.34470195E+09</totfact>
</mgrwt>
</event>
<event>
 4    1  0.4144004E+006  0.7184575E+01  0.7546771E-02  0.2282779E+00
         21   -1    0    0  503  502  0.00000000000E+00  0.00000000000E+00  0.10921729730E+03  0.10921729730E+03  0.00000000000E+00 0. -1.
         21   -1    0    0  501  503 -0.00000000000E+00 -0.00000000000E+00 -0.14847110265E+01  0.14847110265E+01  0.00000000000E+00 0. -1.
          5    1    1    2  501    0 -0.38270953701E+01  0.38576490809E+01  0.81664566889E+01  0.10877000058E+02  0.47000000000E+01 0. -1.
         -5    1    1    2    0  502  0.38270953701E+01 -0.38576490809E+01  0.99566129585E+02  0.99825008269E+02  0.47000000000E+01 0. -1.
<mgrwt>
<rscale>  2 0.71845748E+01</rscale>
<asrwt>0</asrwt>
<pdfrwt beam="1">  1       21 0.16802655E-01 0.71845748E+01</pdfrwt>
<pdfrwt beam="2">  1       21 0.22841717E-03 0.71845748E+01</pdfrwt>
<totfact> 0.42486677E+08</totfact>
</mgrwt>
</event>
<event>
 4    1  0.4144004E+006  0.5180357E+01  0.7546771E-02  0.2536120E+00
         21   -1    0    0  501  502  0.00000000000E+00  0.00000000000E+00  0.21710690924E+00  0.21710690924E+00  0.00000000000E+00 0.  1.
         21   -1    0    0  502  503 -0.00000000000E+00 -0.00000000000E+00 -0.13261490697E+03  0.13261490697E+03  0.00000000000E+00 0.  1.
          5    1    1    2  501    0  0.54676758594E+00  0.21088260392E+01 -0.48889985070E+02  0.49163672993E+02  0.47000000000E+01 0.  1.
         -5    1    1    2    0  503 -0.54676758594E+00 -0.21088260392E+01 -0.83507814988E+02  0.83668340884E+02  0.47000000000E+01 0.  1.
<mgrwt>
<rscale>  2 0.51803573E+01</rscale>
<asrwt>0</asrwt>
<pdfrwt beam="1">  1       21 0.33401054E-04 0.51803573E+01</pdfrwt>
<pdfrwt beam="2">  1       21 0.20402299E-01 0.51803573E+01</pdfrwt>
<totfact> 0.32100643E+09</totfact>
</mgrwt>
</event>
<event>
 4    1  0.4144004E+006  0.6671383E+01  0.7546771E-02  0.2335456E+00
         21   -1    0    0  501  502  0.00000000000E+00  0.00000000000E+00  0.54712640494E+02  0.54712640494E+02  0.00000000000E+00 0.  1.
         21   -1    0    0  502  503 -0.00000000000E+00 -0.00000000000E+00 -0.10896113010E+01  0.10896113010E+01  0.00000000000E+00 0.  1.
          5    1    1    2  501    0 -0.30616543508E+00  0.47247873915E+01  0.40857359031E+02  0.41398443692E+02  0.47000000000E+01 0.  1.
         -5    1    1    2    0  503  0.30616543508E+00 -0.47247873915E+01  0.12765670162E+02  0.14403808102E+02  0.47000000000E+01 0.  1.
<mgrwt>
<rscale>  2 0.66713832E+01</rscale>
<asrwt>0</asrwt>
<pdfrwt beam="1">  1       21 0.84173272E-02 0.66713832E+01</pdfrwt>
<pdfrwt beam="2">  1       21 0.16763255E-03 0.66713832E+01</pdfrwt>
<totfact> 0.18244446E+09</totfact>
</mgrwt>
</event>
<event>
 4    1  0.4144004E+006  0.5411050E+01  0.7546771E-02  0.2499022E+00
         21   -1    0    0  503  502  0.00000000000E+00  0.00000000000E+00  0.80515403334E+00  0.80515403334E+00  0.00000000000E+00 0.  1.
         21   -1    0    0  501  503 -0.00000000000E+00 -0.00000000000E+00 -0.16318629438E+03  0.16318629438E+03  0.00000000000E+00 0.  1.
          5    1    1    2  501    0  0.25834223115E+01 -0.71790865308E+00 -0.15347510278E+03  0.15357046147E+03  0.47000000000E+01 0.  1.
         -5    1    1    2    0  502 -0.25834223115E+01  0.71790865308E+00 -0.89060375666E+01  0.10420986940E+02  0.47000000000E+01 0.  1.
<mgrwt>
<rscale>  2 0.54110501E+01</rscale>
<asrwt>0</asrwt>
<pdfrwt beam="1">  1       21 0.12386978E-03 0.54110501E+01</pdfrwt>
<pdfrwt beam="2">  1       21 0.25105598E-01 0.54110501E+01</pdfrwt>
<totfact> 0.41665062E+08</totfact>
</mgrwt>
</event>
<event>
 4    1  0.4144004E+006  0.5303775E+01  0.7546771E-02  0.2515930E+00
         21   -1    0    0  503  502  0.00000000000E+00  0.00000000000E+00  0.24084146361E+01  0.24084146361E+01  0.00000000000E+00 0. -1.
         21   -1    0    0  501  503 -0.00000000000E+00 -0.00000000000E+00 -0.15756211689E+02  0.15756211689E+02  0.00000000000E+00 0. -1.
          5    1    1    2  501    0  0.29561928483E+00  0.24398037034E+01 -0.11293499513E+02  0.12476905230E+02  0.47000000000E+01 0. -1.
         -5    1    1    2    0  502 -0.29561928483E+00 -0.24398037034E+01 -0.20542975400E+01  0.56877210951E+01  0.47000000000E+01 0. -1.
<mgrwt>
<rscale>  2 0.53037753E+01</rscale>
<asrwt>0</asrwt>
<pdfrwt beam="1">  1       21 0.37052532E-03 0.53037753E+01</pdfrwt>
<pdfrwt beam="2">  1       21 0.24240327E-02 0.53037753E+01</pdfrwt>
<totfact> 0.31790019E+09</totfact>
</mgrwt>
</event>
<event>
 4    1  0.4144004E+006  0.4944320E+01  0.7546771E-02  0.2577127E+00
         21   -1    0    0  501  502  0.00000000000E+00  0.00000000000E+00  0.11151237718E+03  0.11151237718E+03  0.00000000000E+00 0.  1.
         21   -1    0    0  502  503 -0.00000000000E+00 -0.00000000000E+00 -0.31032119966E+00  0.31032119966E+00  0.00000000000E+00 0.  1.
          5    1    1    2  501    0 -0.12451083387E+01  0.89777935508E+00  0.85894171610E+02  0.86036358705E+02  0.47000000000E+01 0.  1.
         -5    1    1    2    0  503  0.12451083387E+01 -0.89777935508E+00  0.25307884370E+02  0.25786339675E+02  0.47000000000E+01 0.  1.
<mgrwt>
<rscale>  2 0.49443202E+01</rscale>
<asrwt>0</asrwt>
<pdfrwt beam="1">  1       21 0.17155718E-01 0.49443202E+01</pdfrwt>
<pdfrwt beam="2">  1       21 0.47741812E-04 0.49443202E+01</pdfrwt>
<totfact> 0.25165387E+09</totfact>
</mgrwt>
</event>
<event>
 4    1  0.4144004E+006  0.4876182E+01  0.7546771E-02  0.2589599E+00
         21   -1    0    0  501  502  0.00000000000E+00  0.00000000000E+00  0.13183234244E+04  0.13183234244E+04  0.00000000000E+00 0. -1.
         21   -1    0    0  502  503 -0.00000000000E+00 -0.00000000000E+00 -0.25404108658E-01  0.25404108658E-01  0.00000000000E+00 0. -1.
          5    1    1    2  501    0 -0.10757437150E+01  0.72795832761E+00  0.10141498288E+04  0.10141615515E+04  0.47000000000E+01 0. -1.
         -5    1    1    2    0  503  0.10757437150E+01 -0.72795832761E+00  0.30414819151E+03  0.30418727710E+03  0.47000000000E+01 0. -1.
<mgrwt>
<rscale>  2 0.48761817E+01</rscale>
<asrwt>0</asrwt>
<pdfrwt beam="1">  1       21 0.20276421E+00 0.48761817E+01</pdfrwt>
<pdfrwt beam="2">  1       21 0.39093803E-05 0.48761817E+01</pdfrwt>
<totfact> 0.72978742E+08</totfact>
</mgrwt>
</event>
<event>
 4    1  0.4144004E+006  0.5832833E+01  0.7546771E-02  0.2437702E+00
         21   -1    0    0  503  502  0.00000000000E+00  0.00000000000E+00  0.41696950019E+00  0.41696950019E+00  0.00000000000E+00 0. -1.
         21   -1    0    0  501  503 -0.00000000000E+00 -0.00000000000E+00 -0.96406667060E+02  0.96406667060E+02  0.00000000000E+00 0.  1.
          5    1    1    2  501    0  0.97027959090E+00  0.33151918655E+01 -0.66971692291E+02  0.67225214822E+02  0.47000000000E+01 0.  1.
         -5    1    1    2    0  502 -0.97027959090E+00 -0.33151918655E+01 -0.29018005268E+02  0.29598421737E+02  0.47000000000E+01 0.  1.
<mgrwt>
<rscale>  2 0.58328329E+01</rscale>
<asrwt>0</asrwt>
<pdfrwt beam="1">  1       21 0.64149123E-04 0.58328329E+01</pdfrwt>
<pdfrwt beam="2">  1       21 0.14831802E-01 0.58328329E+01</pdfrwt>
<totfact> 0.24813442E+09</totfact>
</mgrwt>
</event>
<event>
 4    1  0.4144004E+006  0.4742689E+01  0.7546771E-02  0.2614930E+00
         21   -1    0    0  501  502  0.00000000000E+00  0.00000000000E+00  0.12098158031E+00  0.12098158031E+00  0.00000000000E+00 0. -1.
         21   -1    0    0  502  503 -0.00000000000E+00 -0.00000000000E+00 -0.28151885228E+03  0.28151885228E+03  0.00000000000E+00 0. -1.
          5    1    1    2  501    0  0.61508304202E+00 -0.15738844439E+00 -0.58638678386E+02  0.58830159791E+02  0.47000000000E+01 0. -1.
         -5    1    1    2    0  503 -0.61508304202E+00  0.15738844439E+00 -0.22275919232E+03  0.22280967407E+03  0.47000000000E+01 0. -1.
<mgrwt>
<rscale>  2 0.47426889E+01</rscale>
<asrwt>0</asrwt>
<pdfrwt beam="1">  1       21 0.18612494E-04 0.47426889E+01</pdfrwt>
<pdfrwt beam="2">  1       21 0.43310724E-01 0.47426889E+01</pdfrwt>
<totfact> 0.18400853E+09</totfact>
</mgrwt>
</event>
<event>
 4    1  0.4144004E+006  0.7681870E+01  0.7546771E-02  0.2237288E+00
         21   -1    0    0  501  502  0.00000000000E+00  0.00000000000E+00  0.31258618139E+02  0.31258618139E+02  0.00000000000E+00 0.  1.
         21   -1    0    0  502  503 -0.00000000000E+00 -0.00000000000E+00 -0.23805740865E+01  0.23805740865E+01  0.00000000000E+00 0. -1.
          5    1    1    2  501    0  0.56367958879E+01  0.22688467968E+01  0.22091162482E+02  0.23388685159E+02  0.47000000000E+01 0.  1.
         -5    1    1    2    0  503 -0.56367958879E+01 -0.22688467968E+01  0.67868815711E+01  0.10250507067E+02  0.47000000000E+01 0. -1.
<mgrwt>
<rscale>  2 0.76818705E+01</rscale>
<asrwt>0</asrwt>
<pdfrwt beam="1">  1       21 0.48090179E-02 0.76818705E+01</pdfrwt>
<pdfrwt beam="2">  1       21 0.36624219E-03 0.76818705E+01</pdfrwt>
<totfact> 0.16089269E+09</totfact>
</mgrwt>
</event>
<event>
 4    1  0.4144004E+006  0.6350009E+01  0.7546771E-02  0.2371980E+00
         21   -1    0    0  501  502  0.00000000000E+00  0.00000000000E+00  0.69307032181E+01  0.69307032181E+01  0.00000000000E+00 0. -1.
         21   -1    0    0  502  503 -0.00000000000E+00 -0.00000000000E+00 -0.87850294484E+02  0.87850294484E+02  0.00000000000E+00 0.  1.
          5    1    1    2  501    0 -0.35082129652E+01  0.24341431983E+01  0.53345843129E+01  0.82933950292E+01  0.47000000000E+01 0. -1.
         -5    1    1    2    0  503  0.35082129652E+01 -0.24341431983E+01 -0.86254175579E+02  0.86487602673E+02  0.47000000000E+01 0.  1.
<mgrwt>
<rscale>  2 0.63500088E+01</rscale>
<asrwt>0</asrwt>
<pdfrwt beam="1">  1       21 0.10662621E-02 0.63500088E+01</pdfrwt>
<pdfrwt beam="2">  1       21 0.13515429E-01 0.63500088E+01</pdfrwt>
<totfact> 0.64571460E+07</totfact>
</mgrwt>
</event>
<event>
 4    1  0.4144004E+006  0.7006100E+01  0.7546771E-02  0.2300379E+00
         21   -1    0    0  503  502  0.00000000000E+00  0.00000000000E+00  0.10954863171E+00  0.10954863171E+00  0.00000000000E+00 0. -1.
         21   -1    0    0  501  503 -0.00000000000E+00 -0.00000000000E+00 -0.44833810419E+03  0.44833810419E+03  0.00000000000E+00 0. -1.
          5    1    1    2  501    0  0.30955695236E+01 -0.41728750743E+01 -0.22959914783E+03  0.22970601673E+03  0.47000000000E+01 0. -1.
         -5    1    1    2    0  502 -0.30955695236E+01  0.41728750743E+01 -0.21862940774E+03  0.21874163610E+03  0.47000000000E+01 0. -1.
<mgrwt>
<rscale>  2 0.70061000E+01</rscale>
<asrwt>0</asrwt>
<pdfrwt beam="1">  1       21 0.16853473E-04 0.70061000E+01</pdfrwt>
<pdfrwt beam="2">  1       21 0.68975758E-01 0.70061000E+01</pdfrwt>
<totfact> 0.12154272E+09</totfact>
</mgrwt>
</event>
<event>
 4    1  0.4144004E+006  0.5126579E+01  0.7546771E-02  0.2545177E+00
         21   -1    0    0  501  502  0.00000000000E+00  0.00000000000E+00  0.86332148470E+02  0.86332148470E+02  0.00000000000E+00 0.  1.
         21   -1    0    0  502  503 -0.00000000000E+00 -0.00000000000E+00 -0.34593504940E+00  0.34593504940E+00  0.00000000000E+00 0.  1.
          5    1    1    2  501    0  0.13264990726E+01  0.15595538012E+01  0.58005500515E+02  0.58231605661E+02  0.47000000000E+01 0.  1.
         -5    1    1    2    0  503 -0.13264990726E+01 -0.15595538012E+01  0.27980712905E+02  0.28446477858E+02  0.47000000000E+01 0.  1.
<mgrwt>
<rscale>  2 0.51265786E+01</rscale>
<asrwt>0</asrwt>
<pdfrwt beam="1">  1       21 0.13281852E-01 0.51265786E+01</pdfrwt>
<pdfrwt beam="2">  1       21 0.53220846E-04 0.51265786E+01</pdfrwt>
<totfact> 0.33610752E+09</totfact>
</mgrwt>
</event>
<event>
 4    1  0.4144004E+006  0.4808368E+01  0.7546771E-02  0.2602315E+00
         21   -1    0    0  503  502  0.00000000000E+00  0.00000000000E+00  0.13149400503E+02  0.13149400503E+02  0.00000000000E+00 0. -1.
         21   -1    0    0  501  503 -0.00000000000E+00 -0.00000000000E+00 -0.33264767998E+01  0.33264767998E+01  0.00000000000E+00 0. -1.
          5    1    1    2  501    0  0.19504800486E+00  0.99617136957E+00 -0.74475191803E+00  0.48657020605E+01  0.47000000000E+01 0. -1.
         -5    1    1    2    0  502 -0.19504800486E+00 -0.99617136957E+00  0.10567675621E+02  0.11610175242E+02  0.47000000000E+01 0. -1.
<mgrwt>
<rscale>  2 0.48083678E+01</rscale>
<asrwt>0</asrwt>
<pdfrwt beam="1">  1       21 0.20229847E-02 0.48083678E+01</pdfrwt>
<pdfrwt beam="2">  1       21 0.51176567E-03 0.48083678E+01</pdfrwt>
<totfact> 0.23916140E+09</totfact>
</mgrwt>
</event>
<event>
 4    1  0.4144004E+006  0.8826955E+01  0.7546771E-02  0.2148618E+00
         21   -1    0    0  501  502  0.00000000000E+00  0.00000000000E+00  0.17321698899E+01  0.17321698899E+01  0.00000000000E+00 0.  1.
         21   -1    0    0  502  503 -0.00000000000E+00 -0.00000000000E+00 -0.48546193761E+02  0.48546193761E+02  0.00000000000E+00 0. -1.
          5    1    1    2  501    0  0.36349668360E+01 -0.65277977639E+01 -0.30219429667E+02  0.31482202225E+02  0.47000000000E+01 0. -1.
         -5    1    1    2    0  503 -0.36349668360E+01  0.65277977639E+01 -0.16594594204E+02  0.18796161426E+02  0.47000000000E+01 0. -1.
<mgrwt>
<rscale>  2 0.88269546E+01</rscale>
<asrwt>0</asrwt>
<pdfrwt beam="1">  1       21 0.26648767E-03 0.88269546E+01</pdfrwt>
<pdfrwt beam="2">  1       21 0.74686454E-02 0.88269546E+01</pdfrwt>
<totfact> 0.14066445E+09</totfact>
</mgrwt>
</event>
<event>
 4    1  0.4144004E+006  0.5713058E+01  0.7546771E-02  0.2454336E+00
         21   -1    0    0  503  502  0.00000000000E+00  0.00000000000E+00  0.11477895081E+02  0.11477895081E+02  0.00000000000E+00 0.  1.
         21   -1    0    0  501  503 -0.00000000000E+00 -0.00000000000E+00 -0.34311466441E+01  0.34311466441E+01  0.00000000000E+00 0.  1.
          5    1    1    2  501    0  0.29723673953E+01 -0.13092246742E+01  0.93872815934E+00  0.57896673253E+01  0.47000000000E+01 0.  1.
         -5    1    1    2    0  502 -0.29723673953E+01  0.13092246742E+01  0.71080202777E+01  0.91193744000E+01  0.47000000000E+01 0.  1.
<mgrwt>
<rscale>  2 0.57130585E+01</rscale>
<asrwt>0</asrwt>
<pdfrwt beam="1">  1       21 0.17658300E-02 0.57130585E+01</pdfrwt>
<pdfrwt beam="2">  1       21 0.52786872E-03 0.57130585E+01</pdfrwt>
<totfact> 0.32936701E+09</totfact>
</mgrwt>
</event>
<event>
 4    1  0.4144004E+006  0.4931197E+01  0.7546771E-02  0.2579506E+00
         21   -1    0    0  501  502  0.00000000000E+00  0.00000000000E+00  0.21177168962E+02  0.21177168962E+02  0.00000000000E+00 0. -1.
         21   -1    0    0  502  503 -0.00000000000E+00 -0.00000000000E+00 -0.81003687250E+01  0.81003687250E+01  0.00000000000E+00 0. -1.
          5    1    1    2  501    0 -0.80337059447E+00 -0.12574965695E+01  0.20099993631E+02  0.20696049041E+02  0.47000000000E+01 0. -1.
         -5    1    1    2    0  503  0.80337059447E+00  0.12574965695E+01 -0.70231933940E+01  0.85814886462E+01  0.47000000000E+01 0. -1.
<mgrwt>
<rscale>  2 0.49311968E+01</rscale>
<asrwt>0</asrwt>
<pdfrwt beam="1">  1       21 0.32580260E-02 0.49311968E+01</pdfrwt>
<pdfrwt beam="2">  1       21 0.12462106E-02 0.49311968E+01</pdfrwt>
<totfact> 0.36207869E+08</totfact>
</mgrwt>
</event>
<event>
 4    1  0.4144004E+006  0.9503428E+01  0.7546771E-02  0.2104401E+00
         21   -1    0    0  503  502  0.00000000000E+00  0.00000000000E+00  0.30721489516E+02  0.30721489516E+02  0.00000000000E+00 0.  1.
         21   -1    0    0  501  503 -0.00000000000E+00 -0.00000000000E+00 -0.28101044223E+02  0.28101044223E+02  0.00000000000E+00 0.  1.
          5    1    1    2  501    0  0.79536138098E+01  0.22282656583E+01 -0.26520118472E+02  0.28171471816E+02  0.47000000000E+01 0.  1.
         -5    1    1    2    0  502 -0.79536138098E+01 -0.22282656583E+01  0.29140563766E+02  0.30651061924E+02  0.47000000000E+01 0.  1.
<mgrwt>
<rscale>  2 0.95034278E+01</rscale>
<asrwt>0</asrwt>
<pdfrwt beam="1">  1       21 0.47263830E-02 0.95034278E+01</pdfrwt>
<pdfrwt beam="2">  1       21 0.43232376E-02 0.95034278E+01</pdfrwt>
<totfact> 0.51947712E+07</totfact>
</mgrwt>
</event>
<event>
 4    1  0.4144004E+006  0.6555960E+01  0.7546771E-02  0.2348232E+00
         21   -1    0    0  503  502  0.00000000000E+00  0.00000000000E+00  0.14364739845E+03  0.14364739845E+03  0.00000000000E+00 0. -1.
         21   -1    0    0  501  503 -0.00000000000E+00 -0.00000000000E+00 -0.35729911136E+00  0.35729911136E+00  0.00000000000E+00 0. -1.
          5    1    1    2  501    0  0.16295664025E+01  0.42702600058E+01  0.42612747936E+02  0.43114114786E+02  0.47000000000E+01 0. -1.
         -5    1    1    2    0  502 -0.16295664025E+01 -0.42702600058E+01  0.10067735141E+03  0.10089058278E+03  0.47000000000E+01 0. -1.
<mgrwt>
<rscale>  2 0.65559597E+01</rscale>
<asrwt>0</asrwt>
<pdfrwt beam="1">  1       21 0.22099554E-01 0.65559597E+01</pdfrwt>
<pdfrwt beam="2">  1       21 0.54969209E-04 0.65559597E+01</pdfrwt>
<totfact> 0.17667563E+09</totfact>
</mgrwt>
</event>
<event>
 4    1  0.4144004E+006  0.6542768E+01  0.7546771E-02  0.2349716E+00
         21   -1    0    0  501  502  0.00000000000E+00  0.00000000000E+00  0.72458531235E+00  0.72458531235E+00  0.00000000000E+00 0.  1.
         21   -1    0    0  502  503 -0.00000000000E+00 -0.00000000000E+00 -0.59084607564E+02  0.59084607564E+02  0.00000000000E+00 0.  1.
          5    1    1    2  501    0 -0.23070591966E+01  0.39236832700E+01 -0.29470018036E+02  0.30187576511E+02  0.47000000000E+01 0.  1.
         -5    1    1    2    0  503  0.23070591966E+01 -0.39236832700E+01 -0.28890004215E+02  0.29621616365E+02  0.47000000000E+01 0.  1.
<mgrwt>
<rscale>  2 0.65427680E+01</rscale>
<asrwt>0</asrwt>
<pdfrwt beam="1">  1       21 0.11147470E-03 0.65427680E+01</pdfrwt>
<pdfrwt beam="2">  1       21 0.90899366E-02 0.65427680E+01</pdfrwt>
<totfact> 0.27794024E+09</totfact>
</mgrwt>
</event>
<event>
 4    1  0.4144004E+006  0.9699369E+01  0.7546771E-02  0.2092512E+00
         21   -1    0    0  503  502  0.00000000000E+00  0.00000000000E+00  0.76665762149E+01  0.76665762149E+01  0.00000000000E+00 0. -1.
         21   -1    0    0  501  503 -0.00000000000E+00 -0.00000000000E+00 -0.19535506191E+02  0.19535506191E+02  0.00000000000E+00 0. -1.
          5    1    1    2  501    0 -0.44080876902E+01 -0.72495877171E+01 -0.14228353300E+02  0.17219866340E+02  0.47000000000E+01 0. -1.
         -5    1    1    2    0  502  0.44080876902E+01  0.72495877171E+01  0.23594233240E+01  0.99822160653E+01  0.47000000000E+01 0. -1.
<mgrwt>
<rscale>  2 0.96993690E+01</rscale>
<asrwt>0</asrwt>
<pdfrwt beam="1">  1       21 0.11794733E-02 0.96993690E+01</pdfrwt>
<pdfrwt beam="2">  1       21 0.30054624E-02 0.96993690E+01</pdfrwt>
<totfact> 0.71395254E+08</totfact>
</mgrwt>
</event>
<event>
 4    1  0.4144004E+006  0.5683144E+01  0.7546771E-02  0.2458582E+00
         21   -1    0    0  501  502  0.00000000000E+00  0.00000000000E+00  0.85324532794E+01  0.85324532794E+01  0.00000000000E+00 0. -1.
         21   -1    0    0  502  503 -0.00000000000E+00 -0.00000000000E+00 -0.42263438550E+01  0.42263438550E+01  0.00000000000E+00 0.  1.
          5    1    1    2  501    0  0.14636223618E+01  0.28400597975E+01  0.92307749768E-01  0.56838939814E+01  0.47000000000E+01 0.  1.
         -5    1    1    2    0  503 -0.14636223618E+01 -0.28400597975E+01  0.42138016746E+01  0.70749031530E+01  0.47000000000E+01 0. -1.
<mgrwt>
<rscale>  2 0.56831444E+01</rscale>
<asrwt>0</asrwt>
<pdfrwt beam="1">  1       21 0.13126851E-02 0.56831444E+01</pdfrwt>
<pdfrwt beam="2">  1       21 0.65020675E-03 0.56831444E+01</pdfrwt>
<totfact> 0.37391938E+09</totfact>
</mgrwt>
</event>
<event>
 4    1  0.4144004E+006  0.6721099E+01  0.7546771E-02  0.2330064E+00
         21   -1    0    0  501  502  0.00000000000E+00  0.00000000000E+00  0.35994770266E+01  0.35994770266E+01  0.00000000000E+00 0. -1.
         21   -1    0    0  502  503 -0.00000000000E+00 -0.00000000000E+00 -0.21795303786E+02  0.21795303786E+02  0.00000000000E+00 0.  1.
          5    1    1    2  501    0 -0.41431298663E+01 -0.24326201755E+01 -0.17367720280E+02  0.18622858903E+02  0.47000000000E+01 0.  1.
         -5    1    1    2    0  503  0.41431298663E+01  0.24326201755E+01 -0.82810647971E+00  0.67719219095E+01  0.47000000000E+01 0. -1.
<mgrwt>
<rscale>  2 0.67210986E+01</rscale>
<asrwt>0</asrwt>
<pdfrwt beam="1">  1       21 0.55376571E-03 0.67210986E+01</pdfrwt>
<pdfrwt beam="2">  1       21 0.33531236E-02 0.67210986E+01</pdfrwt>
<totfact> 0.13970424E+09</totfact>
</mgrwt>
</event>
<event>
 4    1  0.4144004E+006  0.6937725E+01  0.7546771E-02  0.2307318E+00
         21   -1    0    0  501  502  0.00000000000E+00  0.00000000000E+00  0.24413655373E+02  0.24413655373E+02  0.00000000000E+00 0.  1.
         21   -1    0    0  502  503 -0.00000000000E+00 -0.00000000000E+00 -0.60089410713E+01  0.60089410713E+01  0.00000000000E+00 0.  1.
          5    1    1    2  501    0 -0.42490317825E+01 -0.28262614084E+01  0.21671003251E+02  0.22754437073E+02  0.47000000000E+01 0.  1.
         -5    1    1    2    0  503  0.42490317825E+01  0.28262614084E+01 -0.32662889491E+01  0.76681593708E+01  0.47000000000E+01 0.  1.
<mgrwt>
<rscale>  2 0.69377247E+01</rscale>
<asrwt>0</asrwt>
<pdfrwt beam="1">  1       21 0.37559469E-02 0.69377247E+01</pdfrwt>
<pdfrwt beam="2">  1       21 0.92445249E-03 0.69377247E+01</pdfrwt>
<totfact> 0.58685436E+08</totfact>
</mgrwt>
</event>
<event>
 4    1  0.4144004E+006  0.5052490E+01  0.7546771E-02  0.2557925E+00
         21   -1    0    0  501  502  0.00000000000E+00  0.00000000000E+00  0.16238956335E+01  0.16238956335E+01  0.00000000000E+00 0. -1.
         21   -1    0    0  502  503 -0.00000000000E+00 -0.00000000000E+00 -0.21075694673E+02  0.21075694673E+02  0.00000000000E+00 0.  1.
          5    1    1    2  501    0  0.18482730245E+01 -0.14678410486E+00 -0.40044707556E+01  0.64469717526E+01  0.47000000000E+01 0. -1.
         -5    1    1    2    0  503 -0.18482730245E+01  0.14678410486E+00 -0.15447328284E+02  0.16252618554E+02  0.47000000000E+01 0. -1.
<mgrwt>
<rscale>  2 0.50524904E+01</rscale>
<asrwt>0</asrwt>
<pdfrwt beam="1">  1       21 0.24983011E-03 0.50524904E+01</pdfrwt>
<pdfrwt beam="2">  1       21 0.32424144E-02 0.50524904E+01</pdfrwt>
<totfact> 0.34095468E+09</totfact>
</mgrwt>
</event>
<event>
 4    1  0.4144004E+006  0.6786854E+01  0.7546771E-02  0.2323034E+00
         21   -1    0    0  503  502  0.00000000000E+00  0.00000000000E+00  0.77652728075E+02  0.77652728075E+02  0.00000000000E+00 0. -1.
         21   -1    0    0  501  503 -0.00000000000E+00 -0.00000000000E+00 -0.45629466859E+01  0.45629466859E+01  0.00000000000E+00 0.  1.
          5    1    1    2  501    0  0.42946007910E+01 -0.23511261225E+01 -0.17980030081E+01  0.70209831801E+01  0.47000000000E+01 0.  1.
         -5    1    1    2    0  502 -0.42946007910E+01  0.23511261225E+01  0.74887784397E+02  0.75194691581E+02  0.47000000000E+01 0. -1.
<mgrwt>
<rscale>  2 0.67868542E+01</rscale>
<asrwt>0</asrwt>
<pdfrwt beam="1">  1       21 0.11946573E-01 0.67868542E+01</pdfrwt>
<pdfrwt beam="2">  1       21 0.70199185E-03 0.67868542E+01</pdfrwt>
<totfact> 0.14732929E+08</totfact>
</mgrwt>
</event>
<event>
 4    1  0.4144004E+006  0.5879138E+01  0.7546771E-02  0.2431424E+00
         21   -1    0    0  501  502  0.00000000000E+00  0.00000000000E+00  0.72337364513E+00  0.72337364513E+00  0.00000000000E+00 0.  1.
         21   -1    0    0  502  503 -0.00000000000E+00 -0.00000000000E+00 -0.10231940093E+03  0.10231940093E+03  0.00000000000E+00 0.  1.
          5    1    1    2  501    0 -0.18852018745E+01  0.29866838522E+01 -0.13183485002E+02  0.14434976388E+02  0.47000000000E+01 0.  1.
         -5    1    1    2    0  503  0.18852018745E+01 -0.29866838522E+01 -0.88412542281E+02  0.88607798184E+02  0.47000000000E+01 0.  1.
<mgrwt>
<rscale>  2 0.58791382E+01</rscale>
<asrwt>0</asrwt>
<pdfrwt beam="1">  1       21 0.11128820E-03 0.58791382E+01</pdfrwt>
<pdfrwt beam="2">  1       21 0.15741453E-01 0.58791382E+01</pdfrwt>
<totfact> 0.10868984E+09</totfact>
</mgrwt>
</event>
<event>
 4    1  0.4144004E+006  0.6916721E+01  0.7546771E-02  0.2309472E+00
         21   -1    0    0  501  502  0.00000000000E+00  0.00000000000E+00  0.16275517679E+02  0.16275517679E+02  0.00000000000E+00 0. -1.
         21   -1    0    0  502  503 -0.00000000000E+00 -0.00000000000E+00 -0.26908681709E+02  0.26908681709E+02  0.00000000000E+00 0. -1.
          5    1    1    2  501    0 -0.46048736565E+00 -0.50536100376E+01  0.15062083881E+02  0.16574299196E+02  0.47000000000E+01 0. -1.
         -5    1    1    2    0  503  0.46048736565E+00  0.50536100376E+01 -0.25695247910E+02  0.26609900191E+02  0.47000000000E+01 0. -1.
<mgrwt>
<rscale>  2 0.69167205E+01</rscale>
<asrwt>0</asrwt>
<pdfrwt beam="1">  1       21 0.25039258E-02 0.69167205E+01</pdfrwt>
<pdfrwt beam="2">  1       21 0.41397971E-02 0.69167205E+01</pdfrwt>
<totfact> 0.12087417E+08</totfact>
</mgrwt>
</event>
<event>
 4    1  0.4144004E+006  0.5811116E+01  0.7546771E-02  0.2440675E+00
         21   -1    0    0  503  502  0.00000000000E+00  0.00000000000E+00  0.11116081559E+02  0.11116081559E+02  0.00000000000E+00 0. -1.
         21   -1    0    0  501  503 -0.00000000000E+00 -0.00000000000E+00 -0.31646342581E+01  0.31646342581E+01  0.00000000000E+00 0. -1.
          5    1    1    2  501    0  0.34107480143E+01 -0.21416306250E+00  0.25465709295E+01  0.63446112043E+01  0.47000000000E+01 0. -1.
         -5    1    1    2    0  502 -0.34107480143E+01  0.21416306250E+00  0.54048763709E+01  0.79361046124E+01  0.47000000000E+01 0. -1.
<mgrwt>
<rscale>  2 0.58111159E+01</rscale>
<asrwt>0</asrwt>
<pdfrwt beam="1">  1       21 0.17101664E-02 0.58111159E+01</pdfrwt>
<pdfrwt beam="2">  1       21 0.48686681E-03 0.58111159E+01</pdfrwt>
<totfact> 0.39173214E+09</totfact>
</mgrwt>
</event>
<event>
 4    1  0.4144004E+006  0.8391075E+01  0.7546771E-02  0.2180076E+00
         21   -1    0    0  501  502  0.00000000000E+00  0.00000000000E+00  0.54779409592E-01  0.54779409592E-01  0.00000000000E+00 0.  1.
         21   -1    0    0  502  503 -0.00000000000E+00 -0.00000000000E+00 -0.14774789985E+04  0.14774789985E+04  0.00000000000E+00 0.  1.
          5    1    1    2  501    0  0.61713918151E+01  0.31990710610E+01 -0.47229922700E+03  0.47237376087E+03  0.47000000000E+01 0.  1.
         -5    1    1    2    0  503 -0.61713918151E+01 -0.31990710610E+01 -0.10051249921E+04  0.10051600170E+04  0.47000000000E+01 0.  1.
<mgrwt>
<rscale>  2 0.83910746E+01</rscale>
<asrwt>0</asrwt>
<pdfrwt beam="1">  1       21 0.84285560E-05 0.83910746E+01</pdfrwt>
<pdfrwt beam="2">  1       21 0.22727872E+00 0.83910746E+01</pdfrwt>
<totfact> 0.26508227E+08</totfact>
</mgrwt>
</event>
<event>
 4    1  0.4144004E+006  0.7276448E+01  0.7546771E-02  0.2273994E+00
         21   -1    0    0  501  502  0.00000000000E+00  0.00000000000E+00  0.79987965985E-01  0.79987965985E-01  0.00000000000E+00 0.  1.
         21   -1    0    0  502  503 -0.00000000000E+00 -0.00000000000E+00 -0.70529115243E+03  0.70529115243E+03  0.00000000000E+00 0.  1.
          5    1    1    2  501    0 -0.17605144971E+01  0.52685184601E+01 -0.26516010164E+03  0.26525992196E+03  0.47000000000E+01 0.  1.
         -5    1    1    2    0  503  0.17605144971E+01 -0.52685184601E+01 -0.44005106283E+03  0.44011121844E+03  0.47000000000E+01 0.  1.
<mgrwt>
<rscale>  2 0.72764482E+01</rscale>
<asrwt>0</asrwt>
<pdfrwt beam="1">  1       21 0.12306500E-04 0.72764482E+01</pdfrwt>
<pdfrwt beam="2">  1       21 0.10850052E+00 0.72764482E+01</pdfrwt>
<totfact> 0.76751448E+08</totfact>
</mgrwt>
</event>
<event>
 4    1  0.4144004E+006  0.4743470E+01  0.7546771E-02  0.2614778E+00
         21   -1    0    0  501  502  0.00000000000E+00  0.00000000000E+00  0.19368645762E+02  0.19368645762E+02  0.00000000000E+00 0.  1.
         21   -1    0    0  502  503 -0.00000000000E+00 -0.00000000000E+00 -0.11916463988E+01  0.11916463988E+01  0.00000000000E+00 0.  1.
          5    1    1    2  501    0 -0.53096056155E+00 -0.35859617786E+00  0.10718226824E+02  0.11720959713E+02  0.47000000000E+01 0. -1.
         -5    1    1    2    0  503  0.53096056155E+00  0.35859617786E+00  0.74587725394E+01  0.88393324483E+01  0.47000000000E+01 0. -1.
<mgrwt>
<rscale>  2 0.47434703E+01</rscale>
<asrwt>0</asrwt>
<pdfrwt beam="1">  1       21 0.29797914E-02 0.47434703E+01</pdfrwt>
<pdfrwt beam="2">  1       21 0.18333023E-03 0.47434703E+01</pdfrwt>
<totfact> 0.54590783E+09</totfact>
</mgrwt>
</event>
<event>
 4    1  0.4144004E+006  0.1036361E+02  0.7546771E-02  0.2054866E+00
         21   -1    0    0  501  502  0.00000000000E+00  0.00000000000E+00  0.17371381174E+01  0.17371381174E+01  0.00000000000E+00 0.  1.
         21   -1    0    0  502  503 -0.00000000000E+00 -0.00000000000E+00 -0.64862049684E+02  0.64862049684E+02  0.00000000000E+00 0. -1.
          5    1    1    2  501    0  0.78330918708E+01  0.48945889265E+01 -0.38764107957E+02  0.40125557874E+02  0.47000000000E+01 0. -1.
         -5    1    1    2    0  503 -0.78330918708E+01 -0.48945889265E+01 -0.24360803609E+02  0.26473629927E+02  0.47000000000E+01 0.  1.
<mgrwt>
<rscale>  2 0.10363606E+02</rscale>
<asrwt>0</asrwt>
<pdfrwt beam="1">  1       21 0.26725197E-03 0.10363606E+02</pdfrwt>
<pdfrwt beam="2">  1       21 0.99787786E-02 0.10363606E+02</pdfrwt>
<totfact> 0.97788785E+08</totfact>
</mgrwt>
</event>
<event>
 4    1  0.4144004E+006  0.1212258E+02  0.7546771E-02  0.1971129E+00
         21   -1    0    0  503  502  0.00000000000E+00  0.00000000000E+00  0.23002173315E+02  0.23002173315E+02  0.00000000000E+00 0.  1.
         21   -1    0    0  501  503 -0.00000000000E+00 -0.00000000000E+00 -0.12116983664E+02  0.12116983664E+02  0.00000000000E+00 0. -1.
          5    1    1    2  501    0 -0.10891430307E+02 -0.24987522797E+01 -0.66306521808E+01  0.13817473193E+02  0.47000000000E+01 0. -1.
         -5    1    1    2    0  502  0.10891430307E+02  0.24987522797E+01  0.17515841831E+02  0.21301683787E+02  0.47000000000E+01 0.  1.
<mgrwt>
<rscale>  2 0.12122583E+02</rscale>
<asrwt>0</asrwt>
<pdfrwt beam="1">  1       21 0.35387959E-02 0.12122583E+02</pdfrwt>
<pdfrwt beam="2">  1       21 0.18641513E-02 0.12122583E+02</pdfrwt>
<totfact> 0.31932777E+08</totfact>
</mgrwt>
</event>
<event>
 4    1  0.4144004E+006  0.7831707E+01  0.7546771E-02  0.2224507E+00
         21   -1    0    0  503  502  0.00000000000E+00  0.00000000000E+00  0.96915886559E+00  0.96915886559E+00  0.00000000000E+00 0.  1.
         21   -1    0    0  501  503 -0.00000000000E+00 -0.00000000000E+00 -0.53482861693E+03  0.53482861693E+03  0.00000000000E+00 0. -1.
          5    1    1    2  501    0 -0.62607644638E+01  0.22015869693E+00 -0.51847918149E+03  0.51853832769E+03  0.47000000000E+01 0. -1.
         -5    1    1    2    0  502  0.62607644638E+01 -0.22015869693E+00 -0.15380276575E+02  0.17259448110E+02  0.47000000000E+01 0.  1.
<mgrwt>
<rscale>  2 0.78317074E+01</rscale>
<asrwt>0</asrwt>
<pdfrwt beam="1">  1       21 0.14910099E-03 0.78317074E+01</pdfrwt>
<pdfrwt beam="2">  1       21 0.82281531E-01 0.78317074E+01</pdfrwt>
<totfact> 0.48018510E+07</totfact>
</mgrwt>
</event>
<event>
 4    1  0.4144004E+006  0.5752050E+01  0.7546771E-02  0.2448857E+00
         21   -1    0    0  501  502  0.00000000000E+00  0.00000000000E+00  0.63577975214E+01  0.63577975214E+01  0.00000000000E+00 0.  1.
         21   -1    0    0  502  503 -0.00000000000E+00 -0.00000000000E+00 -0.63031548930E+01  0.63031548930E+01  0.00000000000E+00 0.  1.
          5    1    1    2  501    0  0.32913673922E+01  0.40370182744E+00  0.26708489281E+01  0.63418852460E+01  0.47000000000E+01 0.  1.
         -5    1    1    2    0  503 -0.32913673922E+01 -0.40370182744E+00 -0.26162062998E+01  0.63190671684E+01  0.47000000000E+01 0.  1.
<mgrwt>
<rscale>  2 0.57520496E+01</rscale>
<asrwt>0</asrwt>
<pdfrwt beam="1">  1       21 0.97812270E-03 0.57520496E+01</pdfrwt>
<pdfrwt beam="2">  1       21 0.96971614E-03 0.57520496E+01</pdfrwt>
<totfact> 0.32729830E+09</totfact>
</mgrwt>
</event>
<event>
 4    1  0.4144004E+006  0.5811871E+01  0.7546771E-02  0.2440571E+00
         21   -1    0    0  501  502  0.00000000000E+00  0.00000000000E+00  0.14988759629E+03  0.14988759629E+03  0.00000000000E+00 0. -1.
         21   -1    0    0  502  503 -0.00000000000E+00 -0.00000000000E+00 -0.23089095527E+00  0.23089095527E+00  0.00000000000E+00 0. -1.
          5    1    1    2  501    0 -0.12121450075E+01 -0.31966466790E+01  0.63205404283E+02  0.63472048778E+02  0.47000000000E+01 0. -1.
         -5    1    1    2    0  503  0.12121450075E+01  0.31966466790E+01  0.86451301052E+02  0.86646438468E+02  0.47000000000E+01 0. -1.
<mgrwt>
<rscale>  2 0.58118711E+01</rscale>
<asrwt>0</asrwt>
<pdfrwt beam="1">  1       21 0.23059552E-01 0.58118711E+01</pdfrwt>
<pdfrwt beam="2">  1       21 0.35521805E-04 0.58118711E+01</pdfrwt>
<totfact> 0.26863660E+09</totfact>
</mgrwt>
</event>
<event>
 4    1  0.4144004E+006  0.8587175E+01  0.7546771E-02  0.2165607E+00
         21   -1    0    0  503  502  0.00000000000E+00  0.00000000000E+00  0.13929750807E+04  0.13929750807E+04  0.00000000000E+00 0. -1.
         21   -1    0    0  501  503 -0.00000000000E+00 -0.00000000000E+00 -0.23148071609E+00  0.23148071609E+00  0.00000000000E+00 0. -1.
          5    1    1    2  501    0  0.66274970301E+01  0.27795438986E+01  0.84584173375E+02  0.85018950633E+02  0.47000000000E+01 0. -1.
         -5    1    1    2    0  502 -0.66274970301E+01 -0.27795438986E+01  0.13081594266E+04  0.13081876108E+04  0.47000000000E+01 0. -1.
<mgrwt>
<rscale>  2 0.85871754E+01</rscale>
<asrwt>0</asrwt>
<pdfrwt beam="1">  1       21 0.21429715E+00 0.85871754E+01</pdfrwt>
<pdfrwt beam="2">  1       21 0.35613533E-04 0.85871754E+01</pdfrwt>
<totfact> 0.43994338E+07</totfact>
</mgrwt>
</event>
<event>
 4    1  0.4144004E+006  0.8833515E+01  0.7546771E-02  0.2148163E+00
         21   -1    0    0  503  502  0.00000000000E+00  0.00000000000E+00  0.89434531137E+00  0.89434531137E+00  0.00000000000E+00 0. -1.
         21   -1    0    0  501  503 -0.00000000000E+00 -0.00000000000E+00 -0.10124502235E+03  0.10124502235E+03  0.00000000000E+00 0.  1.
          5    1    1    2  501    0 -0.38452060935E+01  0.64152451667E+01 -0.69163126268E+02  0.69724952604E+02  0.47000000000E+01 0.  1.
         -5    1    1    2    0  502  0.38452060935E+01 -0.64152451667E+01 -0.31187550771E+02  0.32414415058E+02  0.47000000000E+01 0. -1.
<mgrwt>
<rscale>  2 0.88335146E+01</rscale>
<asrwt>0</asrwt>
<pdfrwt beam="1">  1       21 0.13759168E-03 0.88335146E+01</pdfrwt>
<pdfrwt beam="2">  1       21 0.15576146E-01 0.88335146E+01</pdfrwt>
<totfact> 0.10992280E+09</totfact>
</mgrwt>
</event>
<event>
 4    1  0.4144004E+006  0.1163918E+02  0.7546771E-02  0.1992177E+00
         21   -1    0    0  503  502  0.00000000000E+00  0.00000000000E+00  0.50614615634E+02  0.50614615634E+02  0.00000000000E+00 0.  1.
         21   -1    0    0  501  503 -0.00000000000E+00 -0.00000000000E+00 -0.85191592187E+01  0.85191592187E+01  0.00000000000E+00 0. -1.
          5    1    1    2  501    0  0.78729188996E+01 -0.71692096123E+01 -0.34379549141E+01  0.12136307200E+02  0.47000000000E+01 0. -1.
         -5    1    1    2    0  502 -0.78729188996E+01  0.71692096123E+01  0.45533411329E+02  0.46997467652E+02  0.47000000000E+01 0.  1.
<mgrwt>
<rscale>  2 0.11639176E+02</rscale>
<asrwt>0</asrwt>
<pdfrwt beam="1">  1       21 0.77868638E-02 0.11639176E+02</pdfrwt>
<pdfrwt beam="2">  1       21 0.13106399E-02 0.11639176E+02</pdfrwt>
<totfact> 0.15569498E+08</totfact>
</mgrwt>
</event>
<event>
 4    1  0.4144004E+006  0.5211579E+01  0.7546771E-02  0.2530935E+00
         21   -1    0    0  501  502  0.00000000000E+00  0.00000000000E+00  0.98697612128E+02  0.98697612128E+02  0.00000000000E+00 0. -1.
         21   -1    0    0  502  503 -0.00000000000E+00 -0.00000000000E+00 -0.31966508575E+00  0.31966508575E+00  0.00000000000E+00 0. -1.
          5    1    1    2  501    0 -0.12171802423E+01 -0.18944731431E+01  0.67655862589E+02  0.67856291520E+02  0.47000000000E+01 0. -1.
         -5    1    1    2    0  503  0.12171802423E+01  0.18944731431E+01  0.30722084453E+02  0.31160985693E+02  0.47000000000E+01 0. -1.
<mgrwt>
<rscale>  2 0.52115791E+01</rscale>
<asrwt>0</asrwt>
<pdfrwt beam="1">  1       21 0.15184224E-01 0.52115791E+01</pdfrwt>
<pdfrwt beam="2">  1       21 0.49179323E-04 0.52115791E+01</pdfrwt>
<totfact> 0.30803415E+09</totfact>
</mgrwt>
</event>
<event>
 4    1  0.4144004E+006  0.6759242E+01  0.7546771E-02  0.2325972E+00
         21   -1    0    0  501  502  0.00000000000E+00  0.00000000000E+00  0.23967199580E+00  0.23967199580E+00  0.00000000000E+00 0. -1.
         21   -1    0    0  502  503 -0.00000000000E+00 -0.00000000000E+00 -0.40222648190E+03  0.40222648190E+03  0.00000000000E+00 0.  1.
          5    1    1    2  501    0  0.34157684625E+01 -0.34539661489E+01 -0.55036752338E+02  0.55450261174E+02  0.47000000000E+01 0. -1.
         -5    1    1    2    0  503 -0.34157684625E+01  0.34539661489E+01 -0.34695005757E+03  0.34701589273E+03  0.47000000000E+01 0.  1.
<mgrwt>
<rscale>  2 0.67592423E+01</rscale>
<asrwt>0</asrwt>
<pdfrwt beam="1">  1       21 0.36872689E-04 0.67592423E+01</pdfrwt>
<pdfrwt beam="2">  1       21 0.61880872E-01 0.67592423E+01</pdfrwt>
<totfact> 0.51056468E+08</totfact>
</mgrwt>
</event>
<event>
 4    1  0.4144004E+006  0.6594600E+01  0.7546771E-02  0.2343914E+00
         21   -1    0    0  501  502  0.00000000000E+00  0.00000000000E+00  0.11186851367E+00  0.11186851367E+00  0.00000000000E+00 0.  1.
         21   -1    0    0  502  503 -0.00000000000E+00 -0.00000000000E+00 -0.38877284274E+03  0.38877284274E+03  0.00000000000E+00 0.  1.
          5    1    1    2  501    0 -0.13793245107E+01 -0.44154521284E+01 -0.19280228822E+03  0.19291503595E+03  0.47000000000E+01 0.  1.
         -5    1    1    2    0  503  0.13793245107E+01  0.44154521284E+01 -0.19585868601E+03  0.19596967531E+03  0.47000000000E+01 0.  1.
<mgrwt>
<rscale>  2 0.65946003E+01</rscale>
<asrwt>0</asrwt>
<pdfrwt beam="1">  1       21 0.17210430E-04 0.65946003E+01</pdfrwt>
<pdfrwt beam="2">  1       21 0.59811589E-01 0.65946003E+01</pdfrwt>
<totfact> 0.14857685E+09</totfact>
</mgrwt>
</event>
<event>
 4    1  0.4144004E+006  0.9971321E+01  0.7546771E-02  0.2076624E+00
         21   -1    0    0  503  502  0.00000000000E+00  0.00000000000E+00  0.32111902670E+02  0.32111902670E+02  0.00000000000E+00 0.  1.
         21   -1    0    0  501  503 -0.00000000000E+00 -0.00000000000E+00 -0.32029339381E+01  0.32029339381E+01  0.00000000000E+00 0. -1.
          5    1    1    2  501    0  0.85879373595E+01  0.18932951083E+01  0.17676701638E+02  0.20295147579E+02  0.47000000000E+01 0.  1.
         -5    1    1    2    0  502 -0.85879373595E+01 -0.18932951083E+01  0.11232267094E+02  0.15019689029E+02  0.47000000000E+01 0. -1.
<mgrwt>
<rscale>  2 0.99713206E+01</rscale>
<asrwt>0</asrwt>
<pdfrwt beam="1">  1       21 0.49402925E-02 0.99713206E+01</pdfrwt>
<pdfrwt beam="2">  1       21 0.49275909E-03 0.99713206E+01</pdfrwt>
<totfact> 0.12021320E+09</totfact>
</mgrwt>
</event>
<event>
 4    1  0.4144004E+006  0.7794526E+01  0.7546771E-02  0.2227642E+00
         21   -1    0    0  501  502  0.00000000000E+00  0.00000000000E+00  0.16281863013E+00  0.16281863013E+00  0.00000000000E+00 0. -1.
         21   -1    0    0  502  503 -0.00000000000E+00 -0.00000000000E+00 -0.37788990777E+03  0.37788990777E+03  0.00000000000E+00 0. -1.
          5    1    1    2  501    0 -0.88459152409E+00 -0.61548460128E+01 -0.16767772505E+03  0.16785879217E+03  0.47000000000E+01 0. -1.
         -5    1    1    2    0  503  0.88459152409E+00  0.61548460128E+01 -0.21004936410E+03  0.21019393423E+03  0.47000000000E+01 0. -1.
<mgrwt>
<rscale>  2 0.77945257E+01</rscale>
<asrwt>0</asrwt>
<pdfrwt beam="1">  1       21 0.25049379E-04 0.77945257E+01</pdfrwt>
<pdfrwt beam="2">  1       21 0.58136076E-01 0.77945257E+01</pdfrwt>
<totfact> 0.10549961E+09</totfact>
</mgrwt>
</event>
<event>
 4    1  0.4144004E+006  0.6869196E+01  0.7546771E-02  0.2314386E+00
         21   -1    0    0  501  502  0.00000000000E+00  0.00000000000E+00  0.76772522936E+03  0.76772522936E+03  0.00000000000E+00 0. -1.
         21   -1    0    0  502  503 -0.00000000000E+00 -0.00000000000E+00 -0.18759736107E+00  0.18759736107E+00  0.00000000000E+00 0. -1.
          5    1    1    2  501    0 -0.16303914864E+01  0.47368418774E+01  0.69860683565E+03  0.69864060622E+03  0.47000000000E+01 0. -1.
         -5    1    1    2    0  503  0.16303914864E+01 -0.47368418774E+01  0.68930796348E+02  0.69272220496E+02  0.47000000000E+01 0. -1.
<mgrwt>
<rscale>  2 0.68691955E+01</rscale>
<asrwt>0</asrwt>
<pdfrwt beam="1">  1       21 0.11810906E+00 0.68691955E+01</pdfrwt>
<pdfrwt beam="2">  1       21 0.28861747E-04 0.68691955E+01</pdfrwt>
<totfact> 0.19833725E+08</totfact>
</mgrwt>
</event>
<event>
 4    1  0.4144004E+006  0.6825465E+01  0.7546771E-02  0.2318957E+00
         21   -1    0    0  501  502  0.00000000000E+00  0.00000000000E+00  0.18558239598E+00  0.18558239598E+00  0.00000000000E+00 0.  1.
         21   -1    0    0  502  503 -0.00000000000E+00 -0.00000000000E+00 -0.27550181301E+03  0.27550181301E+03  0.00000000000E+00 0. -1.
          5    1    1    2  501    0 -0.48813582125E+01 -0.81811477788E+00 -0.17873970053E+03  0.17886997377E+03  0.47000000000E+01 0.  1.
         -5    1    1    2    0  503  0.48813582125E+01  0.81811477788E+00 -0.96576530089E+02  0.96817421644E+02  0.47000000000E+01 0. -1.
<mgrwt>
<rscale>  2 0.68254648E+01</rscale>
<asrwt>0</asrwt>
<pdfrwt beam="1">  1       21 0.28551233E-04 0.68254648E+01</pdfrwt>
<pdfrwt beam="2">  1       21 0.42384753E-01 0.68254648E+01</pdfrwt>
<totfact> 0.14451546E+09</totfact>
</mgrwt>
</event>
<event>
 4    1  0.4144004E+006  0.5701634E+01  0.7546771E-02  0.2455953E+00
         21   -1    0    0  501  502  0.00000000000E+00  0.00000000000E+00  0.10092228647E+01  0.10092228647E+01  0.00000000000E+00 0.  1.
         21   -1    0    0  502  503 -0.00000000000E+00 -0.00000000000E+00 -0.51996314060E+02  0.51996314060E+02  0.00000000000E+00 0.  1.
          5    1    1    2  501    0  0.32075039754E+01  0.36131526556E+00 -0.91453273820E+01  0.10777088818E+02  0.47000000000E+01 0.  1.
         -5    1    1    2    0  503 -0.32075039754E+01 -0.36131526556E+00 -0.41841763813E+02  0.42228448106E+02  0.47000000000E+01 0.  1.
<mgrwt>
<rscale>  2 0.57016340E+01</rscale>
<asrwt>0</asrwt>
<pdfrwt beam="1">  1       21 0.15526502E-03 0.57016340E+01</pdfrwt>
<pdfrwt beam="2">  1       21 0.79994348E-02 0.57016340E+01</pdfrwt>
<totfact> 0.19228951E+09</totfact>
</mgrwt>
</event>
<event>
 4    1  0.4144004E+006  0.6392073E+01  0.7546771E-02  0.2367027E+00
         21   -1    0    0  501  502  0.00000000000E+00  0.00000000000E+00  0.16476802681E+02  0.16476802681E+02  0.00000000000E+00 0.  1.
         21   -1    0    0  502  503 -0.00000000000E+00 -0.00000000000E+00 -0.83460046709E+01  0.83460046709E+01  0.00000000000E+00 0. -1.
          5    1    1    2  501    0  0.41659185117E-01  0.43320739259E+01  0.14470863880E+02  0.15819750359E+02  0.47000000000E+01 0.  1.
         -5    1    1    2    0  503 -0.41659185117E-01 -0.43320739259E+01 -0.63400658698E+01  0.90030569931E+01  0.47000000000E+01 0. -1.
<mgrwt>
<rscale>  2 0.63920732E+01</rscale>
<asrwt>0</asrwt>
<pdfrwt beam="1">  1       21 0.25348927E-02 0.63920732E+01</pdfrwt>
<pdfrwt beam="2">  1       21 0.12840007E-02 0.63920732E+01</pdfrwt>
<totfact> 0.61664961E+08</totfact>
</mgrwt>
</event>
<event>
 4    1  0.4144004E+006  0.5353275E+01  0.7546771E-02  0.2508057E+00
         21   -1    0    0  501  502  0.00000000000E+00  0.00000000000E+00  0.36594324881E+01  0.36594324881E+01  0.00000000000E+00 0.  1.
         21   -1    0    0  502  503 -0.00000000000E+00 -0.00000000000E+00 -0.10658707376E+02  0.10658707376E+02  0.00000000000E+00 0. -1.
          5    1    1    2  501    0  0.67540160546E+00 -0.24721209685E+01  0.18767865657E+00  0.53565635150E+01  0.47000000000E+01 0.  1.
         -5    1    1    2    0  503 -0.67540160546E+00  0.24721209685E+01 -0.71869535444E+01  0.89615763491E+01  0.47000000000E+01 0. -1.
<mgrwt>
<rscale>  2 0.53532746E+01</rscale>
<asrwt>0</asrwt>
<pdfrwt beam="1">  1       21 0.56298962E-03 0.53532746E+01</pdfrwt>
<pdfrwt beam="2">  1       21 0.16398011E-02 0.53532746E+01</pdfrwt>
<totfact> 0.31483309E+09</totfact>
</mgrwt>
</event>
<event>
 4    1  0.4144004E+006  0.6360665E+01  0.7546771E-02  0.2370720E+00
         21   -1    0    0  503  502  0.00000000000E+00  0.00000000000E+00  0.22966956482E+03  0.22966956482E+03  0.00000000000E+00 0. -1.
         21   -1    0    0  501  503 -0.00000000000E+00 -0.00000000000E+00 -0.30814167372E+00  0.30814167372E+00  0.00000000000E+00 0. -1.
          5    1    1    2  501    0 -0.21092137832E+01 -0.37308544152E+01  0.39424706736E+02  0.39934515881E+02  0.47000000000E+01 0. -1.
         -5    1    1    2    0  502  0.21092137832E+01  0.37308544152E+01  0.18993671641E+03  0.19004319061E+03  0.47000000000E+01 0. -1.
<mgrwt>
<rscale>  2 0.63606649E+01</rscale>
<asrwt>0</asrwt>
<pdfrwt beam="1">  1       21 0.35333642E-01 0.63606649E+01</pdfrwt>
<pdfrwt beam="2">  1       21 0.47406595E-04 0.63606649E+01</pdfrwt>
<totfact> 0.95765405E+08</totfact>
</mgrwt>
</event>
<event>
 4    1  0.4144004E+006  0.9169969E+01  0.7546771E-02  0.2125550E+00
         21   -1    0    0  503  502  0.00000000000E+00  0.00000000000E+00  0.79716066893E-01  0.79716066893E-01  0.00000000000E+00 0.  1.
         21   -1    0    0  501  503 -0.00000000000E+00 -0.00000000000E+00 -0.10632512538E+04  0.10632512538E+04  0.00000000000E+00 0. -1.
          5    1    1    2  501    0 -0.23161363617E+01 -0.75255464909E+01 -0.57885113114E+03  0.57892376040E+03  0.47000000000E+01 0.  1.
         -5    1    1    2    0  502  0.23161363617E+01  0.75255464909E+01 -0.48432040661E+03  0.48440720948E+03  0.47000000000E+01 0. -1.
<mgrwt>
<rscale>  2 0.91699693E+01</rscale>
<asrwt>0</asrwt>
<pdfrwt beam="1">  1       21 0.12263111E-04 0.91699693E+01</pdfrwt>
<pdfrwt beam="2">  1       21 0.16358911E+00 0.91699693E+01</pdfrwt>
<totfact> 0.35690632E+08</totfact>
</mgrwt>
</event>
<event>
 4    1  0.4144004E+006  0.5969611E+01  0.7546771E-02  0.2419396E+00
         21   -1    0    0  501  502  0.00000000000E+00  0.00000000000E+00  0.81730235965E+01  0.81730235965E+01  0.00000000000E+00 0.  1.
         21   -1    0    0  502  503 -0.00000000000E+00 -0.00000000000E+00 -0.21269584660E+02  0.21269584660E+02  0.00000000000E+00 0. -1.
          5    1    1    2  501    0 -0.25936991425E+01  0.26113172574E+01  0.65776563622E+01  0.88826694343E+01  0.47000000000E+01 0.  1.
         -5    1    1    2    0  503  0.25936991425E+01 -0.26113172574E+01 -0.19674217426E+02  0.20559938822E+02  0.47000000000E+01 0. -1.
<mgrwt>
<rscale>  2 0.59696108E+01</rscale>
<asrwt>0</asrwt>
<pdfrwt beam="1">  1       21 0.12573882E-02 0.59696108E+01</pdfrwt>
<pdfrwt beam="2">  1       21 0.32722438E-02 0.59696108E+01</pdfrwt>
<totfact> 0.41582153E+08</totfact>
</mgrwt>
</event>
<event>
 4    1  0.4144004E+006  0.5230839E+01  0.7546771E-02  0.2527763E+00
         21   -1    0    0  503  502  0.00000000000E+00  0.00000000000E+00  0.66793027437E+01  0.66793027437E+01  0.00000000000E+00 0.  1.
         21   -1    0    0  501  503 -0.00000000000E+00 -0.00000000000E+00 -0.67989784180E+01  0.67989784180E+01  0.00000000000E+00 0.  1.
          5    1    1    2  501    0 -0.95304704784E+00 -0.20888695012E+01 -0.43086240114E+01  0.67768661887E+01  0.47000000000E+01 0.  1.
         -5    1    1    2    0  502  0.95304704784E+00  0.20888695012E+01  0.41889483371E+01  0.67014149729E+01  0.47000000000E+01 0.  1.
<mgrwt>
<rscale>  2 0.52308388E+01</rscale>
<asrwt>0</asrwt>
<pdfrwt beam="1">  1       21 0.10275850E-02 0.52308388E+01</pdfrwt>
<pdfrwt beam="2">  1       21 0.10459967E-02 0.52308388E+01</pdfrwt>
<totfact> 0.25096214E+09</totfact>
</mgrwt>
</event>
<event>
 4    1  0.4144004E+006  0.7261958E+01  0.7546771E-02  0.2275368E+00
         21   -1    0    0  503  502  0.00000000000E+00  0.00000000000E+00  0.76524703764E+02  0.76524703764E+02  0.00000000000E+00 0.  1.
         21   -1    0    0  501  503 -0.00000000000E+00 -0.00000000000E+00 -0.10469559322E+01  0.10469559322E+01  0.00000000000E+00 0.  1.
          5    1    1    2  501    0 -0.17603178756E+01  0.52485536501E+01  0.15064238681E+02  0.16723256904E+02  0.47000000000E+01 0.  1.
         -5    1    1    2    0  502  0.17603178756E+01 -0.52485536501E+01  0.60413509151E+02  0.60848402792E+02  0.47000000000E+01 0.  1.
<mgrwt>
<rscale>  2 0.72619580E+01</rscale>
<asrwt>0</asrwt>
<pdfrwt beam="1">  1       21 0.11773027E-01 0.72619580E+01</pdfrwt>
<pdfrwt beam="2">  1       21 0.16107020E-03 0.72619580E+01</pdfrwt>
<totfact> 0.12183606E+09</totfact>
</mgrwt>
</event>
<event>
 4    1  0.4144004E+006  0.4867545E+01  0.7546771E-02  0.2591201E+00
         21   -1    0    0  503  502  0.00000000000E+00  0.00000000000E+00  0.77673683668E+00  0.77673683668E+00  0.00000000000E+00 0.  1.
         21   -1    0    0  501  503 -0.00000000000E+00 -0.00000000000E+00 -0.65875062730E+02  0.65875062730E+02  0.00000000000E+00 0.  1.
          5    1    1    2  501    0  0.90610123705E+00  0.88429262010E+00 -0.56969410452E+02  0.57176977186E+02  0.47000000000E+01 0.  1.
         -5    1    1    2    0  502 -0.90610123705E+00 -0.88429262010E+00 -0.81289154406E+01  0.94748223799E+01  0.47000000000E+01 0.  1.
<mgrwt>
<rscale>  2 0.48675449E+01</rscale>
<asrwt>0</asrwt>
<pdfrwt beam="1">  1       21 0.11949795E-03 0.48675449E+01</pdfrwt>
<pdfrwt beam="2">  1       21 0.10134627E-01 0.48675449E+01</pdfrwt>
<totfact> 0.16509792E+09</totfact>
</mgrwt>
</event>
<event>
 4    1  0.4144004E+006  0.9440875E+01  0.7546771E-02  0.2108278E+00
         21   -1    0    0  501  502  0.00000000000E+00  0.00000000000E+00  0.13593481264E+02  0.13593481264E+02  0.00000000000E+00 0.  1.
         21   -1    0    0  502  503 -0.00000000000E+00 -0.00000000000E+00 -0.10207818972E+02  0.10207818972E+02  0.00000000000E+00 0. -1.
          5    1    1    2  501    0  0.53406311669E+01 -0.62062686566E+01  0.88100384522E+01  0.12913051128E+02  0.47000000000E+01 0.  1.
         -5    1    1    2    0  503 -0.53406311669E+01  0.62062686566E+01 -0.54243761601E+01  0.10888249107E+02  0.47000000000E+01 0. -1.
<mgrwt>
<rscale>  2 0.94408745E+01</rscale>
<asrwt>0</asrwt>
<pdfrwt beam="1">  1       21 0.20913048E-02 0.94408745E+01</pdfrwt>
<pdfrwt beam="2">  1       21 0.15704337E-02 0.94408745E+01</pdfrwt>
<totfact> 0.79343249E+08</totfact>
</mgrwt>
</event>
<event>
 4    1  0.4144004E+006  0.4889547E+01  0.7546771E-02  0.2587129E+00
         21   -1    0    0  501  502  0.00000000000E+00  0.00000000000E+00  0.41291664158E+02  0.41291664158E+02  0.00000000000E+00 0. -1.
         21   -1    0    0  502  503 -0.00000000000E+00 -0.00000000000E+00 -0.63921377655E+00  0.63921377655E+00  0.00000000000E+00 0. -1.
          5    1    1    2  501    0  0.25913168548E+00  0.13230726934E+01  0.26761195621E+02  0.27204214042E+02  0.47000000000E+01 0. -1.
         -5    1    1    2    0  503 -0.25913168548E+00 -0.13230726934E+01  0.13891254761E+02  0.14726663893E+02  0.47000000000E+01 0. -1.
<mgrwt>
<rscale>  2 0.48895471E+01</rscale>
<asrwt>0</asrwt>
<pdfrwt beam="1">  1       21 0.63525616E-02 0.48895471E+01</pdfrwt>
<pdfrwt beam="2">  1       21 0.98340613E-04 0.48895471E+01</pdfrwt>
<totfact> 0.43126936E+09</totfact>
</mgrwt>
</event>
<event>
 4    1  0.4144004E+006  0.5687546E+01  0.7546771E-02  0.2457955E+00
         21   -1    0    0  503  502  0.00000000000E+00  0.00000000000E+00  0.13390231763E+01  0.13390231763E+01  0.00000000000E+00 0. -1.
         21   -1    0    0  501  503 -0.00000000000E+00 -0.00000000000E+00 -0.24273873488E+02  0.24273873488E+02  0.00000000000E+00 0.  1.
          5    1    1    2  501    0 -0.16932021669E+01  0.27186835795E+01 -0.12352089015E+02  0.13598613055E+02  0.47000000000E+01 0.  1.
         -5    1    1    2    0  502  0.16932021669E+01 -0.27186835795E+01 -0.10582761297E+02  0.12014283609E+02  0.47000000000E+01 0. -1.
<mgrwt>
<rscale>  2 0.56875455E+01</rscale>
<asrwt>0</asrwt>
<pdfrwt beam="1">  1       21 0.20600356E-03 0.56875455E+01</pdfrwt>
<pdfrwt beam="2">  1       21 0.37344421E-02 0.56875455E+01</pdfrwt>
<totfact> 0.40501234E+09</totfact>
</mgrwt>
</event>
<event>
 4    1  0.4144004E+006  0.5995653E+01  0.7546771E-02  0.2415990E+00
         21   -1    0    0  501  502  0.00000000000E+00  0.00000000000E+00  0.47430221584E+01  0.47430221584E+01  0.00000000000E+00 0.  1.
         21   -1    0    0  502  503 -0.00000000000E+00 -0.00000000000E+00 -0.85305025782E+01  0.85305025782E+01  0.00000000000E+00 0. -1.
          5    1    1    2  501    0  0.12654961439E+01  0.35009109153E+01 -0.41101508737E+01  0.72691951364E+01  0.47000000000E+01 0. -1.
         -5    1    1    2    0  503 -0.12654961439E+01 -0.35009109153E+01  0.32267045388E+00  0.60043296003E+01  0.47000000000E+01 0.  1.
<mgrwt>
<rscale>  2 0.59956532E+01</rscale>
<asrwt>0</asrwt>
<pdfrwt beam="1">  1       21 0.72969572E-03 0.59956532E+01</pdfrwt>
<pdfrwt beam="2">  1       21 0.13123850E-02 0.59956532E+01</pdfrwt>
<totfact> 0.33432369E+09</totfact>
</mgrwt>
</event>
<event>
 4    1  0.4144004E+006  0.6345976E+01  0.7546771E-02  0.2372458E+00
         21   -1    0    0  503  502  0.00000000000E+00  0.00000000000E+00  0.89486394687E+00  0.89486394687E+00  0.00000000000E+00 0. -1.
         21   -1    0    0  501  503 -0.00000000000E+00 -0.00000000000E+00 -0.57590514687E+02  0.57590514687E+02  0.00000000000E+00 0. -1.
          5    1    1    2  501    0  0.97164060711E+00 -0.41517865543E+01 -0.42019276784E+02  0.42495776714E+02  0.47000000000E+01 0. -1.
         -5    1    1    2    0  502 -0.97164060711E+00  0.41517865543E+01 -0.14676373956E+02  0.15989601920E+02  0.47000000000E+01 0. -1.
<mgrwt>
<rscale>  2 0.63459764E+01</rscale>
<asrwt>0</asrwt>
<pdfrwt beam="1">  1       21 0.13767135E-03 0.63459764E+01</pdfrwt>
<pdfrwt beam="2">  1       21 0.88600809E-02 0.63459764E+01</pdfrwt>
<totfact> 0.21188297E+09</totfact>
</mgrwt>
</event>
<event>
 4    1  0.4144004E+006  0.7680014E+01  0.7546771E-02  0.2237449E+00
         21   -1    0    0  501  502  0.00000000000E+00  0.00000000000E+00  0.18015678107E+02  0.18015678107E+02  0.00000000000E+00 0.  1.
         21   -1    0    0  502  503 -0.00000000000E+00 -0.00000000000E+00 -0.68636931345E+01  0.68636931345E+01  0.00000000000E+00 0.  1.
          5    1    1    2  501    0  0.37110900427E+01 -0.48083701449E+01  0.14572243124E+02  0.16472185114E+02  0.47000000000E+01 0.  1.
         -5    1    1    2    0  503 -0.37110900427E+01  0.48083701449E+01 -0.34202581518E+01  0.84071861274E+01  0.47000000000E+01 0.  1.
<mgrwt>
<rscale>  2 0.76800139E+01</rscale>
<asrwt>0</asrwt>
<pdfrwt beam="1">  1       21 0.27716428E-02 0.76800139E+01</pdfrwt>
<pdfrwt beam="2">  1       21 0.10559528E-02 0.76800139E+01</pdfrwt>
<totfact> 0.81593021E+08</totfact>
</mgrwt>
</event>
<event>
 4    1  0.4144004E+006  0.4799462E+01  0.7546771E-02  0.2604008E+00
         21   -1    0    0  503  502  0.00000000000E+00  0.00000000000E+00  0.51897720364E+00  0.51897720364E+00  0.00000000000E+00 0.  1.
         21   -1    0    0  501  503 -0.00000000000E+00 -0.00000000000E+00 -0.29358479116E+03  0.29358479116E+03  0.00000000000E+00 0. -1.
          5    1    1    2  501    0 -0.64256695512E+00 -0.72934382528E+00 -0.28201365966E+03  0.28205449663E+03  0.47000000000E+01 0. -1.
         -5    1    1    2    0  502  0.64256695512E+00  0.72934382528E+00 -0.11052154297E+02  0.12049271733E+02  0.47000000000E+01 0.  1.
<mgrwt>
<rscale>  2 0.47994619E+01</rscale>
<asrwt>0</asrwt>
<pdfrwt beam="1">  1       21 0.79842679E-04 0.47994619E+01</pdfrwt>
<pdfrwt beam="2">  1       21 0.45166873E-01 0.47994619E+01</pdfrwt>
<totfact> 0.25227693E+08</totfact>
</mgrwt>
</event>
<event>
 4    1  0.4144004E+006  0.1187204E+02  0.7546771E-02  0.1981873E+00
         21   -1    0    0  501  502  0.00000000000E+00  0.00000000000E+00  0.23160787619E+01  0.23160787619E+01  0.00000000000E+00 0. -1.
         21   -1    0    0  502  503 -0.00000000000E+00 -0.00000000000E+00 -0.73641727021E+02  0.73641727021E+02  0.00000000000E+00 0.  1.
          5    1    1    2  501    0  0.10209635137E+02  0.38234537890E+01 -0.19837353177E+02  0.23118521354E+02  0.47000000000E+01 0. -1.
         -5    1    1    2    0  503 -0.10209635137E+02 -0.38234537890E+01 -0.51488295083E+02  0.52839284430E+02  0.47000000000E+01 0.  1.
<mgrwt>
<rscale>  2 0.11872045E+02</rscale>
<asrwt>0</asrwt>
<pdfrwt beam="1">  1       21 0.35631979E-03 0.11872045E+02</pdfrwt>
<pdfrwt beam="2">  1       21 0.11329497E-01 0.11872045E+02</pdfrwt>
<totfact> 0.56959578E+08</totfact>
</mgrwt>
</event>
<event>
 4    1  0.4144004E+006  0.5051273E+01  0.7546771E-02  0.2558138E+00
         21   -1    0    0  501  502  0.00000000000E+00  0.00000000000E+00  0.61421914419E+02  0.61421914419E+02  0.00000000000E+00 0. -1.
         21   -1    0    0  502  503 -0.00000000000E+00 -0.00000000000E+00 -0.17059075542E+01  0.17059075542E+01  0.00000000000E+00 0. -1.
          5    1    1    2  501    0  0.11916359550E+01 -0.14161072152E+01  0.57311106580E+02  0.57533279876E+02  0.47000000000E+01 0. -1.
         -5    1    1    2    0  503 -0.11916359550E+01  0.14161072152E+01  0.24049002848E+01  0.55945420969E+01  0.47000000000E+01 0. -1.
<mgrwt>
<rscale>  2 0.50512727E+01</rscale>
<asrwt>0</asrwt>
<pdfrwt beam="1">  1       21 0.94495236E-02 0.50512727E+01</pdfrwt>
<pdfrwt beam="2">  1       21 0.26244736E-03 0.50512727E+01</pdfrwt>
<totfact> 0.66108605E+08</totfact>
</mgrwt>
</event>
<event>
 4    1  0.4144004E+006  0.4882850E+01  0.7546771E-02  0.2588365E+00
         21   -1    0    0  503  502  0.00000000000E+00  0.00000000000E+00  0.14562721262E+02  0.14562721262E+02  0.00000000000E+00 0.  1.
         21   -1    0    0  501  503 -0.00000000000E+00 -0.00000000000E+00 -0.41749356280E+01  0.41749356280E+01  0.00000000000E+00 0.  1.
          5    1    1    2  501    0  0.11937095547E+01  0.57208930433E+00 -0.21104769831E+01  0.53194305870E+01  0.47000000000E+01 0.  1.
         -5    1    1    2    0  502 -0.11937095547E+01 -0.57208930433E+00  0.12498262617E+02  0.13418226303E+02  0.47000000000E+01 0.  1.
<mgrwt>
<rscale>  2 0.48828505E+01</rscale>
<asrwt>0</asrwt>
<pdfrwt beam="1">  1       21 0.22404186E-02 0.48828505E+01</pdfrwt>
<pdfrwt beam="2">  1       21 0.64229779E-03 0.48828505E+01</pdfrwt>
<totfact> 0.15381806E+09</totfact>
</mgrwt>
</event>
<event>
 4    1  0.4144004E+006  0.5106598E+01  0.7546771E-02  0.2548584E+00
         21   -1    0    0  501  502  0.00000000000E+00  0.00000000000E+00  0.40157148521E+03  0.40157148521E+03  0.00000000000E+00 0.  1.
         21   -1    0    0  502  503 -0.00000000000E+00 -0.00000000000E+00 -0.17829769350E+00  0.17829769350E+00  0.00000000000E+00 0.  1.
          5    1    1    2  501    0 -0.44488108682E+00 -0.19466454051E+01  0.36086677043E+03  0.36090290017E+03  0.47000000000E+01 0.  1.
         -5    1    1    2    0  503  0.44488108682E+00  0.19466454051E+01  0.40526417082E+02  0.40846882734E+02  0.47000000000E+01 0.  1.
<mgrwt>
<rscale>  2 0.51065984E+01</rscale>
<asrwt>0</asrwt>
<pdfrwt beam="1">  1       21 0.61779505E-01 0.51065984E+01</pdfrwt>
<pdfrwt beam="2">  1       21 0.27430736E-04 0.51065984E+01</pdfrwt>
<totfact> 0.62300808E+08</totfact>
</mgrwt>
</event>
<event>
 4    1  0.4144004E+006  0.5440280E+01  0.7546771E-02  0.2494514E+00
         21   -1    0    0  503  502  0.00000000000E+00  0.00000000000E+00  0.10540767581E+03  0.10540767581E+03  0.00000000000E+00 0.  1.
         21   -1    0    0  501  503 -0.00000000000E+00 -0.00000000000E+00 -0.32424294816E+00  0.32424294816E+00  0.00000000000E+00 0.  1.
          5    1    1    2  501    0 -0.25574643419E+01  0.98286227099E+00  0.33186973412E+02  0.33629924864E+02  0.47000000000E+01 0.  1.
         -5    1    1    2    0  502  0.25574643419E+01 -0.98286227099E+00  0.71896459446E+02  0.72101993891E+02  0.47000000000E+01 0.  1.
<mgrwt>
<rscale>  2 0.54402796E+01</rscale>
<asrwt>0</asrwt>
<pdfrwt beam="1">  1       21 0.16216538E-01 0.54402796E+01</pdfrwt>
<pdfrwt beam="2">  1       21 0.49883615E-04 0.54402796E+01</pdfrwt>
<totfact> 0.28377007E+09</totfact>
</mgrwt>
</event>
<event>
 4    1  0.4144004E+006  0.7057193E+01  0.7546771E-02  0.2295266E+00
         21   -1    0    0  501  502  0.00000000000E+00  0.00000000000E+00  0.65176927879E-01  0.65176927879E-01  0.00000000000E+00 0.  1.
         21   -1    0    0  502  503 -0.00000000000E+00 -0.00000000000E+00 -0.97260616230E+03  0.97260616230E+03  0.00000000000E+00 0.  1.
          5    1    1    2  501    0  0.52494674971E+01 -0.39630429084E+00 -0.26111077272E+03  0.26120612473E+03  0.47000000000E+01 0.  1.
         -5    1    1    2    0  503 -0.52494674971E+01  0.39630429084E+00 -0.71143021265E+03  0.71146521450E+03  0.47000000000E+01 0.  1.
<mgrwt>
<rscale>  2 0.70571925E+01</rscale>
<asrwt>0</asrwt>
<pdfrwt beam="1">  1       21 0.10026401E-04 0.70571925E+01</pdfrwt>
<pdfrwt beam="2">  1       21 0.14964393E+00 0.70571925E+01</pdfrwt>
<totfact> 0.50020327E+08</totfact>
</mgrwt>
</event>
<event>
 4    1  0.4144004E+006  0.7093035E+01  0.7546771E-02  0.2291715E+00
         21   -1    0    0  501  502  0.00000000000E+00  0.00000000000E+00  0.64157124876E+03  0.64157124876E+03  0.00000000000E+00 0.  1.
         21   -1    0    0  502  503 -0.00000000000E+00 -0.00000000000E+00 -0.47979413048E+00  0.47979413048E+00  0.00000000000E+00 0. -1.
          5    1    1    2  501    0 -0.24583723939E+01 -0.47093048346E+01  0.61416700057E+03  0.61420795805E+03  0.47000000000E+01 0.  1.
         -5    1    1    2    0  503  0.24583723939E+01  0.47093048346E+01  0.26924454062E+02  0.27843084840E+02  0.47000000000E+01 0. -1.
<mgrwt>
<rscale>  2 0.70930351E+01</rscale>
<asrwt>0</asrwt>
<pdfrwt beam="1">  1       21 0.98702583E-01 0.70930351E+01</pdfrwt>
<pdfrwt beam="2">  1       21 0.73814995E-04 0.70930351E+01</pdfrwt>
<totfact> 0.82651204E+07</totfact>
</mgrwt>
</event>
<event>
 4    1  0.4144004E+006  0.9702054E+01  0.7546771E-02  0.2092351E+00
         21   -1    0    0  503  502  0.00000000000E+00  0.00000000000E+00  0.93370200356E+00  0.93370200356E+00  0.00000000000E+00 0.  1.
         21   -1    0    0  501  503 -0.00000000000E+00 -0.00000000000E+00 -0.10476366295E+03  0.10476366295E+03  0.00000000000E+00 0.  1.
          5    1    1    2  501    0  0.17591238288E+01  0.83033324160E+01 -0.62176972823E+02  0.62929371483E+02  0.47000000000E+01 0.  1.
         -5    1    1    2    0  502 -0.17591238288E+01 -0.83033324160E+01 -0.41652988123E+02  0.42767993470E+02  0.47000000000E+01 0.  1.
<mgrwt>
<rscale>  2 0.97020537E+01</rscale>
<asrwt>0</asrwt>
<pdfrwt beam="1">  1       21 0.14364655E-03 0.97020537E+01</pdfrwt>
<pdfrwt beam="2">  1       21 0.16117477E-01 0.97020537E+01</pdfrwt>
<totfact> 0.10353564E+09</totfact>
</mgrwt>
</event>
<event>
 4    1  0.4144004E+006  0.5123024E+01  0.7546771E-02  0.2545782E+00
         21   -1    0    0  501  502  0.00000000000E+00  0.00000000000E+00  0.55303017004E+01  0.55303017004E+01  0.00000000000E+00 0.  1.
         21   -1    0    0  502  503 -0.00000000000E+00 -0.00000000000E+00 -0.11246094538E+02  0.11246094538E+02  0.00000000000E+00 0. -1.
          5    1    1    2  501    0 -0.10848511482E+01 -0.17258252754E+01  0.35193959988E+01  0.62154262196E+01  0.47000000000E+01 0.  1.
         -5    1    1    2    0  503  0.10848511482E+01  0.17258252754E+01 -0.92351888367E+01  0.10560970019E+02  0.47000000000E+01 0. -1.
<mgrwt>
<rscale>  2 0.51230240E+01</rscale>
<asrwt>0</asrwt>
<pdfrwt beam="1">  1       21 0.85081565E-03 0.51230240E+01</pdfrwt>
<pdfrwt beam="2">  1       21 0.17301684E-02 0.51230240E+01</pdfrwt>
<totfact> 0.15758121E+09</totfact>
</mgrwt>
</event>
<event>
 4    1  0.4144004E+006  0.5374115E+01  0.7546771E-02  0.2504779E+00
         21   -1    0    0  501  502  0.00000000000E+00  0.00000000000E+00  0.43124535926E+00  0.43124535926E+00  0.00000000000E+00 0. -1.
         21   -1    0    0  502  503 -0.00000000000E+00 -0.00000000000E+00 -0.11719795285E+03  0.11719795285E+03  0.00000000000E+00 0. -1.
          5    1    1    2  501    0 -0.25732941568E+01 -0.41142525003E+00 -0.19880605170E+02  0.20594163627E+02  0.47000000000E+01 0. -1.
         -5    1    1    2    0  503  0.25732941568E+01  0.41142525003E+00 -0.96886102318E+02  0.97035034580E+02  0.47000000000E+01 0. -1.
<mgrwt>
<rscale>  2 0.53741151E+01</rscale>
<asrwt>0</asrwt>
<pdfrwt beam="1">  1       21 0.66345443E-04 0.53741151E+01</pdfrwt>
<pdfrwt beam="2">  1       21 0.18030453E-01 0.53741151E+01</pdfrwt>
<totfact> 0.16243059E+09</totfact>
</mgrwt>
</event>
<event>
 4    1  0.4144004E+006  0.5383486E+01  0.7546771E-02  0.2503312E+00
         21   -1    0    0  501  502  0.00000000000E+00  0.00000000000E+00  0.11111265220E+02  0.11111265220E+02  0.00000000000E+00 0. -1.
         21   -1    0    0  502  503 -0.00000000000E+00 -0.00000000000E+00 -0.62233769914E+01  0.62233769914E+01  0.00000000000E+00 0. -1.
          5    1    1    2  501    0  0.15167912576E+00  0.26208606794E+01  0.90497897675E+01  0.10529986329E+02  0.47000000000E+01 0. -1.
         -5    1    1    2    0  503 -0.15167912576E+00 -0.26208606794E+01 -0.41619015388E+01  0.68046558823E+01  0.47000000000E+01 0. -1.
<mgrwt>
<rscale>  2 0.53834856E+01</rscale>
<asrwt>0</asrwt>
<pdfrwt beam="1">  1       21 0.17094254E-02 0.53834856E+01</pdfrwt>
<pdfrwt beam="2">  1       21 0.95744262E-03 0.53834856E+01</pdfrwt>
<totfact> 0.14254703E+09</totfact>
</mgrwt>
</event>
<event>
 4    1  0.4144004E+006  0.4960876E+01  0.7546771E-02  0.2574141E+00
         21   -1    0    0  503  502  0.00000000000E+00  0.00000000000E+00  0.30070390397E+02  0.30070390397E+02  0.00000000000E+00 0. -1.
         21   -1    0    0  501  503 -0.00000000000E+00 -0.00000000000E+00 -0.63597945150E+01  0.63597945150E+01  0.00000000000E+00 0.  1.
          5    1    1    2  501    0 -0.15757485491E+01  0.19315484312E+00 -0.51474251125E+01  0.71488654745E+01  0.47000000000E+01 0.  1.
         -5    1    1    2    0  502  0.15757485491E+01 -0.19315484312E+00  0.28858020994E+02  0.29281319437E+02  0.47000000000E+01 0. -1.
<mgrwt>
<rscale>  2 0.49608762E+01</rscale>
<asrwt>0</asrwt>
<pdfrwt beam="1">  1       21 0.46262138E-02 0.49608762E+01</pdfrwt>
<pdfrwt beam="2">  1       21 0.97842994E-03 0.49608762E+01</pdfrwt>
<totfact> 0.30729293E+08</totfact>
</mgrwt>
</event>
<event>
 4    1  0.4144004E+006  0.4719453E+01  0.7546771E-02  0.2619466E+00
         21   -1    0    0  503  502  0.00000000000E+00  0.00000000000E+00  0.61313330646E+01  0.61313330646E+01  0.00000000000E+00 0. -1.
         21   -1    0    0  501  503 -0.00000000000E+00 -0.00000000000E+00 -0.38073182285E+01  0.38073182285E+01  0.00000000000E+00 0. -1.
          5    1    1    2  501    0  0.42668973133E+00 -0.34189328789E-01  0.22262605708E+01  0.52181863867E+01  0.47000000000E+01 0. -1.
         -5    1    1    2    0  502 -0.42668973133E+00  0.34189328789E-01  0.97754265352E-01  0.47204649065E+01  0.47000000000E+01 0. -1.
<mgrwt>
<rscale>  2 0.47194526E+01</rscale>
<asrwt>0</asrwt>
<pdfrwt beam="1">  1       21 0.94328201E-03 0.47194526E+01</pdfrwt>
<pdfrwt beam="2">  1       21 0.58574127E-03 0.47194526E+01</pdfrwt>
<totfact> 0.56694997E+09</totfact>
</mgrwt>
</event>
<event>
 4    1  0.4144004E+006  0.9818362E+01  0.7546771E-02  0.2085475E+00
         21   -1    0    0  501  502  0.00000000000E+00  0.00000000000E+00  0.21026610602E+02  0.21026610602E+02  0.00000000000E+00 0. -1.
         21   -1    0    0  502  503 -0.00000000000E+00 -0.00000000000E+00 -0.46108817558E+01  0.46108817558E+01  0.00000000000E+00 0.  1.
          5    1    1    2  501    0  0.26467385715E+01  0.82039628083E+01  0.72415052706E+01  0.12199984812E+02  0.47000000000E+01 0. -1.
         -5    1    1    2    0  503 -0.26467385715E+01 -0.82039628083E+01  0.91742235754E+01  0.13437507546E+02  0.47000000000E+01 0.  1.
<mgrwt>
<rscale>  2 0.98183619E+01</rscale>
<asrwt>0</asrwt>
<pdfrwt beam="1">  1       21 0.32348631E-02 0.98183619E+01</pdfrwt>
<pdfrwt beam="2">  1       21 0.70936644E-03 0.98183619E+01</pdfrwt>
<totfact> 0.13432814E+09</totfact>
</mgrwt>
</event>
<event>
 4    1  0.4144004E+006  0.5197307E+01  0.7546771E-02  0.2533299E+00
         21   -1    0    0  503  502  0.00000000000E+00  0.00000000000E+00  0.25343071966E+03  0.25343071966E+03  0.00000000000E+00 0. -1.
         21   -1    0    0  501  503 -0.00000000000E+00 -0.00000000000E+00 -0.11355529276E+00  0.11355529276E+00  0.00000000000E+00 0. -1.
          5    1    1    2  501    0  0.18948822676E+01 -0.11538727246E+01  0.95250976010E+02  0.95392664456E+02  0.47000000000E+01 0. -1.
         -5    1    1    2    0  502 -0.18948822676E+01  0.11538727246E+01  0.15806618836E+03  0.15815161050E+03  0.47000000000E+01 0. -1.
<mgrwt>
<rscale>  2 0.51973071E+01</rscale>
<asrwt>0</asrwt>
<pdfrwt beam="1">  1       21 0.38988889E-01 0.51973071E+01</pdfrwt>
<pdfrwt beam="2">  1       21 0.17470248E-04 0.51973071E+01</pdfrwt>
<totfact> 0.26043360E+09</totfact>
</mgrwt>
</event>
<event>
 4    1  0.4144004E+006  0.6674542E+01  0.7546771E-02  0.2335111E+00
         21   -1    0    0  503  502  0.00000000000E+00  0.00000000000E+00  0.30381420313E+01  0.30381420313E+01  0.00000000000E+00 0.  1.
         21   -1    0    0  501  503 -0.00000000000E+00 -0.00000000000E+00 -0.26746558969E+02  0.26746558969E+02  0.00000000000E+00 0. -1.
          5    1    1    2  501    0  0.45335616560E+01 -0.13807009115E+01 -0.21863869964E+02  0.22859972137E+02  0.47000000000E+01 0. -1.
         -5    1    1    2    0  502 -0.45335616560E+01  0.13807009115E+01 -0.18445469740E+01  0.69247288637E+01  0.47000000000E+01 0.  1.
<mgrwt>
<rscale>  2 0.66745424E+01</rscale>
<asrwt>0</asrwt>
<pdfrwt beam="1">  1       21 0.46740646E-03 0.66745424E+01</pdfrwt>
<pdfrwt beam="2">  1       21 0.41148553E-02 0.66745424E+01</pdfrwt>
<totfact> 0.13021588E+09</totfact>
</mgrwt>
</event>
<event>
 4    1  0.4144004E+006  0.4882006E+01  0.7546771E-02  0.2588521E+00
         21   -1    0    0  503  502  0.00000000000E+00  0.00000000000E+00  0.19133050708E+03  0.19133050708E+03  0.00000000000E+00 0. -1.
         21   -1    0    0  501  503 -0.00000000000E+00 -0.00000000000E+00 -0.25200089141E+00  0.25200089141E+00  0.00000000000E+00 0. -1.
          5    1    1    2  501    0 -0.13364876788E+00  0.13138200357E+01  0.27421128747E+02  0.27852330008E+02  0.47000000000E+01 0. -1.
         -5    1    1    2    0  502  0.13364876788E+00 -0.13138200357E+01  0.16365737744E+03  0.16373017797E+03  0.47000000000E+01 0. -1.
<mgrwt>
<rscale>  2 0.48820063E+01</rscale>
<asrwt>0</asrwt>
<pdfrwt beam="1">  1       21 0.29435346E-01 0.48820063E+01</pdfrwt>
<pdfrwt beam="2">  1       21 0.38769521E-04 0.48820063E+01</pdfrwt>
<totfact> 0.13752808E+09</totfact>
</mgrwt>
</event>
<event>
 4    1  0.4144004E+006  0.5932066E+01  0.7546771E-02  0.2424350E+00
         21   -1    0    0  501  502  0.00000000000E+00  0.00000000000E+00  0.57702463061E+01  0.57702463061E+01  0.00000000000E+00 0. -1.
         21   -1    0    0  502  503 -0.00000000000E+00 -0.00000000000E+00 -0.11034714264E+02  0.11034714264E+02  0.00000000000E+00 0. -1.
          5    1    1    2  501    0  0.30715266743E+01  0.19144545371E+01  0.29876489985E+01  0.66419469152E+01  0.47000000000E+01 0. -1.
         -5    1    1    2    0  503 -0.30715266743E+01 -0.19144545371E+01 -0.82521169560E+01  0.10163013655E+02  0.47000000000E+01 0. -1.
<mgrwt>
<rscale>  2 0.59320664E+01</rscale>
<asrwt>0</asrwt>
<pdfrwt beam="1">  1       21 0.88773021E-03 0.59320664E+01</pdfrwt>
<pdfrwt beam="2">  1       21 0.16976483E-02 0.59320664E+01</pdfrwt>
<totfact> 0.17432450E+09</totfact>
</mgrwt>
</event>
<event>
 4    1  0.4144004E+006  0.6695918E+01  0.7546771E-02  0.2332787E+00
         21   -1    0    0  501  502  0.00000000000E+00  0.00000000000E+00  0.45247668584E+02  0.45247668584E+02  0.00000000000E+00 0. -1.
         21   -1    0    0  502  503 -0.00000000000E+00 -0.00000000000E+00 -0.22013751442E+01  0.22013751442E+01  0.00000000000E+00 0. -1.
          5    1    1    2  501    0 -0.49976830527E+00  0.47429478852E+01  0.39115774884E+02  0.39684747294E+02  0.47000000000E+01 0. -1.
         -5    1    1    2    0  503  0.49976830527E+00 -0.47429478852E+01  0.39305185554E+01  0.77642964340E+01  0.47000000000E+01 0. -1.
<mgrwt>
<rscale>  2 0.66959184E+01</rscale>
<asrwt>0</asrwt>
<pdfrwt beam="1">  1       21 0.69611790E-02 0.66959184E+01</pdfrwt>
<pdfrwt beam="2">  1       21 0.33867314E-03 0.66959184E+01</pdfrwt>
<totfact> 0.92926821E+08</totfact>
</mgrwt>
</event>
<event>
 4    1  0.4144004E+006  0.9696481E+01  0.7546771E-02  0.2092684E+00
         21   -1    0    0  501  502  0.00000000000E+00  0.00000000000E+00  0.62486036940E+01  0.62486036940E+01  0.00000000000E+00 0.  1.
         21   -1    0    0  502  503 -0.00000000000E+00 -0.00000000000E+00 -0.15216495673E+02  0.15216495673E+02  0.00000000000E+00 0.  1.
          5    1    1    2  501    0  0.32861698376E+01 -0.78187485590E+01 -0.33506860764E+01  0.10259085652E+02  0.47000000000E+01 0.  1.
         -5    1    1    2    0  503 -0.32861698376E+01  0.78187485590E+01 -0.56172059026E+01  0.11206013715E+02  0.47000000000E+01 0.  1.
<mgrwt>
<rscale>  2 0.96964809E+01</rscale>
<asrwt>0</asrwt>
<pdfrwt beam="1">  1       21 0.96132366E-03 0.96964809E+01</pdfrwt>
<pdfrwt beam="2">  1       21 0.23409993E-02 0.96964809E+01</pdfrwt>
<totfact> 0.13940034E+09</totfact>
</mgrwt>
</event>
<event>
 4    1  0.4144004E+006  0.6391052E+01  0.7546771E-02  0.2367146E+00
         21   -1    0    0  503  502  0.00000000000E+00  0.00000000000E+00  0.17710234910E+02  0.17710234910E+02  0.00000000000E+00 0.  1.
         21   -1    0    0  501  503 -0.00000000000E+00 -0.00000000000E+00 -0.28155111994E+01  0.28155111994E+01  0.00000000000E+00 0. -1.
          5    1    1    2  501    0  0.91385834438E+00  0.42332502864E+01  0.11811806000E+02  0.13429977887E+02  0.47000000000E+01 0.  1.
         -5    1    1    2    0  502 -0.91385834438E+00 -0.42332502864E+01  0.30829177111E+01  0.70957682230E+01  0.47000000000E+01 0. -1.
<mgrwt>
<rscale>  2 0.63910520E+01</rscale>
<asrwt>0</asrwt>
<pdfrwt beam="1">  1       21 0.27246514E-02 0.63910520E+01</pdfrwt>
<pdfrwt beam="2">  1       21 0.43315558E-03 0.63910520E+01</pdfrwt>
<totfact> 0.25610676E+09</totfact>
</mgrwt>
</event>
<event>
 4    1  0.4144004E+006  0.1262557E+02  0.7546771E-02  0.1950555E+00
         21   -1    0    0  503  502  0.00000000000E+00  0.00000000000E+00  0.36141665592E+03  0.36141665592E+03  0.00000000000E+00 0. -1.
         21   -1    0    0  501  503 -0.00000000000E+00 -0.00000000000E+00 -0.72081054219E+00  0.72081054219E+00  0.00000000000E+00 0.  1.
          5    1    1    2  501    0 -0.66808083847E+01 -0.96271412285E+01  0.67544745115E+02  0.68714610102E+02  0.47000000000E+01 0.  1.
         -5    1    1    2    0  502  0.66808083847E+01  0.96271412285E+01  0.29315110026E+03  0.29342285636E+03  0.47000000000E+01 0. -1.
<mgrwt>
<rscale>  2 0.12625571E+02</rscale>
<asrwt>0</asrwt>
<pdfrwt beam="1">  1       21 0.55602418E-01 0.12625571E+02</pdfrwt>
<pdfrwt beam="2">  1       21 0.11089422E-03 0.12625571E+02</pdfrwt>
<totfact> 0.18992429E+08</totfact>
</mgrwt>
</event>
<event>
 4    1  0.4144004E+006  0.5280898E+01  0.7546771E-02  0.2519612E+00
         21   -1    0    0  503  502  0.00000000000E+00  0.00000000000E+00  0.53729294285E+02  0.53729294285E+02  0.00000000000E+00 0. -1.
         21   -1    0    0  501  503 -0.00000000000E+00 -0.00000000000E+00 -0.57225536174E+00  0.57225536174E+00  0.00000000000E+00 0. -1.
          5    1    1    2  501    0  0.70905132482E+00 -0.23011150934E+01  0.18299322471E+02  0.19046078005E+02  0.47000000000E+01 0. -1.
         -5    1    1    2    0  502 -0.70905132482E+00  0.23011150934E+01  0.34857716452E+02  0.35255471642E+02  0.47000000000E+01 0. -1.
<mgrwt>
<rscale>  2 0.52808981E+01</rscale>
<asrwt>0</asrwt>
<pdfrwt beam="1">  1       21 0.82660413E-02 0.52808981E+01</pdfrwt>
<pdfrwt beam="2">  1       21 0.88039329E-04 0.52808981E+01</pdfrwt>
<totfact> 0.36493675E+09</totfact>
</mgrwt>
</event>
<event>
 4    1  0.4144004E+006  0.5940379E+01  0.7546771E-02  0.2423248E+00
         21   -1    0    0  503  502  0.00000000000E+00  0.00000000000E+00  0.87641397849E+00  0.87641397849E+00  0.00000000000E+00 0. -1.
         21   -1    0    0  501  503 -0.00000000000E+00 -0.00000000000E+00 -0.47926674286E+02  0.47926674286E+02  0.00000000000E+00 0. -1.
          5    1    1    2  501    0  0.16109062325E+01 -0.32562380812E+01 -0.33282061624E+02  0.33808042405E+02  0.47000000000E+01 0. -1.
         -5    1    1    2    0  502 -0.16109062325E+01  0.32562380812E+01 -0.13768198683E+02  0.14995045859E+02  0.47000000000E+01 0. -1.
<mgrwt>
<rscale>  2 0.59403792E+01</rscale>
<asrwt>0</asrwt>
<pdfrwt beam="1">  1       21 0.13483290E-03 0.59403792E+01</pdfrwt>
<pdfrwt beam="2">  1       21 0.73733358E-02 0.59403792E+01</pdfrwt>
<totfact> 0.27254748E+09</totfact>
</mgrwt>
</event>
<event>
 4    1  0.4144004E+006  0.6691466E+01  0.7546771E-02  0.2333270E+00
         21   -1    0    0  503  502  0.00000000000E+00  0.00000000000E+00  0.50965343879E+01  0.50965343879E+01  0.00000000000E+00 0.  1.
         21   -1    0    0  501  503 -0.00000000000E+00 -0.00000000000E+00 -0.24417122443E+02  0.24417122443E+02  0.00000000000E+00 0. -1.
          5    1    1    2  501    0 -0.21656953511E+01  0.42421077221E+01 -0.21467510123E+02  0.22486211445E+02  0.47000000000E+01 0. -1.
         -5    1    1    2    0  502  0.21656953511E+01 -0.42421077221E+01  0.21469220682E+01  0.70274453855E+01  0.47000000000E+01 0.  1.
<mgrwt>
<rscale>  2 0.66914658E+01</rscale>
<asrwt>0</asrwt>
<pdfrwt beam="1">  1       21 0.78408220E-03 0.66914658E+01</pdfrwt>
<pdfrwt beam="2">  1       21 0.37564804E-02 0.66914658E+01</pdfrwt>
<totfact> 0.72212543E+08</totfact>
</mgrwt>
</event>
<event>
 4    1  0.4144004E+006  0.4782542E+01  0.7546771E-02  0.2607239E+00
         21   -1    0    0  501  502  0.00000000000E+00  0.00000000000E+00  0.12010168079E+02  0.12010168079E+02  0.00000000000E+00 0. -1.
         21   -1    0    0  502  503 -0.00000000000E+00 -0.00000000000E+00 -0.19086401127E+01  0.19086401127E+01  0.00000000000E+00 0. -1.
          5    1    1    2  501    0 -0.55210283459E+00  0.69129672683E+00  0.47245039097E+01  0.67226219511E+01  0.47000000000E+01 0. -1.
         -5    1    1    2    0  503  0.55210283459E+00 -0.69129672683E+00  0.53770240567E+01  0.71961862407E+01  0.47000000000E+01 0. -1.
<mgrwt>
<rscale>  2 0.47825421E+01</rscale>
<asrwt>0</asrwt>
<pdfrwt beam="1">  1       21 0.18477181E-02 0.47825421E+01</pdfrwt>
<pdfrwt beam="2">  1       21 0.29363695E-03 0.47825421E+01</pdfrwt>
<totfact> 0.57591152E+09</totfact>
</mgrwt>
</event>
<event>
 4    1  0.4144004E+006  0.5940010E+01  0.7546771E-02  0.2423297E+00
         21   -1    0    0  503  502  0.00000000000E+00  0.00000000000E+00  0.59220807258E+02  0.59220807258E+02  0.00000000000E+00 0.  1.
         21   -1    0    0  501  503 -0.00000000000E+00 -0.00000000000E+00 -0.62214203548E+00  0.62214203548E+00  0.00000000000E+00 0.  1.
          5    1    1    2  501    0 -0.24302043272E+01  0.26995974996E+01  0.23142347996E+02  0.23892509088E+02  0.47000000000E+01 0.  1.
         -5    1    1    2    0  502  0.24302043272E+01 -0.26995974996E+01  0.35456317226E+02  0.35950440205E+02  0.47000000000E+01 0.  1.
<mgrwt>
<rscale>  2 0.59400101E+01</rscale>
<asrwt>0</asrwt>
<pdfrwt beam="1">  1       21 0.91108890E-02 0.59400101E+01</pdfrwt>
<pdfrwt beam="2">  1       21 0.95714206E-04 0.59400101E+01</pdfrwt>
<totfact> 0.31356778E+09</totfact>
</mgrwt>
</event>
<event>
 4    1  0.4144004E+006  0.5242447E+01  0.7546771E-02  0.2525861E+00
         21   -1    0    0  501  502  0.00000000000E+00  0.00000000000E+00  0.24656947886E+01  0.24656947886E+01  0.00000000000E+00 0. -1.
         21   -1    0    0  502  503 -0.00000000000E+00 -0.00000000000E+00 -0.94797873142E+02  0.94797873142E+02  0.00000000000E+00 0. -1.
          5    1    1    2  501    0 -0.23034561195E+01 -0.29553676752E+00 -0.48272390614E+00  0.52646248152E+01  0.47000000000E+01 0. -1.
         -5    1    1    2    0  503  0.23034561195E+01  0.29553676752E+00 -0.91849454447E+02  0.91998943115E+02  0.47000000000E+01 0. -1.
<mgrwt>
<rscale>  2 0.52424471E+01</rscale>
<asrwt>0</asrwt>
<pdfrwt beam="1">  1       21 0.37933768E-03 0.52424471E+01</pdfrwt>
<pdfrwt beam="2">  1       21 0.14584287E-01 0.52424471E+01</pdfrwt>
<totfact> 0.21239719E+08</totfact>
</mgrwt>
</event>
<event>
 4    1  0.4144004E+006  0.1139470E+02  0.7546771E-02  0.2003344E+00
         21   -1    0    0  501  502  0.00000000000E+00  0.00000000000E+00  0.73605489381E+02  0.73605489381E+02  0.00000000000E+00 0. -1.
         21   -1    0    0  502  503 -0.00000000000E+00 -0.00000000000E+00 -0.17691025305E+01  0.17691025305E+01  0.00000000000E+00 0.  1.
          5    1    1    2  501    0  0.91893484031E+01 -0.48275229524E+01  0.37944839573E+02  0.39618808061E+02  0.47000000000E+01 0. -1.
         -5    1    1    2    0  503 -0.91893484031E+01  0.48275229524E+01  0.33891547278E+02  0.35755783851E+02  0.47000000000E+01 0.  1.
<mgrwt>
<rscale>  2 0.11394696E+02</rscale>
<asrwt>0</asrwt>
<pdfrwt beam="1">  1       21 0.11323919E-01 0.11394696E+02</pdfrwt>
<pdfrwt beam="2">  1       21 0.27216968E-03 0.11394696E+02</pdfrwt>
<totfact> 0.81908336E+08</totfact>
</mgrwt>
</event>
<event>
 4    1  0.4144004E+006  0.5014000E+01  0.7546771E-02  0.2564676E+00
         21   -1    0    0  501  502  0.00000000000E+00  0.00000000000E+00  0.25381203769E+03  0.25381203769E+03  0.00000000000E+00 0. -1.
         21   -1    0    0  502  503 -0.00000000000E+00 -0.00000000000E+00 -0.14428829052E+00  0.14428829052E+00  0.00000000000E+00 0. -1.
          5    1    1    2  501    0  0.11498335281E+01  0.13145656145E+01  0.19793301755E+03  0.19799651421E+03  0.47000000000E+01 0. -1.
         -5    1    1    2    0  503 -0.11498335281E+01 -0.13145656145E+01  0.55734731848E+02  0.55959811777E+02  0.47000000000E+01 0. -1.
<mgrwt>
<rscale>  2 0.50140004E+01</rscale>
<asrwt>0</asrwt>
<pdfrwt beam="1">  1       21 0.39047648E-01 0.50140004E+01</pdfrwt>
<pdfrwt beam="2">  1       21 0.22198402E-04 0.50140004E+01</pdfrwt>
<totfact> 0.18323967E+09</totfact>
</mgrwt>
</event>
<event>
 4    1  0.4144004E+006  0.4713758E+01  0.7546771E-02  0.2620584E+00
         21   -1    0    0  501  502  0.00000000000E+00  0.00000000000E+00  0.10195834391E+01  0.10195834391E+01  0.00000000000E+00 0.  1.
         21   -1    0    0  502  503 -0.00000000000E+00 -0.00000000000E+00 -0.24307184531E+02  0.24307184531E+02  0.00000000000E+00 0.  1.
          5    1    1    2  501    0 -0.31410352414E+00 -0.17564010818E+00 -0.75708980583E+01  0.89184083715E+01  0.47000000000E+01 0.  1.
         -5    1    1    2    0  503  0.31410352414E+00  0.17564010818E+00 -0.15716703034E+02  0.16408359599E+02  0.47000000000E+01 0.  1.
<mgrwt>
<rscale>  2 0.47137576E+01</rscale>
<asrwt>0</asrwt>
<pdfrwt beam="1">  1       21 0.15685900E-03 0.47137576E+01</pdfrwt>
<pdfrwt beam="2">  1       21 0.37395666E-02 0.47137576E+01</pdfrwt>
<totfact> 0.48212467E+09</totfact>
</mgrwt>
</event>
<event>
 4    1  0.4144004E+006  0.7219505E+01  0.7546771E-02  0.2279417E+00
         21   -1    0    0  503  502  0.00000000000E+00  0.00000000000E+00  0.24898742504E+03  0.24898742504E+03  0.00000000000E+00 0. -1.
         21   -1    0    0  501  503 -0.00000000000E+00 -0.00000000000E+00 -0.23107535348E+00  0.23107535348E+00  0.00000000000E+00 0.  1.
          5    1    1    2  501    0  0.54117760648E+01 -0.86251511709E+00  0.86154887511E+02  0.86456844116E+02  0.47000000000E+01 0.  1.
         -5    1    1    2    0  502 -0.54117760648E+01  0.86251511709E+00  0.16260146218E+03  0.16276165628E+03  0.47000000000E+01 0.  1.
<mgrwt>
<rscale>  2 0.72195050E+01</rscale>
<asrwt>0</asrwt>
<pdfrwt beam="1">  1       21 0.38305543E-01 0.72195050E+01</pdfrwt>
<pdfrwt beam="2">  1       21 0.35550254E-04 0.72195050E+01</pdfrwt>
<totfact> 0.13371348E+09</totfact>
</mgrwt>
</event>
<event>
 4    1  0.4144004E+006  0.9300040E+01  0.7546771E-02  0.2117158E+00
         21   -1    0    0  501  502  0.00000000000E+00  0.00000000000E+00  0.48641148095E+03  0.48641148095E+03  0.00000000000E+00 0.  1.
         21   -1    0    0  502  503 -0.00000000000E+00 -0.00000000000E+00 -0.49329882023E+00  0.49329882023E+00  0.00000000000E+00 0. -1.
          5    1    1    2  501    0  0.41518070372E+01 -0.68675494659E+01  0.43765117127E+03  0.43774997253E+03  0.47000000000E+01 0.  1.
         -5    1    1    2    0  503 -0.41518070372E+01  0.68675494659E+01  0.48267010862E+02  0.49154807241E+02  0.47000000000E+01 0. -1.
<mgrwt>
<rscale>  2 0.93000396E+01</rscale>
<asrwt>0</asrwt>
<pdfrwt beam="1">  1       21 0.74832152E-01 0.93000396E+01</pdfrwt>
<pdfrwt beam="2">  1       21 0.75892515E-04 0.93000396E+01</pdfrwt>
<totfact> 0.15813414E+08</totfact>
</mgrwt>
</event>
<event>
 4    1  0.4144004E+006  0.8459756E+01  0.7546771E-02  0.2174948E+00
         21   -1    0    0  501  502  0.00000000000E+00  0.00000000000E+00  0.13058457607E+02  0.13058457607E+02  0.00000000000E+00 0. -1.
         21   -1    0    0  502  503 -0.00000000000E+00 -0.00000000000E+00 -0.61269694464E+01  0.61269694464E+01  0.00000000000E+00 0. -1.
          5    1    1    2  501    0  0.12011496642E+01 -0.69307074137E+01  0.34988740653E+00  0.84669880694E+01  0.47000000000E+01 0. -1.
         -5    1    1    2    0  503 -0.12011496642E+01  0.69307074137E+01  0.65816007545E+01  0.10718438984E+02  0.47000000000E+01 0. -1.
<mgrwt>
<rscale>  2 0.84597557E+01</rscale>
<asrwt>0</asrwt>
<pdfrwt beam="1">  1       21 0.20089935E-02 0.84597557E+01</pdfrwt>
<pdfrwt beam="2">  1       21 0.94261069E-03 0.84597557E+01</pdfrwt>
<totfact> 0.16451867E+09</totfact>
</mgrwt>
</event>
<event>
 4    1  0.4144004E+006  0.8821336E+01  0.7546771E-02  0.2149007E+00
         21   -1    0    0  503  502  0.00000000000E+00  0.00000000000E+00  0.78313765039E+03  0.78313765039E+03  0.00000000000E+00 0.  1.
         21   -1    0    0  501  503 -0.00000000000E+00 -0.00000000000E+00 -0.45675681762E+00  0.45675681762E+00  0.00000000000E+00 0. -1.
          5    1    1    2  501    0 -0.73497011109E+01  0.13068540730E+01  0.44770019144E+02  0.45630807445E+02  0.47000000000E+01 0. -1.
         -5    1    1    2    0  502  0.73497011109E+01 -0.13068540730E+01  0.73791087443E+03  0.73796359976E+03  0.47000000000E+01 0.  1.
<mgrwt>
<rscale>  2 0.88213363E+01</rscale>
<asrwt>0</asrwt>
<pdfrwt beam="1">  1       21 0.12048164E+00 0.88213363E+01</pdfrwt>
<pdfrwt beam="2">  1       21 0.70270906E-04 0.88213363E+01</pdfrwt>
<totfact> 0.64361776E+07</totfact>
</mgrwt>
</event>
<event>
 4    1  0.4144004E+006  0.1286724E+02  0.7546771E-02  0.1941112E+00
         21   -1    0    0  501  502  0.00000000000E+00  0.00000000000E+00  0.44015667033E+00  0.44015667033E+00  0.00000000000E+00 0. -1.
         21   -1    0    0  502  503 -0.00000000000E+00 -0.00000000000E+00 -0.44917978300E+03  0.44917978300E+03  0.00000000000E+00 0. -1.
          5    1    1    2  501    0  0.85651550739E+01 -0.83734023545E+01 -0.13372353993E+03  0.13434117344E+03  0.47000000000E+01 0. -1.
         -5    1    1    2    0  503 -0.85651550739E+01  0.83734023545E+01 -0.31501608640E+03  0.31527876623E+03  0.47000000000E+01 0. -1.
<mgrwt>
<rscale>  2 0.12867235E+02</rscale>
<asrwt>0</asrwt>
<pdfrwt beam="1">  1       21 0.67716715E-04 0.12867235E+02</pdfrwt>
<pdfrwt beam="2">  1       21 0.69104272E-01 0.12867235E+02</pdfrwt>
<totfact> 0.24848036E+08</totfact>
</mgrwt>
</event>
<event>
 4    1  0.4144004E+006  0.5533974E+01  0.7546771E-02  0.2480335E+00
         21   -1    0    0  501  502  0.00000000000E+00  0.00000000000E+00  0.57628631386E-01  0.57628631386E-01  0.00000000000E+00 0.  1.
         21   -1    0    0  502  503 -0.00000000000E+00 -0.00000000000E+00 -0.55238361125E+03  0.55238361125E+03  0.00000000000E+00 0. -1.
          5    1    1    2  501    0  0.45030091999E+00  0.28865367096E+01 -0.22234911091E+03  0.22241796688E+03  0.47000000000E+01 0.  1.
         -5    1    1    2    0  503 -0.45030091999E+00 -0.28865367096E+01 -0.32997687171E+03  0.33002327301E+03  0.47000000000E+01 0. -1.
<mgrwt>
<rscale>  2 0.55339737E+01</rscale>
<asrwt>0</asrwt>
<pdfrwt beam="1">  1       21 0.88662528E-05 0.55339737E+01</pdfrwt>
<pdfrwt beam="2">  1       21 0.84979127E-01 0.55339737E+01</pdfrwt>
<totfact> 0.16215130E+09</totfact>
</mgrwt>
</event>
<event>
 4    1  0.4144004E+006  0.5030128E+01  0.7546771E-02  0.2561837E+00
         21   -1    0    0  503  502  0.00000000000E+00  0.00000000000E+00  0.67790024656E+01  0.67790024656E+01  0.00000000000E+00 0.  1.
         21   -1    0    0  501  503 -0.00000000000E+00 -0.00000000000E+00 -0.48983143736E+01  0.48983143736E+01  0.00000000000E+00 0.  1.
          5    1    1    2  501    0 -0.11815834275E+01  0.13476083958E+01 -0.19081577874E+01  0.53798934865E+01  0.47000000000E+01 0.  1.
         -5    1    1    2    0  502  0.11815834275E+01 -0.13476083958E+01  0.37888458795E+01  0.62974233527E+01  0.47000000000E+01 0.  1.
<mgrwt>
<rscale>  2 0.50301280E+01</rscale>
<asrwt>0</asrwt>
<pdfrwt beam="1">  1       21 0.10429235E-02 0.50301280E+01</pdfrwt>
<pdfrwt beam="2">  1       21 0.75358683E-03 0.50301280E+01</pdfrwt>
<totfact> 0.37300018E+09</totfact>
</mgrwt>
</event>
<event>
 4    1  0.4144004E+006  0.4850628E+01  0.7546771E-02  0.2594354E+00
         21   -1    0    0  501  502  0.00000000000E+00  0.00000000000E+00  0.20255449634E+01  0.20255449634E+01  0.00000000000E+00 0.  1.
         21   -1    0    0  502  503 -0.00000000000E+00 -0.00000000000E+00 -0.12942328584E+02  0.12942328584E+02  0.00000000000E+00 0.  1.
          5    1    1    2  501    0  0.26961715365E+00  0.11687177245E+01 -0.30625373261E+01  0.57365259001E+01  0.47000000000E+01 0.  1.
         -5    1    1    2    0  503 -0.26961715365E+00 -0.11687177245E+01 -0.78542462944E+01  0.92313476471E+01  0.47000000000E+01 0.  1.
<mgrwt>
<rscale>  2 0.48506283E+01</rscale>
<asrwt>0</asrwt>
<pdfrwt beam="1">  1       21 0.31162231E-03 0.48506283E+01</pdfrwt>
<pdfrwt beam="2">  1       21 0.19911274E-02 0.48506283E+01</pdfrwt>
<totfact> 0.48552288E+09</totfact>
</mgrwt>
</event>
<event>
 4    1  0.4144004E+006  0.7066837E+01  0.7546771E-02  0.2294308E+00
         21   -1    0    0  503  502  0.00000000000E+00  0.00000000000E+00  0.12174866093E+03  0.12174866093E+03  0.00000000000E+00 0.  1.
         21   -1    0    0  501  503 -0.00000000000E+00 -0.00000000000E+00 -0.52426992483E+00  0.52426992483E+00  0.00000000000E+00 0.  1.
          5    1    1    2  501    0  0.52356100365E+01 -0.66225045465E+00  0.32093751420E+02  0.32862578540E+02  0.47000000000E+01 0.  1.
         -5    1    1    2    0  502 -0.52356100365E+01  0.66225045465E+00  0.89130639589E+02  0.89410352318E+02  0.47000000000E+01 0.  1.
<mgrwt>
<rscale>  2 0.70668372E+01</rscale>
<asrwt>0</asrwt>
<pdfrwt beam="1">  1       21 0.18730541E-01 0.70668372E+01</pdfrwt>
<pdfrwt beam="2">  1       21 0.80657008E-04 0.70668372E+01</pdfrwt>
<totfact> 0.14583363E+09</totfact>
</mgrwt>
</event>
<event>
 4    1  0.4144004E+006  0.7681699E+01  0.7546771E-02  0.2237303E+00
         21   -1    0    0  501  502  0.00000000000E+00  0.00000000000E+00  0.23331248204E+02  0.23331248204E+02  0.00000000000E+00 0. -1.
         21   -1    0    0  502  503 -0.00000000000E+00 -0.00000000000E+00 -0.27976262211E+01  0.27976262211E+01  0.00000000000E+00 0.  1.
          5    1    1    2  501    0  0.60013491673E+01  0.94989744973E+00  0.14313868665E+02  0.16244855591E+02  0.47000000000E+01 0. -1.
         -5    1    1    2    0  503 -0.60013491673E+01 -0.94989744973E+00  0.62197533179E+01  0.98840188348E+01  0.47000000000E+01 0. -1.
<mgrwt>
<rscale>  2 0.76816988E+01</rscale>
<asrwt>0</asrwt>
<pdfrwt beam="1">  1       21 0.35894227E-02 0.76816988E+01</pdfrwt>
<pdfrwt beam="2">  1       21 0.43040405E-03 0.76816988E+01</pdfrwt>
<totfact> 0.19874655E+09</totfact>
</mgrwt>
</event>
<event>
 4    1  0.4144004E+006  0.6413427E+01  0.7546771E-02  0.2364533E+00
         21   -1    0    0  503  502  0.00000000000E+00  0.00000000000E+00  0.44097266671E+01  0.44097266671E+01  0.00000000000E+00 0.  1.
         21   -1    0    0  501  503 -0.00000000000E+00 -0.00000000000E+00 -0.12445392558E+02  0.12445392558E+02  0.00000000000E+00 0. -1.
          5    1    1    2  501    0  0.39777403414E+01  0.17943307893E+01 -0.82359936303E+01  0.10438564666E+02  0.47000000000E+01 0. -1.
         -5    1    1    2    0  502 -0.39777403414E+01 -0.17943307893E+01  0.20032773963E+00  0.64165545590E+01  0.47000000000E+01 0.  1.
<mgrwt>
<rscale>  2 0.64134266E+01</rscale>
<asrwt>0</asrwt>
<pdfrwt beam="1">  1       21 0.67841949E-03 0.64134266E+01</pdfrwt>
<pdfrwt beam="2">  1       21 0.19146758E-02 0.64134266E+01</pdfrwt>
<totfact> 0.22875236E+09</totfact>
</mgrwt>
</event>
<event>
 4    1  0.4144004E+006  0.5337132E+01  0.7546771E-02  0.2510611E+00
         21   -1    0    0  501  502  0.00000000000E+00  0.00000000000E+00  0.24575033037E+01  0.24575033037E+01  0.00000000000E+00 0.  1.
         21   -1    0    0  502  503 -0.00000000000E+00 -0.00000000000E+00 -0.12308942711E+02  0.12308942711E+02  0.00000000000E+00 0.  1.
          5    1    1    2  501    0 -0.69726740052E-01 -0.25278669580E+01 -0.31426264393E+01  0.61936317385E+01  0.47000000000E+01 0. -1.
         -5    1    1    2    0  503  0.69726740052E-01  0.25278669580E+01 -0.67088129683E+01  0.85728142765E+01  0.47000000000E+01 0. -1.
<mgrwt>
<rscale>  2 0.53371315E+01</rscale>
<asrwt>0</asrwt>
<pdfrwt beam="1">  1       21 0.37807743E-03 0.53371315E+01</pdfrwt>
<pdfrwt beam="2">  1       21 0.18936835E-02 0.53371315E+01</pdfrwt>
<totfact> 0.44264494E+09</totfact>
</mgrwt>
</event>
<event>
 4    1  0.4144004E+006  0.6014209E+01  0.7546771E-02  0.2413578E+00
         21   -1    0    0  501  502  0.00000000000E+00  0.00000000000E+00  0.22468673104E+00  0.22468673104E+00  0.00000000000E+00 0. -1.
         21   -1    0    0  502  503 -0.00000000000E+00 -0.00000000000E+00 -0.16102025964E+03  0.16102025964E+03  0.00000000000E+00 0.  1.
          5    1    1    2  501    0  0.31971419618E+01 -0.19644317036E+01 -0.79168789066E+02  0.79396900889E+02  0.47000000000E+01 0.  1.
         -5    1    1    2    0  503 -0.31971419618E+01  0.19644317036E+01 -0.81626783845E+02  0.81848045484E+02  0.47000000000E+01 0. -1.
<mgrwt>
<rscale>  2 0.60142089E+01</rscale>
<asrwt>0</asrwt>
<pdfrwt beam="1">  1       21 0.34567266E-04 0.60142089E+01</pdfrwt>
<pdfrwt beam="2">  1       21 0.24772292E-01 0.60142089E+01</pdfrwt>
<totfact> 0.25475432E+09</totfact>
</mgrwt>
</event>
<event>
 4    1  0.4144004E+006  0.6769041E+01  0.7546771E-02  0.2324927E+00
         21   -1    0    0  503  502  0.00000000000E+00  0.00000000000E+00  0.76890964359E-01  0.76890964359E-01  0.00000000000E+00 0.  1.
         21   -1    0    0  501  503 -0.00000000000E+00 -0.00000000000E+00 -0.69180532686E+03  0.69180532686E+03  0.00000000000E+00 0. -1.
          5    1    1    2  501    0  0.32324023213E+00  0.48605999517E+01 -0.47466372444E+03  0.47471198765E+03  0.47000000000E+01 0. -1.
         -5    1    1    2    0  502 -0.32324023213E+00 -0.48605999517E+01 -0.21706471145E+03  0.21717023018E+03  0.47000000000E+01 0.  1.
<mgrwt>
<rscale>  2 0.67690410E+01</rscale>
<asrwt>0</asrwt>
<pdfrwt beam="1">  1       21 0.11829235E-04 0.67690410E+01</pdfrwt>
<pdfrwt beam="2">  1       21 0.10643289E+00 0.67690410E+01</pdfrwt>
<totfact> 0.80616897E+08</totfact>
</mgrwt>
</event>
<event>
 4    1  0.4144004E+006  0.5292310E+01  0.7546771E-02  0.2517772E+00
         21   -1    0    0  501  502  0.00000000000E+00  0.00000000000E+00  0.72714321744E+02  0.72714321744E+02  0.00000000000E+00 0.  1.
         21   -1    0    0  502  503 -0.00000000000E+00 -0.00000000000E+00 -0.11930976893E+01  0.11930976893E+01  0.00000000000E+00 0.  1.
          5    1    1    2  501    0 -0.10164815542E+01  0.22102733230E+01  0.66169600300E+02  0.66380904986E+02  0.47000000000E+01 0.  1.
         -5    1    1    2    0  503  0.10164815542E+01 -0.22102733230E+01  0.53516237546E+01  0.75265144472E+01  0.47000000000E+01 0.  1.
<mgrwt>
<rscale>  2 0.52923098E+01</rscale>
<asrwt>0</asrwt>
<pdfrwt beam="1">  1       21 0.11186815E-01 0.52923098E+01</pdfrwt>
<pdfrwt beam="2">  1       21 0.18355355E-03 0.52923098E+01</pdfrwt>
<totfact> 0.86419513E+08</totfact>
</mgrwt>
</event>
<event>
 4    1  0.4144004E+006  0.5316192E+01  0.7546771E-02  0.2513943E+00
         21   -1    0    0  501  502  0.00000000000E+00  0.00000000000E+00  0.74041051601E+01  0.74041051601E+01  0.00000000000E+00 0.  1.
         21   -1    0    0  502  503 -0.00000000000E+00 -0.00000000000E+00 -0.23244664925E+02  0.23244664925E+02  0.00000000000E+00 0. -1.
          5    1    1    2  501    0  0.13084581032E+01  0.21118330943E+01  0.60894918842E+01  0.80835520060E+01  0.47000000000E+01 0.  1.
         -5    1    1    2    0  503 -0.13084581032E+01 -0.21118330943E+01 -0.21930051649E+02  0.22565218079E+02  0.47000000000E+01 0. -1.
<mgrwt>
<rscale>  2 0.53161924E+01</rscale>
<asrwt>0</asrwt>
<pdfrwt beam="1">  1       21 0.11390931E-02 0.53161924E+01</pdfrwt>
<pdfrwt beam="2">  1       21 0.35761022E-02 0.53161924E+01</pdfrwt>
<totfact> 0.38332571E+08</totfact>
</mgrwt>
</event>
<event>
 4    1  0.4144004E+006  0.4781248E+01  0.7546771E-02  0.2607487E+00
         21   -1    0    0  503  502  0.00000000000E+00  0.00000000000E+00  0.12118073131E+01  0.12118073131E+01  0.00000000000E+00 0. -1.
         21   -1    0    0  501  503 -0.00000000000E+00 -0.00000000000E+00 -0.22463029103E+02  0.22463029103E+02  0.00000000000E+00 0. -1.
          5    1    1    2  501    0 -0.62982640098E+00 -0.61126785127E+00 -0.58878204411E+01  0.75846396900E+01  0.47000000000E+01 0. -1.
         -5    1    1    2    0  502  0.62982640098E+00  0.61126785127E+00 -0.15363401349E+02  0.16090196726E+02  0.47000000000E+01 0. -1.
<mgrwt>
<rscale>  2 0.47812477E+01</rscale>
<asrwt>0</asrwt>
<pdfrwt beam="1">  1       21 0.18643189E-03 0.47812477E+01</pdfrwt>
<pdfrwt beam="2">  1       21 0.34558507E-02 0.47812477E+01</pdfrwt>
<totfact> 0.43539979E+09</totfact>
</mgrwt>
</event>
<event>
 4    1  0.4144004E+006  0.6989155E+01  0.7546771E-02  0.2302088E+00
         21   -1    0    0  501  502  0.00000000000E+00  0.00000000000E+00  0.24033927300E+01  0.24033927300E+01  0.00000000000E+00 0.  1.
         21   -1    0    0  502  503 -0.00000000000E+00 -0.00000000000E+00 -0.21252854572E+02  0.21252854572E+02  0.00000000000E+00 0. -1.
          5    1    1    2  501    0 -0.40614487093E+01 -0.32035791091E+01 -0.69529347628E+01  0.98585793369E+01  0.47000000000E+01 0.  1.
         -5    1    1    2    0  503  0.40614487093E+01  0.32035791091E+01 -0.11896527079E+02  0.13797667965E+02  0.47000000000E+01 0. -1.
<mgrwt>
<rscale>  2 0.69891548E+01</rscale>
<asrwt>0</asrwt>
<pdfrwt beam="1">  1       21 0.36975272E-03 0.69891548E+01</pdfrwt>
<pdfrwt beam="2">  1       21 0.32696700E-02 0.69891548E+01</pdfrwt>
<totfact> 0.26266985E+09</totfact>
</mgrwt>
</event>
<event>
 4    1  0.4144004E+006  0.6461687E+01  0.7546771E-02  0.2358947E+00
         21   -1    0    0  501  502  0.00000000000E+00  0.00000000000E+00  0.92761013188E+03  0.92761013188E+03  0.00000000000E+00 0. -1.
         21   -1    0    0  502  503 -0.00000000000E+00 -0.00000000000E+00 -0.58199089413E-01  0.58199089413E-01  0.00000000000E+00 0. -1.
          5    1    1    2  501    0  0.23794923715E+00  0.44279542435E+01  0.68456752449E+03  0.68459802000E+03  0.47000000000E+01 0. -1.
         -5    1    1    2    0  503 -0.23794923715E+00 -0.44279542435E+01  0.24298440830E+03  0.24307031097E+03  0.47000000000E+01 0. -1.
<mgrwt>
<rscale>  2 0.64616870E+01</rscale>
<asrwt>0</asrwt>
<pdfrwt beam="1">  1       21 0.14269741E+00 0.64616870E+01</pdfrwt>
<pdfrwt beam="2">  1       21 0.89544490E-05 0.64616870E+01</pdfrwt>
<totfact> 0.61243355E+08</totfact>
</mgrwt>
</event>
<event>
 4    1  0.4144004E+006  0.5596056E+01  0.7546771E-02  0.2471163E+00
         21   -1    0    0  501  502  0.00000000000E+00  0.00000000000E+00  0.18577927420E+03  0.18577927420E+03  0.00000000000E+00 0. -1.
         21   -1    0    0  502  503 -0.00000000000E+00 -0.00000000000E+00 -0.16870141886E+00  0.16870141886E+00  0.00000000000E+00 0. -1.
          5    1    1    2  501    0  0.21030247299E+01 -0.21916036565E+01  0.90159140073E+02  0.90332642928E+02  0.47000000000E+01 0. -1.
         -5    1    1    2    0  503 -0.21030247299E+01  0.21916036565E+01  0.95451432706E+02  0.95615332689E+02  0.47000000000E+01 0. -1.
<mgrwt>
<rscale>  2 0.55960557E+01</rscale>
<asrwt>0</asrwt>
<pdfrwt beam="1">  1       21 0.28581263E-01 0.55960557E+01</pdfrwt>
<pdfrwt beam="2">  1       21 0.25954213E-04 0.55960557E+01</pdfrwt>
<totfact> 0.27746289E+09</totfact>
</mgrwt>
</event>
<event>
 4    1  0.4144004E+006  0.5646442E+01  0.7546771E-02  0.2463844E+00
         21   -1    0    0  501  502  0.00000000000E+00  0.00000000000E+00  0.57534703711E+02  0.57534703711E+02  0.00000000000E+00 0.  1.
         21   -1    0    0  502  503 -0.00000000000E+00 -0.00000000000E+00 -0.60643245573E+00  0.60643245573E+00  0.00000000000E+00 0.  1.
          5    1    1    2  501    0 -0.66309071773E+00 -0.30582054563E+01  0.37000633016E+02  0.37428988144E+02  0.47000000000E+01 0.  1.
         -5    1    1    2    0  503  0.66309071773E+00  0.30582054563E+01  0.19927638239E+02  0.20712148022E+02  0.47000000000E+01 0.  1.
<mgrwt>
<rscale>  2 0.56464422E+01</rscale>
<asrwt>0</asrwt>
<pdfrwt beam="1">  1       21 0.88514886E-02 0.56464422E+01</pdfrwt>
<pdfrwt beam="2">  1       21 0.93297346E-04 0.56464422E+01</pdfrwt>
<totfact> 0.32424352E+09</totfact>
</mgrwt>
</event>
<event>
 4    1  0.4144004E+006  0.6016171E+01  0.7546771E-02  0.2413324E+00
         21   -1    0    0  501  502  0.00000000000E+00  0.00000000000E+00  0.14385873089E+03  0.14385873089E+03  0.00000000000E+00 0. -1.
         21   -1    0    0  502  503 -0.00000000000E+00 -0.00000000000E+00 -0.33884707478E+00  0.33884707478E+00  0.00000000000E+00 0. -1.
          5    1    1    2  501    0  0.37424050822E+01 -0.31418772693E+00  0.10834561082E+03  0.10851251400E+03  0.47000000000E+01 0. -1.
         -5    1    1    2    0  503 -0.37424050822E+01  0.31418772693E+00  0.35174272995E+02  0.35685063968E+02  0.47000000000E+01 0. -1.
<mgrwt>
<rscale>  2 0.60161707E+01</rscale>
<asrwt>0</asrwt>
<pdfrwt beam="1">  1       21 0.22132064E-01 0.60161707E+01</pdfrwt>
<pdfrwt beam="2">  1       21 0.52130434E-04 0.60161707E+01</pdfrwt>
<totfact> 0.17701236E+09</totfact>
</mgrwt>
</event>
<event>
 4    1  0.4144004E+006  0.5329783E+01  0.7546771E-02  0.2511778E+00
         21   -1    0    0  503  502  0.00000000000E+00  0.00000000000E+00  0.54508916604E+01  0.54508916604E+01  0.00000000000E+00 0.  1.
         21   -1    0    0  501  503 -0.00000000000E+00 -0.00000000000E+00 -0.16700608534E+02  0.16700608534E+02  0.00000000000E+00 0.  1.
          5    1    1    2  501    0 -0.24680407697E+01  0.47472432190E+00 -0.14811414067E+02  0.15741174514E+02  0.47000000000E+01 0.  1.
         -5    1    1    2    0  502  0.24680407697E+01 -0.47472432190E+00  0.35616971937E+01  0.64103256799E+01  0.47000000000E+01 0.  1.
<mgrwt>
<rscale>  2 0.53297831E+01</rscale>
<asrwt>0</asrwt>
<pdfrwt beam="1">  1       21 0.83859872E-03 0.53297831E+01</pdfrwt>
<pdfrwt beam="2">  1       21 0.25693244E-02 0.53297831E+01</pdfrwt>
<totfact> 0.95018478E+08</totfact>
</mgrwt>
</event>
<event>
 4    1  0.4144004E+006  0.5350033E+01  0.7546771E-02  0.2508568E+00
         21   -1    0    0  503  502  0.00000000000E+00  0.00000000000E+00  0.47679510861E+00  0.47679510861E+00  0.00000000000E+00 0. -1.
         21   -1    0    0  501  503 -0.00000000000E+00 -0.00000000000E+00 -0.72879977689E+02  0.72879977689E+02  0.00000000000E+00 0. -1.
          5    1    1    2  501    0 -0.25331388381E+01  0.34068258568E+00 -0.51601824032E+02  0.51878426156E+02  0.47000000000E+01 0. -1.
         -5    1    1    2    0  502  0.25331388381E+01 -0.34068258568E+00 -0.20801358549E+02  0.21478346642E+02  0.47000000000E+01 0. -1.
<mgrwt>
<rscale>  2 0.53500334E+01</rscale>
<asrwt>0</asrwt>
<pdfrwt beam="1">  1       21 0.73353115E-04 0.53500334E+01</pdfrwt>
<pdfrwt beam="2">  1       21 0.11212301E-01 0.53500334E+01</pdfrwt>
<totfact> 0.29666905E+09</totfact>
</mgrwt>
</event>
<event>
 4    1  0.4144004E+006  0.5590289E+01  0.7546771E-02  0.2472008E+00
         21   -1    0    0  503  502  0.00000000000E+00  0.00000000000E+00  0.22737197223E+02  0.22737197223E+02  0.00000000000E+00 0. -1.
         21   -1    0    0  501  503 -0.00000000000E+00 -0.00000000000E+00 -0.14592833960E+01  0.14592833960E+01  0.00000000000E+00 0. -1.
          5    1    1    2  501    0  0.27133305622E+01 -0.13413317977E+01  0.77221069991E+01  0.95332193008E+01  0.47000000000E+01 0. -1.
         -5    1    1    2    0  502 -0.27133305622E+01  0.13413317977E+01  0.13555806828E+02  0.14663261318E+02  0.47000000000E+01 0. -1.
<mgrwt>
<rscale>  2 0.55902892E+01</rscale>
<asrwt>0</asrwt>
<pdfrwt beam="1">  1       21 0.34980301E-02 0.55902892E+01</pdfrwt>
<pdfrwt beam="2">  1       21 0.22450515E-03 0.55902892E+01</pdfrwt>
<totfact> 0.39011063E+09</totfact>
</mgrwt>
</event>
<event>
 4    1  0.4144004E+006  0.6384524E+01  0.7546771E-02  0.2367912E+00
         21   -1    0    0  503  502  0.00000000000E+00  0.00000000000E+00  0.23984714791E+01  0.23984714791E+01  0.00000000000E+00 0.  1.
         21   -1    0    0  501  503 -0.00000000000E+00 -0.00000000000E+00 -0.24356456890E+02  0.24356456890E+02  0.00000000000E+00 0. -1.
          5    1    1    2  501    0 -0.25629301800E+01  0.34790127337E+01 -0.18333391520E+02  0.19413278583E+02  0.47000000000E+01 0. -1.
         -5    1    1    2    0  502  0.25629301800E+01 -0.34790127337E+01 -0.36245938905E+01  0.73416497860E+01  0.47000000000E+01 0.  1.
<mgrwt>
<rscale>  2 0.63845235E+01</rscale>
<asrwt>0</asrwt>
<pdfrwt beam="1">  1       21 0.36899561E-03 0.63845235E+01</pdfrwt>
<pdfrwt beam="2">  1       21 0.37471472E-02 0.63845235E+01</pdfrwt>
<totfact> 0.20048967E+09</totfact>
</mgrwt>
</event>
<event>
 4    1  0.4144004E+006  0.5542984E+01  0.7546771E-02  0.2478993E+00
         21   -1    0    0  503  502  0.00000000000E+00  0.00000000000E+00  0.15969355104E+01  0.15969355104E+01  0.00000000000E+00 0.  1.
         21   -1    0    0  501  503 -0.00000000000E+00 -0.00000000000E+00 -0.27266784610E+02  0.27266784610E+02  0.00000000000E+00 0. -1.
          5    1    1    2  501    0  0.70588267175E+00  0.28524373160E+01 -0.20665297038E+02  0.21395774598E+02  0.47000000000E+01 0. -1.
         -5    1    1    2    0  502 -0.70588267175E+00 -0.28524373160E+01 -0.50045520624E+01  0.74679455229E+01  0.47000000000E+01 0.  1.
<mgrwt>
<rscale>  2 0.55429838E+01</rscale>
<asrwt>0</asrwt>
<pdfrwt beam="1">  1       21 0.24568239E-03 0.55429838E+01</pdfrwt>
<pdfrwt beam="2">  1       21 0.41948899E-02 0.55429838E+01</pdfrwt>
<totfact> 0.26270953E+09</totfact>
</mgrwt>
</event>
<event>
 4    1  0.4144004E+006  0.6848624E+01  0.7546771E-02  0.2316531E+00
         21   -1    0    0  503  502  0.00000000000E+00  0.00000000000E+00  0.10298193175E+03  0.10298193175E+03  0.00000000000E+00 0. -1.
         21   -1    0    0  501  503 -0.00000000000E+00 -0.00000000000E+00 -0.14285247325E+01  0.14285247325E+01  0.00000000000E+00 0.  1.
          5    1    1    2  501    0 -0.14251324602E+01 -0.47731173724E+01  0.76901195044E+01  0.10297649731E+02  0.47000000000E+01 0. -1.
         -5    1    1    2    0  502  0.14251324602E+01  0.47731173724E+01  0.93863287510E+02  0.94112806749E+02  0.47000000000E+01 0. -1.
<mgrwt>
<rscale>  2 0.68486241E+01</rscale>
<asrwt>0</asrwt>
<pdfrwt beam="1">  1       21 0.15843368E-01 0.68486241E+01</pdfrwt>
<pdfrwt beam="2">  1       21 0.21977312E-03 0.68486241E+01</pdfrwt>
<totfact> 0.47726779E+08</totfact>
</mgrwt>
</event>
<event>
 4    1  0.4144004E+006  0.4822641E+01  0.7546771E-02  0.2599613E+00
         21   -1    0    0  503  502  0.00000000000E+00  0.00000000000E+00  0.53803706450E+01  0.53803706450E+01  0.00000000000E+00 0.  1.
         21   -1    0    0  501  503 -0.00000000000E+00 -0.00000000000E+00 -0.54720866140E+01  0.54720866140E+01  0.00000000000E+00 0.  1.
          5    1    1    2  501    0 -0.10554649014E+01  0.23206884886E+00 -0.25327101680E+01  0.54472454418E+01  0.47000000000E+01 0.  1.
         -5    1    1    2    0  502  0.10554649014E+01 -0.23206884886E+00  0.24409941990E+01  0.54052118171E+01  0.47000000000E+01 0.  1.
<mgrwt>
<rscale>  2 0.48226406E+01</rscale>
<asrwt>0</asrwt>
<pdfrwt beam="1">  1       21 0.82774933E-03 0.48226406E+01</pdfrwt>
<pdfrwt beam="2">  1       21 0.84185948E-03 0.48226406E+01</pdfrwt>
<totfact> 0.42190245E+09</totfact>
</mgrwt>
</event>
<event>
 4    1  0.4144004E+006  0.6934658E+01  0.7546771E-02  0.2307632E+00
         21   -1    0    0  501  502  0.00000000000E+00  0.00000000000E+00  0.40280517425E+01  0.40280517425E+01  0.00000000000E+00 0.  1.
         21   -1    0    0  502  503 -0.00000000000E+00 -0.00000000000E+00 -0.13156634253E+02  0.13156634253E+02  0.00000000000E+00 0. -1.
          5    1    1    2  501    0 -0.46563506065E+01 -0.20779515913E+01 -0.19499591520E+01  0.72035980233E+01  0.47000000000E+01 0.  1.
         -5    1    1    2    0  503  0.46563506065E+01  0.20779515913E+01 -0.71786233586E+01  0.99810879724E+01  0.47000000000E+01 0. -1.
<mgrwt>
<rscale>  2 0.69346582E+01</rscale>
<asrwt>0</asrwt>
<pdfrwt beam="1">  1       21 0.61970027E-03 0.69346582E+01</pdfrwt>
<pdfrwt beam="2">  1       21 0.20240976E-02 0.69346582E+01</pdfrwt>
<totfact> 0.25537501E+09</totfact>
</mgrwt>
</event>
<event>
 4    1  0.4144004E+006  0.9805327E+01  0.7546771E-02  0.2086239E+00
         21   -1    0    0  501  502  0.00000000000E+00  0.00000000000E+00  0.52649567602E+03  0.52649567602E+03  0.00000000000E+00 0.  1.
         21   -1    0    0  502  503 -0.00000000000E+00 -0.00000000000E+00 -0.37370107176E+00  0.37370107176E+00  0.00000000000E+00 0. -1.
          5    1    1    2  501    0 -0.84681034789E+01 -0.15315578962E+01  0.45143833473E+03  0.45154480897E+03  0.47000000000E+01 0.  1.
         -5    1    1    2    0  503  0.84681034789E+01  0.15315578962E+01  0.74683640216E+02  0.75324568117E+02  0.47000000000E+01 0. -1.
<mgrwt>
<rscale>  2 0.98053274E+01</rscale>
<asrwt>0</asrwt>
<pdfrwt beam="1">  1       21 0.80998741E-01 0.98053274E+01</pdfrwt>
<pdfrwt beam="2">  1       21 0.57492894E-04 0.98053274E+01</pdfrwt>
<totfact> 0.20223963E+08</totfact>
</mgrwt>
</event>
<event>
 4    1  0.4144004E+006  0.5135929E+01  0.7546771E-02  0.2543591E+00
         21   -1    0    0  501  502  0.00000000000E+00  0.00000000000E+00  0.87444291611E+02  0.87444291611E+02  0.00000000000E+00 0. -1.
         21   -1    0    0  502  503 -0.00000000000E+00 -0.00000000000E+00 -0.36781233969E+00  0.36781233969E+00  0.00000000000E+00 0. -1.
          5    1    1    2  501    0 -0.17393101453E+01 -0.11236379374E+01  0.62159517551E+02  0.62371334635E+02  0.47000000000E+01 0. -1.
         -5    1    1    2    0  503  0.17393101453E+01  0.11236379374E+01  0.24916961721E+02  0.25440769316E+02  0.47000000000E+01 0. -1.
<mgrwt>
<rscale>  2 0.51359285E+01</rscale>
<asrwt>0</asrwt>
<pdfrwt beam="1">  1       21 0.13452951E-01 0.51359285E+01</pdfrwt>
<pdfrwt beam="2">  1       21 0.56586584E-04 0.51359285E+01</pdfrwt>
<totfact> 0.30432058E+09</totfact>
</mgrwt>
</event>
<event>
 4    1  0.4144004E+006  0.1786398E+02  0.7546771E-02  0.1791477E+00
         21   -1    0    0  503  502  0.00000000000E+00  0.00000000000E+00  0.32120819655E+02  0.32120819655E+02  0.00000000000E+00 0.  1.
         21   -1    0    0  501  503 -0.00000000000E+00 -0.00000000000E+00 -0.12188169468E+02  0.12188169468E+02  0.00000000000E+00 0. -1.
          5    1    1    2  501    0 -0.88284133900E+01  0.14801713507E+02  0.44086975132E+00  0.17869414424E+02  0.47000000000E+01 0. -1.
         -5    1    1    2    0  502  0.88284133900E+01 -0.14801713507E+02  0.19491780436E+02  0.26439574699E+02  0.47000000000E+01 0.  1.
<mgrwt>
<rscale>  2 0.17863975E+02</rscale>
<asrwt>0</asrwt>
<pdfrwt beam="1">  1       21 0.49416645E-02 0.17863975E+02</pdfrwt>
<pdfrwt beam="2">  1       21 0.18751030E-02 0.17863975E+02</pdfrwt>
<totfact> 0.22141391E+08</totfact>
</mgrwt>
</event>
<event>
 4    1  0.4144004E+006  0.7596580E+01  0.7546771E-02  0.2244746E+00
         21   -1    0    0  503  502  0.00000000000E+00  0.00000000000E+00  0.26944560743E+01  0.26944560743E+01  0.00000000000E+00 0. -1.
         21   -1    0    0  501  503 -0.00000000000E+00 -0.00000000000E+00 -0.21418591386E+02  0.21418591386E+02  0.00000000000E+00 0. -1.
          5    1    1    2  501    0 -0.46533032417E+01  0.37369500198E+01 -0.94549766568E+01  0.12128668933E+02  0.47000000000E+01 0. -1.
         -5    1    1    2    0  502  0.46533032417E+01 -0.37369500198E+01 -0.92691586549E+01  0.11984378527E+02  0.47000000000E+01 0. -1.
<mgrwt>
<rscale>  2 0.75965799E+01</rscale>
<asrwt>0</asrwt>
<pdfrwt beam="1">  1       21 0.41453171E-03 0.75965799E+01</pdfrwt>
<pdfrwt beam="2">  1       21 0.32951679E-02 0.75965799E+01</pdfrwt>
<totfact> 0.23590746E+09</totfact>
</mgrwt>
</event>
<event>
 4    1  0.4144004E+006  0.1252987E+02  0.7546771E-02  0.1954372E+00
         21   -1    0    0  501  502  0.00000000000E+00  0.00000000000E+00  0.26482658953E+01  0.26482658953E+01  0.00000000000E+00 0.  1.
         21   -1    0    0  502  503 -0.00000000000E+00 -0.00000000000E+00 -0.92193279395E+02  0.92193279395E+02  0.00000000000E+00 0. -1.
          5    1    1    2  501    0 -0.90128347715E+01 -0.73264273322E+01 -0.16440108930E+02  0.20670629156E+02  0.47000000000E+01 0.  1.
         -5    1    1    2    0  503  0.90128347715E+01  0.73264273322E+01 -0.73104904570E+02  0.74170916134E+02  0.47000000000E+01 0. -1.
<mgrwt>
<rscale>  2 0.12529873E+02</rscale>
<asrwt>0</asrwt>
<pdfrwt beam="1">  1       21 0.40742551E-03 0.12529873E+02</pdfrwt>
<pdfrwt beam="2">  1       21 0.14183582E-01 0.12529873E+02</pdfrwt>
<totfact> 0.33416618E+08</totfact>
</mgrwt>
</event>
<event>
 4    1  0.4144004E+006  0.6385402E+01  0.7546771E-02  0.2367809E+00
         21   -1    0    0  503  502  0.00000000000E+00  0.00000000000E+00  0.52387292501E-01  0.52387292501E-01  0.00000000000E+00 0. -1.
         21   -1    0    0  501  503 -0.00000000000E+00 -0.00000000000E+00 -0.12631065711E+04  0.12631065711E+04  0.00000000000E+00 0.  1.
          5    1    1    2  501    0  0.37964865716E+01 -0.20664096649E+01 -0.10228087099E+04  0.10228286418E+04  0.47000000000E+01 0.  1.
         -5    1    1    2    0  502 -0.37964865716E+01  0.20664096649E+01 -0.24024547388E+03  0.24033031660E+03  0.47000000000E+01 0. -1.
<mgrwt>
<rscale>  2 0.63854020E+01</rscale>
<asrwt>0</asrwt>
<pdfrwt beam="1">  1       21 0.80589512E-05 0.63854020E+01</pdfrwt>
<pdfrwt beam="2">  1       21 0.19433933E+00 0.63854020E+01</pdfrwt>
<totfact> 0.35586241E+08</totfact>
</mgrwt>
</event>
<event>
 4    1  0.4144004E+006  0.6619899E+01  0.7546771E-02  0.2341109E+00
         21   -1    0    0  503  502  0.00000000000E+00  0.00000000000E+00  0.23688341569E+03  0.23688341569E+03  0.00000000000E+00 0.  1.
         21   -1    0    0  501  503 -0.00000000000E+00 -0.00000000000E+00 -0.24625488114E+00  0.24625488114E+00  0.00000000000E+00 0. -1.
          5    1    1    2  501    0  0.37553673808E+01 -0.27622965090E+01  0.59184301893E+02  0.59553376535E+02  0.47000000000E+01 0. -1.
         -5    1    1    2    0  502 -0.37553673808E+01  0.27622965090E+01  0.17745285892E+03  0.17757629404E+03  0.47000000000E+01 0.  1.
<mgrwt>
<rscale>  2 0.66198993E+01</rscale>
<asrwt>0</asrwt>
<pdfrwt beam="1">  1       21 0.36443420E-01 0.66198993E+01</pdfrwt>
<pdfrwt beam="2">  1       21 0.37885556E-04 0.66198993E+01</pdfrwt>
<totfact> 0.12616089E+09</totfact>
</mgrwt>
</event>
<event>
 4    1  0.4144004E+006  0.4840691E+01  0.7546771E-02  0.2596215E+00
         21   -1    0    0  503  502  0.00000000000E+00  0.00000000000E+00  0.25139181950E+01  0.25139181950E+01  0.00000000000E+00 0. -1.
         21   -1    0    0  501  503 -0.00000000000E+00 -0.00000000000E+00 -0.10797916092E+02  0.10797916092E+02  0.00000000000E+00 0. -1.
          5    1    1    2  501    0 -0.10988486408E+01 -0.36718047029E+00 -0.66035703183E+01  0.81877610360E+01  0.47000000000E+01 0.  1.
         -5    1    1    2    0  502  0.10988486408E+01  0.36718047029E+00 -0.16804275785E+01  0.51240732508E+01  0.47000000000E+01 0.  1.
<mgrwt>
<rscale>  2 0.48406910E+01</rscale>
<asrwt>0</asrwt>
<pdfrwt beam="1">  1       21 0.38675666E-03 0.48406910E+01</pdfrwt>
<pdfrwt beam="2">  1       21 0.16612178E-02 0.48406910E+01</pdfrwt>
<totfact> 0.46638499E+09</totfact>
</mgrwt>
</event>
<event>
 4    1  0.4144004E+006  0.7879023E+01  0.7546771E-02  0.2220553E+00
         21   -1    0    0  501  502  0.00000000000E+00  0.00000000000E+00  0.36000311978E+01  0.36000311978E+01  0.00000000000E+00 0. -1.
         21   -1    0    0  502  503 -0.00000000000E+00 -0.00000000000E+00 -0.19883671681E+02  0.19883671681E+02  0.00000000000E+00 0.  1.
          5    1    1    2  501    0  0.10542348742E+00 -0.63228074442E+01 -0.38636147186E+01  0.87753362774E+01  0.47000000000E+01 0. -1.
         -5    1    1    2    0  503 -0.10542348742E+00  0.63228074442E+01 -0.12420025764E+02  0.14708366601E+02  0.47000000000E+01 0.  1.
<mgrwt>
<rscale>  2 0.78790233E+01</rscale>
<asrwt>0</asrwt>
<pdfrwt beam="1">  1       21 0.55385095E-03 0.78790233E+01</pdfrwt>
<pdfrwt beam="2">  1       21 0.30590264E-02 0.78790233E+01</pdfrwt>
<totfact> 0.17993072E+09</totfact>
</mgrwt>
</event>
<event>
 4    1  0.4144004E+006  0.5377758E+01  0.7546771E-02  0.2504208E+00
         21   -1    0    0  503  502  0.00000000000E+00  0.00000000000E+00  0.40267233418E+02  0.40267233418E+02  0.00000000000E+00 0.  1.
         21   -1    0    0  501  503 -0.00000000000E+00 -0.00000000000E+00 -0.85306590999E+00  0.85306590999E+00  0.00000000000E+00 0. -1.
          5    1    1    2  501    0  0.24533693212E+01  0.90069959424E+00  0.11532381815E+02  0.12724626168E+02  0.47000000000E+01 0. -1.
         -5    1    1    2    0  502 -0.24533693212E+01 -0.90069959424E+00  0.27881785693E+02  0.28395673160E+02  0.47000000000E+01 0.  1.
<mgrwt>
<rscale>  2 0.53777580E+01</rscale>
<asrwt>0</asrwt>
<pdfrwt beam="1">  1       21 0.61949575E-02 0.53777580E+01</pdfrwt>
<pdfrwt beam="2">  1       21 0.13124094E-03 0.53777580E+01</pdfrwt>
<totfact> 0.33525197E+09</totfact>
</mgrwt>
</event>
<event>
 4    1  0.4144004E+006  0.6201111E+01  0.7546771E-02  0.2389961E+00
         21   -1    0    0  503  502  0.00000000000E+00  0.00000000000E+00  0.44167473236E+00  0.44167473236E+00  0.00000000000E+00 0.  1.
         21   -1    0    0  501  503 -0.00000000000E+00 -0.00000000000E+00 -0.10911361236E+03  0.10911361236E+03  0.00000000000E+00 0. -1.
          5    1    1    2  501    0  0.39856480867E+01  0.69165107731E+00 -0.78960544220E+02  0.79203669835E+02  0.47000000000E+01 0. -1.
         -5    1    1    2    0  502 -0.39856480867E+01 -0.69165107731E+00 -0.29711393405E+02  0.30351617255E+02  0.47000000000E+01 0.  1.
<mgrwt>
<rscale>  2 0.62011105E+01</rscale>
<asrwt>0</asrwt>
<pdfrwt beam="1">  1       21 0.67950049E-04 0.62011105E+01</pdfrwt>
<pdfrwt beam="2">  1       21 0.16786687E-01 0.62011105E+01</pdfrwt>
<totfact> 0.19860000E+09</totfact>
</mgrwt>
</event>
<event>
 4    1  0.4144004E+006  0.6703627E+01  0.7546771E-02  0.2331952E+00
         21   -1    0    0  501  502  0.00000000000E+00  0.00000000000E+00  0.15170437927E+00  0.15170437927E+00  0.00000000000E+00 0. -1.
         21   -1    0    0  502  503 -0.00000000000E+00 -0.00000000000E+00 -0.39567665193E+03  0.39567665193E+03  0.00000000000E+00 0.  1.
          5    1    1    2  501    0  0.26924607217E+01 -0.39495915735E+01 -0.98539358093E+02  0.98767118576E+02  0.47000000000E+01 0. -1.
         -5    1    1    2    0  503 -0.26924607217E+01  0.39495915735E+01 -0.29698558946E+03  0.29706123773E+03  0.47000000000E+01 0.  1.
<mgrwt>
<rscale>  2 0.67036273E+01</rscale>
<asrwt>0</asrwt>
<pdfrwt beam="1">  1       21 0.23339592E-04 0.67036273E+01</pdfrwt>
<pdfrwt beam="2">  1       21 0.60872140E-01 0.67036273E+01</pdfrwt>
<totfact> 0.96713283E+08</totfact>
</mgrwt>
</event>
<event>
 4    1  0.4144004E+006  0.1445498E+02  0.7546771E-02  0.1885170E+00
         21   -1    0    0  503  502  0.00000000000E+00  0.00000000000E+00  0.34006954297E+01  0.34006954297E+01  0.00000000000E+00 0. -1.
         21   -1    0    0  501  503 -0.00000000000E+00 -0.00000000000E+00 -0.90143726308E+02  0.90143726308E+02  0.00000000000E+00 0.  1.
          5    1    1    2  501    0  0.13540674017E+02  0.18725695034E+01 -0.69763514344E+02  0.71245310744E+02  0.47000000000E+01 0.  1.
         -5    1    1    2    0  502 -0.13540674017E+02 -0.18725695034E+01 -0.16979516534E+02  0.22299110993E+02  0.47000000000E+01 0. -1.
<mgrwt>
<rscale>  2 0.14454977E+02</rscale>
<asrwt>0</asrwt>
<pdfrwt beam="1">  1       21 0.52318399E-03 0.14454977E+02</pdfrwt>
<pdfrwt beam="2">  1       21 0.13868263E-01 0.14454977E+02</pdfrwt>
<totfact> 0.25685386E+08</totfact>
</mgrwt>
</event>
<event>
 4    1  0.4144004E+006  0.5782323E+01  0.7546771E-02  0.2444646E+00
         21   -1    0    0  501  502  0.00000000000E+00  0.00000000000E+00  0.14440592638E+03  0.14440592638E+03  0.00000000000E+00 0. -1.
         21   -1    0    0  502  503 -0.00000000000E+00 -0.00000000000E+00 -0.60701550702E+00  0.60701550702E+00  0.00000000000E+00 0.  1.
          5    1    1    2  501    0  0.70772582978E+00 -0.32930805687E+01  0.12892502794E+03  0.12905463217E+03  0.47000000000E+01 0. -1.
         -5    1    1    2    0  503 -0.70772582978E+00  0.32930805687E+01  0.14873882931E+02  0.15958309714E+02  0.47000000000E+01 0.  1.
<mgrwt>
<rscale>  2 0.57823227E+01</rscale>
<asrwt>0</asrwt>
<pdfrwt beam="1">  1       21 0.22216269E-01 0.57823227E+01</pdfrwt>
<pdfrwt beam="2">  1       21 0.93387116E-04 0.57823227E+01</pdfrwt>
<totfact> 0.78155284E+08</totfact>
</mgrwt>
</event>
<event>
 4    1  0.4144004E+006  0.9853288E+01  0.7546771E-02  0.2083435E+00
         21   -1    0    0  501  502  0.00000000000E+00  0.00000000000E+00  0.29907222613E+02  0.29907222613E+02  0.00000000000E+00 0.  1.
         21   -1    0    0  502  503 -0.00000000000E+00 -0.00000000000E+00 -0.32477863418E+01  0.32477863418E+01  0.00000000000E+00 0.  1.
          5    1    1    2  501    0 -0.83032484919E+01 -0.24603563602E+01  0.13686455015E+02  0.16864351153E+02  0.47000000000E+01 0.  1.
         -5    1    1    2    0  503  0.83032484919E+01  0.24603563602E+01  0.12972981256E+02  0.16290657802E+02  0.47000000000E+01 0.  1.
<mgrwt>
<rscale>  2 0.98532882E+01</rscale>
<asrwt>0</asrwt>
<pdfrwt beam="1">  1       21 0.46011110E-02 0.98532882E+01</pdfrwt>
<pdfrwt beam="2">  1       21 0.49965946E-03 0.98532882E+01</pdfrwt>
<totfact> 0.13046017E+09</totfact>
</mgrwt>
</event>
<event>
 4    1  0.4144004E+006  0.6127494E+01  0.7546771E-02  0.2399120E+00
         21   -1    0    0  503  502  0.00000000000E+00  0.00000000000E+00  0.32441965262E+03  0.32441965262E+03  0.00000000000E+00 0. -1.
         21   -1    0    0  501  503 -0.00000000000E+00 -0.00000000000E+00 -0.15279504194E+00  0.15279504194E+00  0.00000000000E+00 0.  1.
          5    1    1    2  501    0 -0.34794967522E+01 -0.18301063753E+01  0.82207186388E+02  0.82435233249E+02  0.47000000000E+01 0.  1.
         -5    1    1    2    0  502  0.34794967522E+01  0.18301063753E+01  0.24205967119E+03  0.24213721441E+03  0.47000000000E+01 0. -1.
<mgrwt>
<rscale>  2 0.61274943E+01</rscale>
<asrwt>0</asrwt>
<pdfrwt beam="1">  1       21 0.49910164E-01 0.61274943E+01</pdfrwt>
<pdfrwt beam="2">  1       21 0.23507189E-04 0.61274943E+01</pdfrwt>
<totfact> 0.12960466E+09</totfact>
</mgrwt>
</event>
<event>
 4    1  0.4144004E+006  0.1004428E+02  0.7546771E-02  0.2072476E+00
         21   -1    0    0  501  502  0.00000000000E+00  0.00000000000E+00  0.28633445179E+01  0.28633445179E+01  0.00000000000E+00 0.  1.
         21   -1    0    0  502  503 -0.00000000000E+00 -0.00000000000E+00 -0.75629058494E+02  0.75629058494E+02  0.00000000000E+00 0. -1.
          5    1    1    2  501    0  0.88716668564E+01 -0.30196122625E+00 -0.77004015178E+01  0.12656375347E+02  0.47000000000E+01 0.  1.
         -5    1    1    2    0  503 -0.88716668564E+01  0.30196122625E+00 -0.65065312458E+02  0.65836027664E+02  0.47000000000E+01 0. -1.
<mgrwt>
<rscale>  2 0.10044285E+02</rscale>
<asrwt>0</asrwt>
<pdfrwt beam="1">  1       21 0.44051457E-03 0.10044285E+02</pdfrwt>
<pdfrwt beam="2">  1       21 0.11635239E-01 0.10044285E+02</pdfrwt>
<totfact> 0.37082960E+08</totfact>
</mgrwt>
</event>
<event>
 4    1  0.4144004E+006  0.1098172E+02  0.7546771E-02  0.2023075E+00
         21   -1    0    0  501  502  0.00000000000E+00  0.00000000000E+00  0.23962540943E+02  0.23962540943E+02  0.00000000000E+00 0.  1.
         21   -1    0    0  502  503 -0.00000000000E+00 -0.00000000000E+00 -0.39035058797E+02  0.39035058797E+02  0.00000000000E+00 0. -1.
          5    1    1    2  501    0  0.11954342668E+01 -0.98528772072E+01  0.21861930597E+02  0.24465123376E+02  0.47000000000E+01 0.  1.
         -5    1    1    2    0  503 -0.11954342668E+01  0.98528772072E+01 -0.36934448452E+02  0.38532476364E+02  0.47000000000E+01 0. -1.
<mgrwt>
<rscale>  2 0.10981724E+02</rscale>
<asrwt>0</asrwt>
<pdfrwt beam="1">  1       21 0.36865448E-02 0.10981724E+02</pdfrwt>
<pdfrwt beam="2">  1       21 0.60053936E-02 0.10981724E+02</pdfrwt>
<totfact> 0.48642064E+07</totfact>
</mgrwt>
</event>
<event>
 4    1  0.4144004E+006  0.1021252E+02  0.7546771E-02  0.2063091E+00
         21   -1    0    0  503  502  0.00000000000E+00  0.00000000000E+00  0.80607326651E+03  0.80607326651E+03  0.00000000000E+00 0.  1.
         21   -1    0    0  501  503 -0.00000000000E+00 -0.00000000000E+00 -0.13018427504E+00  0.13018427504E+00  0.00000000000E+00 0.  1.
          5    1    1    2  501    0  0.89214739070E+01  0.16164257861E+01  0.37142901503E+03  0.37156938617E+03  0.47000000000E+01 0.  1.
         -5    1    1    2    0  502 -0.89214739070E+01 -0.16164257861E+01  0.43451406721E+03  0.43463406462E+03  0.47000000000E+01 0.  1.
<mgrwt>
<rscale>  2 0.10212518E+02</rscale>
<asrwt>0</asrwt>
<pdfrwt beam="1">  1       21 0.12400728E+00 0.10212518E+02</pdfrwt>
<pdfrwt beam="2">  1       21 0.20028996E-04 0.10212518E+02</pdfrwt>
<totfact> 0.35575787E+08</totfact>
</mgrwt>
</event>
<event>
 4    1  0.4144004E+006  0.5429948E+01  0.7546771E-02  0.2496103E+00
         21   -1    0    0  501  502  0.00000000000E+00  0.00000000000E+00  0.15534784291E+03  0.15534784291E+03  0.00000000000E+00 0. -1.
         21   -1    0    0  502  503 -0.00000000000E+00 -0.00000000000E+00 -0.20695555544E+00  0.20695555544E+00  0.00000000000E+00 0. -1.
          5    1    1    2  501    0  0.15540646689E+01 -0.22314149949E+01  0.99966602312E+02  0.10011396460E+03  0.47000000000E+01 0. -1.
         -5    1    1    2    0  503 -0.15540646689E+01  0.22314149949E+01  0.55174285040E+02  0.55440833865E+02  0.47000000000E+01 0. -1.
<mgrwt>
<rscale>  2 0.54299475E+01</rscale>
<asrwt>0</asrwt>
<pdfrwt beam="1">  1       21 0.23899575E-01 0.54299475E+01</pdfrwt>
<pdfrwt beam="2">  1       21 0.31839440E-04 0.54299475E+01</pdfrwt>
<totfact> 0.27660419E+09</totfact>
</mgrwt>
</event>
<event>
 4    1  0.4144004E+006  0.6564169E+01  0.7546771E-02  0.2347311E+00
         21   -1    0    0  503  502  0.00000000000E+00  0.00000000000E+00  0.56938829897E+00  0.56938829897E+00  0.00000000000E+00 0.  1.
         21   -1    0    0  501  503 -0.00000000000E+00 -0.00000000000E+00 -0.76326888165E+02  0.76326888165E+02  0.00000000000E+00 0. -1.
          5    1    1    2  501    0 -0.15452406001E+01 -0.43139937968E+01 -0.41432688881E+02  0.41949445990E+02  0.47000000000E+01 0.  1.
         -5    1    1    2    0  502  0.15452406001E+01  0.43139937968E+01 -0.34324810985E+02  0.34946830473E+02  0.47000000000E+01 0.  1.
<mgrwt>
<rscale>  2 0.65641687E+01</rscale>
<asrwt>0</asrwt>
<pdfrwt beam="1">  1       21 0.87598260E-04 0.65641687E+01</pdfrwt>
<pdfrwt beam="2">  1       21 0.11742590E-01 0.65641687E+01</pdfrwt>
<totfact> 0.25957574E+09</totfact>
</mgrwt>
</event>
<event>
 4    1  0.4144004E+006  0.8409960E+01  0.7546771E-02  0.2178659E+00
         21   -1    0    0  503  502  0.00000000000E+00  0.00000000000E+00  0.39363026412E+01  0.39363026412E+01  0.00000000000E+00 0. -1.
         21   -1    0    0  501  503 -0.00000000000E+00 -0.00000000000E+00 -0.43212372627E+02  0.43212372627E+02  0.00000000000E+00 0.  1.
          5    1    1    2  501    0 -0.66022272246E+01 -0.22467797922E+01 -0.37656503282E+02  0.38584189290E+02  0.47000000000E+01 0.  1.
         -5    1    1    2    0  502  0.66022272246E+01  0.22467797922E+01 -0.16195667038E+01  0.85644859780E+01  0.47000000000E+01 0. -1.
<mgrwt>
<rscale>  2 0.84099598E+01</rscale>
<asrwt>0</asrwt>
<pdfrwt beam="1">  1       21 0.60558505E-03 0.84099598E+01</pdfrwt>
<pdfrwt beam="2">  1       21 0.66480570E-02 0.84099598E+01</pdfrwt>
<totfact> 0.51353622E+08</totfact>
</mgrwt>
</event>
<event>
 4    1  0.4144004E+006  0.8160881E+01  0.7546771E-02  0.2197767E+00
         21   -1    0    0  503  502  0.00000000000E+00  0.00000000000E+00  0.29135184837E+00  0.29135184837E+00  0.00000000000E+00 0. -1.
         21   -1    0    0  501  503 -0.00000000000E+00 -0.00000000000E+00 -0.23460690887E+03  0.23460690887E+03  0.00000000000E+00 0.  1.
          5    1    1    2  501    0 -0.19215121589E+01 -0.63888782304E+01 -0.13596757444E+03  0.13621226550E+03  0.47000000000E+01 0. -1.
         -5    1    1    2    0  502  0.19215121589E+01  0.63888782304E+01 -0.98347982580E+02  0.98685995215E+02  0.47000000000E+01 0.  1.
<mgrwt>
<rscale>  2 0.81608807E+01</rscale>
<asrwt>0</asrwt>
<pdfrwt beam="1">  1       21 0.44823402E-04 0.81608807E+01</pdfrwt>
<pdfrwt beam="2">  1       21 0.36093338E-01 0.81608807E+01</pdfrwt>
<totfact> 0.11743551E+09</totfact>
</mgrwt>
</event>
<event>
 4    1  0.4144004E+006  0.5490892E+01  0.7546771E-02  0.2486804E+00
         21   -1    0    0  501  502  0.00000000000E+00  0.00000000000E+00  0.16690815899E+03  0.16690815899E+03  0.00000000000E+00 0. -1.
         21   -1    0    0  502  503 -0.00000000000E+00 -0.00000000000E+00 -0.22688890090E+00  0.22688890090E+00  0.00000000000E+00 0. -1.
          5    1    1    2  501    0  0.19101111452E+01  0.21003274166E+01  0.45610132702E+02  0.45939461305E+02  0.47000000000E+01 0. -1.
         -5    1    1    2    0  503 -0.19101111452E+01 -0.21003274166E+01  0.12107113739E+03  0.12119558658E+03  0.47000000000E+01 0. -1.
<mgrwt>
<rscale>  2 0.54908924E+01</rscale>
<asrwt>0</asrwt>
<pdfrwt beam="1">  1       21 0.25678080E-01 0.54908924E+01</pdfrwt>
<pdfrwt beam="2">  1       21 0.34906118E-04 0.54908924E+01</pdfrwt>
<totfact> 0.21975565E+09</totfact>
</mgrwt>
</event>
<event>
 4    1  0.4144004E+006  0.4858702E+01  0.7546771E-02  0.2592847E+00
         21   -1    0    0  503  502  0.00000000000E+00  0.00000000000E+00  0.29153554988E+00  0.29153554988E+00  0.00000000000E+00 0.  1.
         21   -1    0    0  501  503 -0.00000000000E+00 -0.00000000000E+00 -0.17845427546E+03  0.17845427546E+03  0.00000000000E+00 0.  1.
          5    1    1    2  501    0  0.36819465168E+00 -0.11753366627E+01 -0.15513540714E+03  0.15521147358E+03  0.47000000000E+01 0.  1.
         -5    1    1    2    0  502 -0.36819465168E+00  0.11753366627E+01 -0.23027332766E+02  0.23534337422E+02  0.47000000000E+01 0.  1.
<mgrwt>
<rscale>  2 0.48587018E+01</rscale>
<asrwt>0</asrwt>
<pdfrwt beam="1">  1       21 0.44851458E-04 0.48587018E+01</pdfrwt>
<pdfrwt beam="2">  1       21 0.27454605E-01 0.48587018E+01</pdfrwt>
<totfact> 0.12662612E+09</totfact>
</mgrwt>
</event>
<event>
 4    1  0.4144004E+006  0.5318954E+01  0.7546771E-02  0.2513502E+00
         21   -1    0    0  501  502  0.00000000000E+00  0.00000000000E+00  0.11027721932E+02  0.11027721932E+02  0.00000000000E+00 0. -1.
         21   -1    0    0  502  503 -0.00000000000E+00 -0.00000000000E+00 -0.13175719407E+02  0.13175719407E+02  0.00000000000E+00 0.  1.
          5    1    1    2  501    0  0.20506893891E+01 -0.14127808763E+01  0.97858249935E+01  0.11137937313E+02  0.47000000000E+01 0. -1.
         -5    1    1    2    0  503 -0.20506893891E+01  0.14127808763E+01 -0.11933822468E+02  0.13065504027E+02  0.47000000000E+01 0.  1.
<mgrwt>
<rscale>  2 0.53189545E+01</rscale>
<asrwt>0</asrwt>
<pdfrwt beam="1">  1       21 0.16965726E-02 0.53189545E+01</pdfrwt>
<pdfrwt beam="2">  1       21 0.20270337E-02 0.53189545E+01</pdfrwt>
<totfact> 0.49419563E+08</totfact>
</mgrwt>
</event>
<event>
 4    1  0.4144004E+006  0.4808879E+01  0.7546771E-02  0.2602218E+00
         21   -1    0    0  503  502  0.00000000000E+00  0.00000000000E+00  0.59026251982E+02  0.59026251982E+02  0.00000000000E+00 0. -1.
         21   -1    0    0  501  503 -0.00000000000E+00 -0.00000000000E+00 -0.10711924030E+01  0.10711924030E+01  0.00000000000E+00 0. -1.
          5    1    1    2  501    0 -0.10074030933E+01  0.14301326597E+00  0.50466340620E+01  0.69709274234E+01  0.47000000000E+01 0. -1.
         -5    1    1    2    0  502  0.10074030933E+01 -0.14301326597E+00  0.52908425517E+02  0.53126516962E+02  0.47000000000E+01 0. -1.
<mgrwt>
<rscale>  2 0.48088786E+01</rscale>
<asrwt>0</asrwt>
<pdfrwt beam="1">  1       21 0.90809593E-02 0.48088786E+01</pdfrwt>
<pdfrwt beam="2">  1       21 0.16479888E-03 0.48088786E+01</pdfrwt>
<totfact> 0.12540595E+09</totfact>
</mgrwt>
</event>
<event>
 4    1  0.4144004E+006  0.5832840E+01  0.7546771E-02  0.2437701E+00
         21   -1    0    0  503  502  0.00000000000E+00  0.00000000000E+00  0.28237054738E+00  0.28237054738E+00  0.00000000000E+00 0. -1.
         21   -1    0    0  501  503 -0.00000000000E+00 -0.00000000000E+00 -0.16044939887E+03  0.16044939887E+03  0.00000000000E+00 0. -1.
          5    1    1    2  501    0 -0.17231287451E+01  0.29938027617E+01 -0.12019119439E+03  0.12033264411E+03  0.47000000000E+01 0. -1.
         -5    1    1    2    0  502  0.17231287451E+01 -0.29938027617E+01 -0.39975833929E+02  0.40399125312E+02  0.47000000000E+01 0. -1.
<mgrwt>
<rscale>  2 0.58328404E+01</rscale>
<asrwt>0</asrwt>
<pdfrwt beam="1">  1       21 0.43441504E-04 0.58328404E+01</pdfrwt>
<pdfrwt beam="2">  1       21 0.24684590E-01 0.58328404E+01</pdfrwt>
<totfact> 0.18422927E+09</totfact>
</mgrwt>
</event>
<event>
 4    1  0.4144004E+006  0.6849001E+01  0.7546771E-02  0.2316491E+00
         21   -1    0    0  503  502  0.00000000000E+00  0.00000000000E+00  0.28479457505E+02  0.28479457505E+02  0.00000000000E+00 0.  1.
         21   -1    0    0  501  503 -0.00000000000E+00 -0.00000000000E+00 -0.21103574491E+01  0.21103574491E+01  0.00000000000E+00 0.  1.
          5    1    1    2  501    0  0.46562761803E+01 -0.17714143547E+01  0.60185785594E+01  0.91176808762E+01  0.47000000000E+01 0.  1.
         -5    1    1    2    0  502 -0.46562761803E+01  0.17714143547E+01  0.20350521497E+02  0.21472134078E+02  0.47000000000E+01 0.  1.
<mgrwt>
<rscale>  2 0.68490011E+01</rscale>
<asrwt>0</asrwt>
<pdfrwt beam="1">  1       21 0.43814547E-02 0.68490011E+01</pdfrwt>
<pdfrwt beam="2">  1       21 0.32467040E-03 0.68490011E+01</pdfrwt>
<totfact> 0.20083963E+09</totfact>
</mgrwt>
</event>
<event>
 4    1  0.4144004E+006  0.4772665E+01  0.7546771E-02  0.2609135E+00
         21   -1    0    0  501  502  0.00000000000E+00  0.00000000000E+00  0.13230843746E-01  0.13230843746E-01  0.00000000000E+00 0.  1.
         21   -1    0    0  502  503 -0.00000000000E+00 -0.00000000000E+00 -0.17993530686E+04  0.17993530686E+04  0.00000000000E+00 0.  1.
          5    1    1    2  501    0  0.48847198824E+00  0.67061886726E+00 -0.71265936954E+03  0.71267535058E+03  0.47000000000E+01 0.  1.
         -5    1    1    2    0  503 -0.48847198824E+00 -0.67061886726E+00 -0.10866804682E+04  0.10866909489E+04  0.47000000000E+01 0.  1.
<mgrwt>
<rscale>  2 0.47726654E+01</rscale>
<asrwt>0</asrwt>
<pdfrwt beam="1">  1       21 0.20352982E-05 0.47726654E+01</pdfrwt>
<pdfrwt beam="2">  1       21 0.27685296E+00 0.47726654E+01</pdfrwt>
<totfact> 0.88567648E+08</totfact>
</mgrwt>
</event>
<event>
 4    1  0.4144004E+006  0.5435499E+01  0.7546771E-02  0.2495248E+00
         21   -1    0    0  503  502  0.00000000000E+00  0.00000000000E+00  0.37017299660E+01  0.37017299660E+01  0.00000000000E+00 0. -1.
         21   -1    0    0  501  503 -0.00000000000E+00 -0.00000000000E+00 -0.67022668252E+02  0.67022668252E+02  0.00000000000E+00 0. -1.
          5    1    1    2  501    0  0.95149686879E+00  0.25591601214E+01 -0.64850418201E+02  0.65077810255E+02  0.47000000000E+01 0. -1.
         -5    1    1    2    0  502 -0.95149686879E+00 -0.25591601214E+01  0.15294799142E+01  0.56465879632E+01  0.47000000000E+01 0. -1.
<mgrwt>
<rscale>  2 0.54354988E+01</rscale>
<asrwt>0</asrwt>
<pdfrwt beam="1">  1       21 0.56949694E-03 0.54354988E+01</pdfrwt>
<pdfrwt beam="2">  1       21 0.10311179E-01 0.54354988E+01</pdfrwt>
<totfact> 0.21308399E+08</totfact>
</mgrwt>
</event>
<event>
 4    1  0.4144004E+006  0.8034275E+01  0.7546771E-02  0.2207843E+00
         21   -1    0    0  503  502  0.00000000000E+00  0.00000000000E+00  0.22396126098E+02  0.22396126098E+02  0.00000000000E+00 0.  1.
         21   -1    0    0  501  503 -0.00000000000E+00 -0.00000000000E+00 -0.37444332006E+01  0.37444332006E+01  0.00000000000E+00 0.  1.
          5    1    1    2  501    0 -0.64616405811E+01 -0.84070176336E+00  0.30537859883E+01  0.85950676156E+01  0.47000000000E+01 0.  1.
         -5    1    1    2    0  502  0.64616405811E+01  0.84070176336E+00  0.15597906909E+02  0.17545491683E+02  0.47000000000E+01 0.  1.
<mgrwt>
<rscale>  2 0.80342752E+01</rscale>
<asrwt>0</asrwt>
<pdfrwt beam="1">  1       21 0.34455578E-02 0.80342752E+01</pdfrwt>
<pdfrwt beam="2">  1       21 0.57606666E-03 0.80342752E+01</pdfrwt>
<totfact> 0.14456275E+09</totfact>
</mgrwt>
</event>
<event>
 4    1  0.4144004E+006  0.6218297E+01  0.7546771E-02  0.2387849E+00
         21   -1    0    0  503  502  0.00000000000E+00  0.00000000000E+00  0.33622579610E+03  0.33622579610E+03  0.00000000000E+00 0.  1.
         21   -1    0    0  501  503 -0.00000000000E+00 -0.00000000000E+00 -0.19164176450E+00  0.19164176450E+00  0.00000000000E+00 0.  1.
          5    1    1    2  501    0 -0.16225445662E+00  0.40682785998E+01  0.61645492173E+02  0.61958324078E+02  0.47000000000E+01 0.  1.
         -5    1    1    2    0  502  0.16225445662E+00 -0.40682785998E+01  0.27438866216E+03  0.27445911378E+03  0.47000000000E+01 0.  1.
<mgrwt>
<rscale>  2 0.62182970E+01</rscale>
<asrwt>0</asrwt>
<pdfrwt beam="1">  1       21 0.51726573E-01 0.62182970E+01</pdfrwt>
<pdfrwt beam="2">  1       21 0.29483617E-04 0.62182970E+01</pdfrwt>
<totfact> 0.90713846E+08</totfact>
</mgrwt>
</event>
<event>
 4    1  0.4144004E+006  0.7850364E+01  0.7546771E-02  0.2222943E+00
         21   -1    0    0  503  502  0.00000000000E+00  0.00000000000E+00  0.63359524589E+02  0.63359524589E+02  0.00000000000E+00 0. -1.
         21   -1    0    0  501  503 -0.00000000000E+00 -0.00000000000E+00 -0.97270052817E+00  0.97270052817E+00  0.00000000000E+00 0. -1.
          5    1    1    2  501    0  0.32373129773E+01  0.53905497867E+01  0.31358363620E+02  0.32326076026E+02  0.47000000000E+01 0. -1.
         -5    1    1    2    0  502 -0.32373129773E+01 -0.53905497867E+01  0.31028460440E+02  0.32006149091E+02  0.47000000000E+01 0. -1.
<mgrwt>
<rscale>  2 0.78503645E+01</rscale>
<asrwt>0</asrwt>
<pdfrwt beam="1">  1       21 0.97476159E-02 0.78503645E+01</pdfrwt>
<pdfrwt beam="2">  1       21 0.14964628E-03 0.78503645E+01</pdfrwt>
<totfact> 0.19136699E+09</totfact>
</mgrwt>
</event>
<event>
 4    1  0.4144004E+006  0.1132562E+02  0.7546771E-02  0.2006567E+00
         21   -1    0    0  503  502  0.00000000000E+00  0.00000000000E+00  0.51376529186E+02  0.51376529186E+02  0.00000000000E+00 0. -1.
         21   -1    0    0  501  503 -0.00000000000E+00 -0.00000000000E+00 -0.20683205395E+02  0.20683205395E+02  0.00000000000E+00 0.  1.
          5    1    1    2  501    0  0.99253788072E+01 -0.27688371713E+01 -0.18438723228E+02  0.21639226373E+02  0.47000000000E+01 0.  1.
         -5    1    1    2    0  502 -0.99253788072E+01  0.27688371713E+01  0.49132047018E+02  0.50420508208E+02  0.47000000000E+01 0. -1.
<mgrwt>
<rscale>  2 0.11325617E+02</rscale>
<asrwt>0</asrwt>
<pdfrwt beam="1">  1       21 0.79040814E-02 0.11325617E+02</pdfrwt>
<pdfrwt beam="2">  1       21 0.31820316E-02 0.11325617E+02</pdfrwt>
<totfact> 0.40052648E+07</totfact>
</mgrwt>
</event>
<event>
 4    1  0.4144004E+006  0.9272851E+01  0.7546771E-02  0.2118897E+00
         21   -1    0    0  501  502  0.00000000000E+00  0.00000000000E+00  0.36522347625E+02  0.36522347625E+02  0.00000000000E+00 0.  1.
         21   -1    0    0  502  503 -0.00000000000E+00 -0.00000000000E+00 -0.23565230360E+01  0.23565230360E+01  0.00000000000E+00 0. -1.
          5    1    1    2  501    0 -0.29808317054E+01  0.74168996022E+01  0.16490255897E+02  0.18918623019E+02  0.47000000000E+01 0.  1.
         -5    1    1    2    0  503  0.29808317054E+01 -0.74168996022E+01  0.17675568691E+02  0.19960247642E+02  0.47000000000E+01 0. -1.
<mgrwt>
<rscale>  2 0.92728506E+01</rscale>
<asrwt>0</asrwt>
<pdfrwt beam="1">  1       21 0.56188223E-02 0.92728506E+01</pdfrwt>
<pdfrwt beam="2">  1       21 0.36254203E-03 0.92728506E+01</pdfrwt>
<totfact> 0.14601806E+09</totfact>
</mgrwt>
</event>
<event>
 4    1  0.4144004E+006  0.5214612E+01  0.7546771E-02  0.2530434E+00
         21   -1    0    0  503  502  0.00000000000E+00  0.00000000000E+00  0.27902666741E+00  0.27902666741E+00  0.00000000000E+00 0. -1.
         21   -1    0    0  501  503 -0.00000000000E+00 -0.00000000000E+00 -0.10298231951E+03  0.10298231951E+03  0.00000000000E+00 0.  1.
          5    1    1    2  501    0  0.12367190252E+01  0.18901602996E+01 -0.63314505210E+02  0.63528881227E+02  0.47000000000E+01 0.  1.
         -5    1    1    2    0  502 -0.12367190252E+01 -0.18901602996E+01 -0.39388787628E+02  0.39732464946E+02  0.47000000000E+01 0. -1.
<mgrwt>
<rscale>  2 0.52146122E+01</rscale>
<asrwt>0</asrwt>
<pdfrwt beam="1">  1       21 0.42927189E-04 0.52146122E+01</pdfrwt>
<pdfrwt beam="2">  1       21 0.15843430E-01 0.52146122E+01</pdfrwt>
<totfact> 0.34543562E+09</totfact>
</mgrwt>
</event>
<event>
 4    1  0.4144004E+006  0.6032106E+01  0.7546771E-02  0.2411264E+00
         21   -1    0    0  503  502  0.00000000000E+00  0.00000000000E+00  0.97369166343E+02  0.97369166343E+02  0.00000000000E+00 0.  1.
         21   -1    0    0  501  503 -0.00000000000E+00 -0.00000000000E+00 -0.80964304830E+00  0.80964304830E+00  0.00000000000E+00 0.  1.
          5    1    1    2  501    0  0.36214863301E+01  0.10868027324E+01  0.12258519701E+02  0.13662269529E+02  0.47000000000E+01 0.  1.
         -5    1    1    2    0  502 -0.36214863301E+01 -0.10868027324E+01  0.84301003594E+02  0.84516539862E+02  0.47000000000E+01 0.  1.
<mgrwt>
<rscale>  2 0.60321061E+01</rscale>
<asrwt>0</asrwt>
<pdfrwt beam="1">  1       21 0.14979862E-01 0.60321061E+01</pdfrwt>
<pdfrwt beam="2">  1       21 0.12456055E-03 0.60321061E+01</pdfrwt>
<totfact> 0.10306209E+09</totfact>
</mgrwt>
</event>
<event>
 4    1  0.4144004E+006  0.8883352E+01  0.7546771E-02  0.2144728E+00
         21   -1    0    0  503  502  0.00000000000E+00  0.00000000000E+00  0.39014388189E+02  0.39014388189E+02  0.00000000000E+00 0.  1.
         21   -1    0    0  501  503 -0.00000000000E+00 -0.00000000000E+00 -0.24951814730E+01  0.24951814730E+01  0.00000000000E+00 0. -1.
          5    1    1    2  501    0 -0.55179342850E+01 -0.51357910002E+01  0.92279987058E+01  0.12808977636E+02  0.47000000000E+01 0. -1.
         -5    1    1    2    0  502  0.55179342850E+01  0.51357910002E+01  0.27291208010E+02  0.28700592026E+02  0.47000000000E+01 0.  1.
<mgrwt>
<rscale>  2 0.88833523E+01</rscale>
<asrwt>0</asrwt>
<pdfrwt beam="1">  1       21 0.60022131E-02 0.88833523E+01</pdfrwt>
<pdfrwt beam="2">  1       21 0.38387410E-03 0.88833523E+01</pdfrwt>
<totfact> 0.11848490E+09</totfact>
</mgrwt>
</event>
<event>
 4    1  0.4144004E+006  0.1617724E+02  0.7546771E-02  0.1834135E+00
         21   -1    0    0  503  502  0.00000000000E+00  0.00000000000E+00  0.55727092794E+01  0.55727092794E+01  0.00000000000E+00 0.  1.
         21   -1    0    0  501  503 -0.00000000000E+00 -0.00000000000E+00 -0.64507948253E+02  0.64507948253E+02  0.00000000000E+00 0.  1.
          5    1    1    2  501    0 -0.11587243545E+02 -0.10263955441E+02 -0.47742548857E+02  0.50408867927E+02  0.47000000000E+01 0.  1.
         -5    1    1    2    0  502  0.11587243545E+02  0.10263955441E+02 -0.11192690116E+02  0.19671789606E+02  0.47000000000E+01 0.  1.
<mgrwt>
<rscale>  2 0.16177237E+02</rscale>
<asrwt>0</asrwt>
<pdfrwt beam="1">  1       21 0.85733987E-03 0.16177237E+02</pdfrwt>
<pdfrwt beam="2">  1       21 0.99243000E-02 0.16177237E+02</pdfrwt>
<totfact> 0.22556594E+08</totfact>
</mgrwt>
</event>
<event>
 4    1  0.4144004E+006  0.5460002E+01  0.7546771E-02  0.2491495E+00
         21   -1    0    0  501  502  0.00000000000E+00  0.00000000000E+00  0.40788777582E+01  0.40788777582E+01  0.00000000000E+00 0. -1.
         21   -1    0    0  502  503 -0.00000000000E+00 -0.00000000000E+00 -0.91308629949E+01  0.91308629949E+01  0.00000000000E+00 0.  1.
          5    1    1    2  501    0 -0.80852319973E-01 -0.27776037510E+01 -0.54764712746E+01  0.77332630446E+01  0.47000000000E+01 0.  1.
         -5    1    1    2    0  503  0.80852319973E-01  0.27776037510E+01  0.42448603782E+00  0.54764777085E+01  0.47000000000E+01 0. -1.
<mgrwt>
<rscale>  2 0.54600018E+01</rscale>
<asrwt>0</asrwt>
<pdfrwt beam="1">  1       21 0.62751966E-03 0.54600018E+01</pdfrwt>
<pdfrwt beam="2">  1       21 0.14047481E-02 0.54600018E+01</pdfrwt>
<totfact> 0.34379079E+09</totfact>
</mgrwt>
</event>
<event>
 4    1  0.4144004E+006  0.1180324E+02  0.7546771E-02  0.1984885E+00
         21   -1    0    0  503  502  0.00000000000E+00  0.00000000000E+00  0.22913736084E+02  0.22913736084E+02  0.00000000000E+00 0.  1.
         21   -1    0    0  501  503 -0.00000000000E+00 -0.00000000000E+00 -0.63506597858E+01  0.63506597858E+01  0.00000000000E+00 0. -1.
          5    1    1    2  501    0 -0.28908341519E+01 -0.10434058205E+02  0.52610454634E+01  0.12922658089E+02  0.47000000000E+01 0. -1.
         -5    1    1    2    0  502  0.28908341519E+01  0.10434058205E+02  0.11302030835E+02  0.16341737781E+02  0.47000000000E+01 0.  1.
<mgrwt>
<rscale>  2 0.11803241E+02</rscale>
<asrwt>0</asrwt>
<pdfrwt beam="1">  1       21 0.35251901E-02 0.11803241E+02</pdfrwt>
<pdfrwt beam="2">  1       21 0.97702459E-03 0.11803241E+02</pdfrwt>
<totfact> 0.82247234E+08</totfact>
</mgrwt>
</event>
<event>
 4    1  0.4144004E+006  0.5659387E+01  0.7546771E-02  0.2461982E+00
         21   -1    0    0  503  502  0.00000000000E+00  0.00000000000E+00  0.88487603088E+01  0.88487603088E+01  0.00000000000E+00 0.  1.
         21   -1    0    0  501  503 -0.00000000000E+00 -0.00000000000E+00 -0.15046692969E+02  0.15046692969E+02  0.00000000000E+00 0. -1.
          5    1    1    2  501    0  0.91394288725E+00 -0.30171787385E+01 -0.13510945771E+02  0.14648355361E+02  0.47000000000E+01 0. -1.
         -5    1    1    2    0  502 -0.91394288725E+00  0.30171787385E+01  0.73130131106E+01  0.92470979176E+01  0.47000000000E+01 0.  1.
<mgrwt>
<rscale>  2 0.56593868E+01</rscale>
<asrwt>0</asrwt>
<pdfrwt beam="1">  1       21 0.13613477E-02 0.56593868E+01</pdfrwt>
<pdfrwt beam="2">  1       21 0.23148758E-02 0.56593868E+01</pdfrwt>
<totfact> 0.58791394E+08</totfact>
</mgrwt>
</event>
<event>
 4    1  0.4144004E+006  0.6448506E+01  0.7546771E-02  0.2360466E+00
         21   -1    0    0  501  502  0.00000000000E+00  0.00000000000E+00  0.87810637364E-01  0.87810637364E-01  0.00000000000E+00 0. -1.
         21   -1    0    0  502  503 -0.00000000000E+00 -0.00000000000E+00 -0.52639392379E+03  0.52639392379E+03  0.00000000000E+00 0.  1.
          5    1    1    2  501    0 -0.35422104417E+01 -0.26355228297E+01 -0.17975198505E+03  0.17986761622E+03  0.47000000000E+01 0. -1.
         -5    1    1    2    0  503  0.35422104417E+01  0.26355228297E+01 -0.34655412810E+03  0.34661411821E+03  0.47000000000E+01 0. -1.
<mgrwt>
<rscale>  2 0.64485064E+01</rscale>
<asrwt>0</asrwt>
<pdfrwt beam="1">  1       21 0.13509118E-04 0.64485064E+01</pdfrwt>
<pdfrwt beam="2">  1       21 0.80984943E-01 0.64485064E+01</pdfrwt>
<totfact> 0.11332288E+09</totfact>
</mgrwt>
</event>
<event>
 4    1  0.4144004E+006  0.6368729E+01  0.7546771E-02  0.2369769E+00
         21   -1    0    0  503  502  0.00000000000E+00  0.00000000000E+00  0.40526596159E+02  0.40526596159E+02  0.00000000000E+00 0.  1.
         21   -1    0    0  501  503 -0.00000000000E+00 -0.00000000000E+00 -0.30958988366E+01  0.30958988366E+01  0.00000000000E+00 0. -1.
          5    1    1    2  501    0 -0.36504951324E+00 -0.42822243497E+01  0.77276155243E+00  0.64154397313E+01  0.47000000000E+01 0. -1.
         -5    1    1    2    0  502  0.36504951324E+00  0.42822243497E+01  0.36657935770E+02  0.37207055264E+02  0.47000000000E+01 0.  1.
<mgrwt>
<rscale>  2 0.63687288E+01</rscale>
<asrwt>0</asrwt>
<pdfrwt beam="1">  1       21 0.62348606E-02 0.63687288E+01</pdfrwt>
<pdfrwt beam="2">  1       21 0.47629216E-03 0.63687288E+01</pdfrwt>
<totfact> 0.65844565E+08</totfact>
</mgrwt>
</event>
<event>
 4    1  0.4144004E+006  0.6509359E+01  0.7546771E-02  0.2353497E+00
         21   -1    0    0  503  502  0.00000000000E+00  0.00000000000E+00  0.48567580754E+02  0.48567580754E+02  0.00000000000E+00 0.  1.
         21   -1    0    0  501  503 -0.00000000000E+00 -0.00000000000E+00 -0.13057245088E+01  0.13057245088E+01  0.00000000000E+00 0.  1.
          5    1    1    2  501    0  0.31132605269E+01 -0.32541311815E+01  0.92659647334E+01  0.11323862561E+02  0.47000000000E+01 0.  1.
         -5    1    1    2    0  502 -0.31132605269E+01  0.32541311815E+01  0.37995891512E+02  0.38549442702E+02  0.47000000000E+01 0.  1.
<mgrwt>
<rscale>  2 0.65093595E+01</rscale>
<asrwt>0</asrwt>
<pdfrwt beam="1">  1       21 0.74719341E-02 0.65093595E+01</pdfrwt>
<pdfrwt beam="2">  1       21 0.20088073E-03 0.65093595E+01</pdfrwt>
<totfact> 0.16767839E+09</totfact>
</mgrwt>
</event>
<event>
 4    1  0.4144004E+006  0.6537751E+01  0.7546771E-02  0.2350282E+00
         21   -1    0    0  501  502  0.00000000000E+00  0.00000000000E+00  0.72862409042E-01  0.72862409042E-01  0.00000000000E+00 0. -1.
         21   -1    0    0  502  503 -0.00000000000E+00 -0.00000000000E+00 -0.60026216075E+03  0.60026216075E+03  0.00000000000E+00 0.  1.
          5    1    1    2  501    0  0.91871704655E+00  0.44506350226E+01 -0.25483492063E+03  0.25491876935E+03  0.47000000000E+01 0. -1.
         -5    1    1    2    0  503 -0.91871704655E+00 -0.44506350226E+01 -0.34535437771E+03  0.34541625381E+03  0.47000000000E+01 0.  1.
<mgrwt>
<rscale>  2 0.65377514E+01</rscale>
<asrwt>0</asrwt>
<pdfrwt beam="1">  1       21 0.11210175E-04 0.65377514E+01</pdfrwt>
<pdfrwt beam="2">  1       21 0.92343301E-01 0.65377514E+01</pdfrwt>
<totfact> 0.11308917E+09</totfact>
</mgrwt>
</event>
<event>
 4    1  0.4144004E+006  0.4834549E+01  0.7546771E-02  0.2597369E+00
         21   -1    0    0  501  502  0.00000000000E+00  0.00000000000E+00  0.22446265506E+01  0.22446265506E+01  0.00000000000E+00 0. -1.
         21   -1    0    0  502  503 -0.00000000000E+00 -0.00000000000E+00 -0.22145724590E+02  0.22145724590E+02  0.00000000000E+00 0. -1.
          5    1    1    2  501    0 -0.22608290371E+00  0.11098433623E+01 -0.10739603107E+01  0.49523990668E+01  0.47000000000E+01 0. -1.
         -5    1    1    2    0  503  0.22608290371E+00 -0.11098433623E+01 -0.18827137729E+02  0.19437952074E+02  0.47000000000E+01 0. -1.
<mgrwt>
<rscale>  2 0.48345492E+01</rscale>
<asrwt>0</asrwt>
<pdfrwt beam="1">  1       21 0.34532717E-03 0.48345492E+01</pdfrwt>
<pdfrwt beam="2">  1       21 0.34070345E-02 0.48345492E+01</pdfrwt>
<totfact> 0.19570538E+09</totfact>
</mgrwt>
</event>
<event>
 4    1  0.4144004E+006  0.4990911E+01  0.7546771E-02  0.2568769E+00
         21   -1    0    0  503  502  0.00000000000E+00  0.00000000000E+00  0.92280006503E+02  0.92280006503E+02  0.00000000000E+00 0. -1.
         21   -1    0    0  501  503 -0.00000000000E+00 -0.00000000000E+00 -0.45738775491E+00  0.45738775491E+00  0.00000000000E+00 0. -1.
          5    1    1    2  501    0  0.15575314710E+01  0.62712989438E+00  0.16226541729E+02  0.16976744467E+02  0.47000000000E+01 0. -1.
         -5    1    1    2    0  502 -0.15575314710E+01 -0.62712989438E+00  0.75596077019E+02  0.75760649792E+02  0.47000000000E+01 0. -1.
<mgrwt>
<rscale>  2 0.49909114E+01</rscale>
<asrwt>0</asrwt>
<pdfrwt beam="1">  1       21 0.14196909E-01 0.49909114E+01</pdfrwt>
<pdfrwt beam="2">  1       21 0.70367420E-04 0.49909114E+01</pdfrwt>
<totfact> 0.20403501E+09</totfact>
</mgrwt>
</event>
<event>
 4    1  0.4144004E+006  0.5523098E+01  0.7546771E-02  0.2481960E+00
         21   -1    0    0  501  502  0.00000000000E+00  0.00000000000E+00  0.10443186051E+00  0.10443186051E+00  0.00000000000E+00 0. -1.
         21   -1    0    0  502  503 -0.00000000000E+00 -0.00000000000E+00 -0.29256620322E+03  0.29256620322E+03  0.00000000000E+00 0. -1.
          5    1    1    2  501    0  0.23849751589E+01 -0.16512144173E+01 -0.15206824293E+03  0.15216850897E+03  0.47000000000E+01 0. -1.
         -5    1    1    2    0  503 -0.23849751589E+01  0.16512144173E+01 -0.14039352843E+03  0.14050212611E+03  0.47000000000E+01 0. -1.
<mgrwt>
<rscale>  2 0.55230984E+01</rscale>
<asrwt>0</asrwt>
<pdfrwt beam="1">  1       21 0.16066447E-04 0.55230984E+01</pdfrwt>
<pdfrwt beam="2">  1       21 0.45010167E-01 0.55230984E+01</pdfrwt>
<totfact> 0.23866284E+09</totfact>
</mgrwt>
</event>
<event>
 4    1  0.4144004E+006  0.5519676E+01  0.7546771E-02  0.2482473E+00
         21   -1    0    0  501  502  0.00000000000E+00  0.00000000000E+00  0.97032772982E+00  0.97032772982E+00  0.00000000000E+00 0. -1.
         21   -1    0    0  502  503 -0.00000000000E+00 -0.00000000000E+00 -0.14824034369E+03  0.14824034369E+03  0.00000000000E+00 0. -1.
          5    1    1    2  501    0  0.26297085889E+01 -0.12089049710E+01 -0.74002559069E+01  0.92320423514E+01  0.47000000000E+01 0. -1.
         -5    1    1    2    0  503 -0.26297085889E+01  0.12089049710E+01 -0.13986976005E+03  0.13997862907E+03  0.47000000000E+01 0. -1.
<mgrwt>
<rscale>  2 0.55196756E+01</rscale>
<asrwt>0</asrwt>
<pdfrwt beam="1">  1       21 0.14928112E-03 0.55196756E+01</pdfrwt>
<pdfrwt beam="2">  1       21 0.22806217E-01 0.55196756E+01</pdfrwt>
<totfact> 0.38510510E+08</totfact>
</mgrwt>
</event>
<event>
 4    1  0.4144004E+006  0.6660027E+01  0.7546771E-02  0.2336696E+00
         21   -1    0    0  503  502  0.00000000000E+00  0.00000000000E+00  0.33105302760E+03  0.33105302760E+03  0.00000000000E+00 0.  1.
         21   -1    0    0  501  503 -0.00000000000E+00 -0.00000000000E+00 -0.51428559165E+00  0.51428559165E+00  0.00000000000E+00 0. -1.
          5    1    1    2  501    0  0.29388972513E+01  0.36917270298E+01  0.22707516207E+02  0.23664049903E+02  0.47000000000E+01 0. -1.
         -5    1    1    2    0  502 -0.29388972513E+01 -0.36917270298E+01  0.30783122580E+03  0.30790326329E+03  0.47000000000E+01 0.  1.
<mgrwt>
<rscale>  2 0.66600274E+01</rscale>
<asrwt>0</asrwt>
<pdfrwt beam="1">  1       21 0.50931064E-01 0.66600274E+01</pdfrwt>
<pdfrwt beam="2">  1       21 0.79121125E-04 0.66600274E+01</pdfrwt>
<totfact> 0.25967502E+08</totfact>
</mgrwt>
</event>
<event>
 4    1  0.4144004E+006  0.4724760E+01  0.7546771E-02  0.2618427E+00
         21   -1    0    0  503  502  0.00000000000E+00  0.00000000000E+00  0.78818097142E+01  0.78818097142E+01  0.00000000000E+00 0.  1.
         21   -1    0    0  501  503 -0.00000000000E+00 -0.00000000000E+00 -0.99602447654E+01  0.99602447654E+01  0.00000000000E+00 0.  1.
          5    1    1    2  501    0  0.19434518406E+00  0.44225623332E+00 -0.85860227240E+01  0.98001605519E+01  0.47000000000E+01 0.  1.
         -5    1    1    2    0  502 -0.19434518406E+00 -0.44225623332E+00  0.65075876728E+01  0.80418939278E+01  0.47000000000E+01 0.  1.
<mgrwt>
<rscale>  2 0.47247604E+01</rscale>
<asrwt>0</asrwt>
<pdfrwt beam="1">  1       21 0.12125861E-02 0.47247604E+01</pdfrwt>
<pdfrwt beam="2">  1       21 0.15323453E-02 0.47247604E+01</pdfrwt>
<totfact> 0.10540796E+09</totfact>
</mgrwt>
</event>
<event>
 4    1  0.4144004E+006  0.1816536E+02  0.7546771E-02  0.1784483E+00
         21   -1    0    0  501  502  0.00000000000E+00  0.00000000000E+00  0.31898491816E+01  0.31898491816E+01  0.00000000000E+00 0. -1.
         21   -1    0    0  502  503 -0.00000000000E+00 -0.00000000000E+00 -0.15117334239E+03  0.15117334239E+03  0.00000000000E+00 0.  1.
          5    1    1    2  501    0  0.14452034548E+02  0.99513271772E+01 -0.30625145660E+02  0.35607299278E+02  0.47000000000E+01 0. -1.
         -5    1    1    2    0  503 -0.14452034548E+02 -0.99513271772E+01 -0.11735834755E+03  0.11875589229E+03  0.47000000000E+01 0.  1.
<mgrwt>
<rscale>  2 0.18165358E+02</rscale>
<asrwt>0</asrwt>
<pdfrwt beam="1">  1       21 0.49074609E-03 0.18165358E+02</pdfrwt>
<pdfrwt beam="2">  1       21 0.23257434E-01 0.18165358E+02</pdfrwt>
<totfact> 0.12693735E+08</totfact>
</mgrwt>
</event>
<event>
 4    1  0.4144004E+006  0.5989839E+01  0.7546771E-02  0.2416748E+00
         21   -1    0    0  501  502  0.00000000000E+00  0.00000000000E+00  0.43320957844E+01  0.43320957844E+01  0.00000000000E+00 0. -1.
         21   -1    0    0  502  503 -0.00000000000E+00 -0.00000000000E+00 -0.85275048225E+01  0.85275048225E+01  0.00000000000E+00 0.  1.
          5    1    1    2  501    0 -0.28360739655E+01 -0.23968431819E+01 -0.10065998149E+01  0.60738304194E+01  0.47000000000E+01 0.  1.
         -5    1    1    2    0  503  0.28360739655E+01  0.23968431819E+01 -0.31888092231E+01  0.67857701875E+01  0.47000000000E+01 0.  1.
<mgrwt>
<rscale>  2 0.59898391E+01</rscale>
<asrwt>0</asrwt>
<pdfrwt beam="1">  1       21 0.66647627E-03 0.59898391E+01</pdfrwt>
<pdfrwt beam="2">  1       21 0.13119238E-02 0.59898391E+01</pdfrwt>
<totfact> 0.37938684E+09</totfact>
</mgrwt>
</event>
<event>
 4    1  0.4144004E+006  0.5869113E+01  0.7546771E-02  0.2432776E+00
         21   -1    0    0  503  502  0.00000000000E+00  0.00000000000E+00  0.23406019434E+02  0.23406019434E+02  0.00000000000E+00 0. -1.
         21   -1    0    0  501  503 -0.00000000000E+00 -0.00000000000E+00 -0.27062083973E+01  0.27062083973E+01  0.00000000000E+00 0. -1.
          5    1    1    2  501    0 -0.23188404246E+01  0.26418684671E+01  0.15316748465E+01  0.60656836175E+01  0.47000000000E+01 0. -1.
         -5    1    1    2    0  502  0.23188404246E+01 -0.26418684671E+01  0.19168136190E+02  0.20046544214E+02  0.47000000000E+01 0. -1.
<mgrwt>
<rscale>  2 0.58691132E+01</rscale>
<asrwt>0</asrwt>
<pdfrwt beam="1">  1       21 0.36009259E-02 0.58691132E+01</pdfrwt>
<pdfrwt beam="2">  1       21 0.41633977E-03 0.58691132E+01</pdfrwt>
<totfact> 0.16755959E+09</totfact>
</mgrwt>
</event>
<event>
 4    1  0.4144004E+006  0.1076281E+02  0.7546771E-02  0.2034008E+00
         21   -1    0    0  501  502  0.00000000000E+00  0.00000000000E+00  0.16248810462E+04  0.16248810462E+04  0.00000000000E+00 0.  1.
         21   -1    0    0  502  503 -0.00000000000E+00 -0.00000000000E+00 -0.26933452773E+00  0.26933452773E+00  0.00000000000E+00 0. -1.
          5    1    1    2  501    0 -0.48995045342E+01 -0.83512213351E+01  0.15090908378E+04  0.15091292174E+04  0.47000000000E+01 0.  1.
         -5    1    1    2    0  503  0.48995045342E+01  0.83512213351E+01  0.11552087387E+03  0.11602116334E+03  0.47000000000E+01 0. -1.
<mgrwt>
<rscale>  2 0.10762808E+02</rscale>
<asrwt>0</asrwt>
<pdfrwt beam="1">  1       21 0.24997385E+00 0.10762808E+02</pdfrwt>
<pdfrwt beam="2">  1       21 0.41437382E-04 0.10762808E+02</pdfrwt>
<totfact> 0.26106955E+07</totfact>
</mgrwt>
</event>
<event>
 4    1  0.4144004E+006  0.5220508E+01  0.7546771E-02  0.2529462E+00
         21   -1    0    0  501  502  0.00000000000E+00  0.00000000000E+00  0.29337372389E+04  0.29337372389E+04  0.00000000000E+00 0.  1.
         21   -1    0    0  502  503 -0.00000000000E+00 -0.00000000000E+00 -0.94474345958E-02  0.94474345958E-02  0.00000000000E+00 0.  1.
          5    1    1    2  501    0  0.20235068123E+01 -0.10339859661E+01  0.12773590525E+04  0.12773697205E+04  0.47000000000E+01 0.  1.
         -5    1    1    2    0  503 -0.20235068123E+01  0.10339859661E+01  0.16563687389E+04  0.16563769658E+04  0.47000000000E+01 0.  1.
<mgrwt>
<rscale>  2 0.52205083E+01</rscale>
<asrwt>0</asrwt>
<pdfrwt beam="1">  1       21 0.45061569E+00 0.52205083E+01</pdfrwt>
<pdfrwt beam="2">  1       21 0.14558012E-05 0.52205083E+01</pdfrwt>
<totfact> 0.28294455E+08</totfact>
</mgrwt>
</event>
<event>
 4    1  0.4144004E+006  0.4731137E+01  0.7546771E-02  0.2617180E+00
         21   -1    0    0  503  502  0.00000000000E+00  0.00000000000E+00  0.29426013674E+01  0.29426013674E+01  0.00000000000E+00 0. -1.
         21   -1    0    0  501  503 -0.00000000000E+00 -0.00000000000E+00 -0.83166950649E+01  0.83166950649E+01  0.00000000000E+00 0. -1.
          5    1    1    2  501    0 -0.46984307738E+00  0.27000820528E+00 -0.43318568820E+01  0.64147206482E+01  0.47000000000E+01 0. -1.
         -5    1    1    2    0  502  0.46984307738E+00 -0.27000820528E+00 -0.10422368155E+01  0.48445757841E+01  0.47000000000E+01 0. -1.
<mgrwt>
<rscale>  2 0.47311370E+01</rscale>
<asrwt>0</asrwt>
<pdfrwt beam="1">  1       21 0.45270790E-03 0.47311370E+01</pdfrwt>
<pdfrwt beam="2">  1       21 0.12794916E-02 0.47311370E+01</pdfrwt>
<totfact> 0.52920699E+09</totfact>
</mgrwt>
</event>
<event>
 4    1  0.4144004E+006  0.8589187E+01  0.7546771E-02  0.2165462E+00
         21   -1    0    0  501  502  0.00000000000E+00  0.00000000000E+00  0.38786748478E+01  0.38786748478E+01  0.00000000000E+00 0. -1.
         21   -1    0    0  502  503 -0.00000000000E+00 -0.00000000000E+00 -0.19590048063E+02  0.19590048063E+02  0.00000000000E+00 0. -1.
          5    1    1    2  501    0 -0.26698763249E+01  0.66750196578E+01 -0.58547776085E+01  0.10394832748E+02  0.47000000000E+01 0. -1.
         -5    1    1    2    0  503  0.26698763249E+01 -0.66750196578E+01 -0.98565956069E+01  0.13073890162E+02  0.47000000000E+01 0. -1.
<mgrwt>
<rscale>  2 0.85891866E+01</rscale>
<asrwt>0</asrwt>
<pdfrwt beam="1">  1       21 0.59671922E-03 0.85891866E+01</pdfrwt>
<pdfrwt beam="2">  1       21 0.30138535E-02 0.85891866E+01</pdfrwt>
<totfact> 0.17553449E+09</totfact>
</mgrwt>
</event>
<event>
 4    1  0.4144004E+006  0.6326013E+01  0.7546771E-02  0.2374830E+00
         21   -1    0    0  503  502  0.00000000000E+00  0.00000000000E+00  0.11819990787E+03  0.11819990787E+03  0.00000000000E+00 0.  1.
         21   -1    0    0  501  503 -0.00000000000E+00 -0.00000000000E+00 -0.14595368320E+01  0.14595368320E+01  0.00000000000E+00 0.  1.
          5    1    1    2  501    0 -0.66095137816E+00 -0.41822937549E+01  0.59369488972E+01  0.86755864346E+01  0.47000000000E+01 0.  1.
         -5    1    1    2    0  502  0.66095137816E+00  0.41822937549E+01  0.11080342214E+03  0.11098385827E+03  0.47000000000E+01 0.  1.
<mgrwt>
<rscale>  2 0.63260128E+01</rscale>
<asrwt>0</asrwt>
<pdfrwt beam="1">  1       21 0.18184594E-01 0.63260128E+01</pdfrwt>
<pdfrwt beam="2">  1       21 0.22454422E-03 0.63260128E+01</pdfrwt>
<totfact> 0.35204559E+08</totfact>
</mgrwt>
</event>
<event>
 4    1  0.4144004E+006  0.5136474E+01  0.7546771E-02  0.2543498E+00
         21   -1    0    0  503  502  0.00000000000E+00  0.00000000000E+00  0.25817294719E+02  0.25817294719E+02  0.00000000000E+00 0.  1.
         21   -1    0    0  501  503 -0.00000000000E+00 -0.00000000000E+00 -0.34070869897E+02  0.34070869897E+02  0.00000000000E+00 0. -1.
          5    1    1    2  501    0 -0.30430484224E+00 -0.20495767516E+01 -0.33618377707E+02  0.34008509023E+02  0.47000000000E+01 0. -1.
         -5    1    1    2    0  502  0.30430484224E+00  0.20495767516E+01  0.25364802529E+02  0.25879655593E+02  0.47000000000E+01 0.  1.
<mgrwt>
<rscale>  2 0.51364741E+01</rscale>
<asrwt>0</asrwt>
<pdfrwt beam="1">  1       21 0.39718915E-02 0.51364741E+01</pdfrwt>
<pdfrwt beam="2">  1       21 0.52416723E-02 0.51364741E+01</pdfrwt>
<totfact> 0.35986380E+07</totfact>
</mgrwt>
</event>
<event>
 4    1  0.4144004E+006  0.5394536E+01  0.7546771E-02  0.2501588E+00
         21   -1    0    0  501  502  0.00000000000E+00  0.00000000000E+00  0.15349452754E+00  0.15349452754E+00  0.00000000000E+00 0. -1.
         21   -1    0    0  502  503 -0.00000000000E+00 -0.00000000000E+00 -0.39876519315E+03  0.39876519315E+03  0.00000000000E+00 0.  1.
          5    1    1    2  501    0  0.16113535278E+01 -0.21010860667E+01 -0.54844760106E+02  0.55109425091E+02  0.47000000000E+01 0. -1.
         -5    1    1    2    0  503 -0.16113535278E+01  0.21010860667E+01 -0.34376693852E+03  0.34380926259E+03  0.47000000000E+01 0.  1.
<mgrwt>
<rscale>  2 0.53945364E+01</rscale>
<asrwt>0</asrwt>
<pdfrwt beam="1">  1       21 0.23614698E-04 0.53945364E+01</pdfrwt>
<pdfrwt beam="2">  1       21 0.61348089E-01 0.53945364E+01</pdfrwt>
<totfact> 0.80370576E+08</totfact>
</mgrwt>
</event>
<event>
 4    1  0.4144004E+006  0.9474758E+01  0.7546771E-02  0.2106173E+00
         21   -1    0    0  503  502  0.00000000000E+00  0.00000000000E+00  0.27733602165E+01  0.27733602165E+01  0.00000000000E+00 0. -1.
         21   -1    0    0  501  503 -0.00000000000E+00 -0.00000000000E+00 -0.49213400645E+02  0.49213400645E+02  0.00000000000E+00 0. -1.
          5    1    1    2  501    0  0.54656667878E+01  0.61487827762E+01 -0.38427182365E+02  0.39578016469E+02  0.47000000000E+01 0. -1.
         -5    1    1    2    0  502 -0.54656667878E+01 -0.61487827762E+01 -0.80128580632E+01  0.12408744393E+02  0.47000000000E+01 0. -1.
<mgrwt>
<rscale>  2 0.94747582E+01</rscale>
<asrwt>0</asrwt>
<pdfrwt beam="1">  1       21 0.42667081E-03 0.94747582E+01</pdfrwt>
<pdfrwt beam="2">  1       21 0.75712923E-02 0.94747582E+01</pdfrwt>
<totfact> 0.74124522E+08</totfact>
</mgrwt>
</event>
<event>
 4    1  0.4144004E+006  0.5881280E+01  0.7546771E-02  0.2431136E+00
         21   -1    0    0  503  502  0.00000000000E+00  0.00000000000E+00  0.46195929617E+02  0.46195929617E+02  0.00000000000E+00 0. -1.
         21   -1    0    0  501  503 -0.00000000000E+00 -0.00000000000E+00 -0.32359929515E+01  0.32359929515E+01  0.00000000000E+00 0.  1.
          5    1    1    2  501    0  0.31745394103E+01  0.15561967999E+01 -0.18870692782E+00  0.58843061827E+01  0.47000000000E+01 0.  1.
         -5    1    1    2    0  502 -0.31745394103E+01 -0.15561967999E+01  0.43148643593E+02  0.43547616386E+02  0.47000000000E+01 0. -1.
<mgrwt>
<rscale>  2 0.58812795E+01</rscale>
<asrwt>0</asrwt>
<pdfrwt beam="1">  1       21 0.71070656E-02 0.58812795E+01</pdfrwt>
<pdfrwt beam="2">  1       21 0.49784510E-03 0.58812795E+01</pdfrwt>
<totfact> 0.47859599E+08</totfact>
</mgrwt>
</event>
<event>
 4    1  0.4144004E+006  0.5831365E+01  0.7546771E-02  0.2437902E+00
         21   -1    0    0  501  502  0.00000000000E+00  0.00000000000E+00  0.14560630622E+00  0.14560630622E+00  0.00000000000E+00 0. -1.
         21   -1    0    0  502  503 -0.00000000000E+00 -0.00000000000E+00 -0.41418854380E+03  0.41418854380E+03  0.00000000000E+00 0. -1.
          5    1    1    2  501    0 -0.30822609744E+01  0.15538604486E+01 -0.70204614541E+02  0.70446381865E+02  0.47000000000E+01 0. -1.
         -5    1    1    2    0  503  0.30822609744E+01 -0.15538604486E+01 -0.34383832295E+03  0.34388776824E+03  0.47000000000E+01 0. -1.
<mgrwt>
<rscale>  2 0.58313648E+01</rscale>
<asrwt>0</asrwt>
<pdfrwt beam="1">  1       21 0.22401009E-04 0.58313648E+01</pdfrwt>
<pdfrwt beam="2">  1       21 0.63721204E-01 0.58313648E+01</pdfrwt>
<totfact> 0.85167474E+08</totfact>
</mgrwt>
</event>
<event>
 4    1  0.4144004E+006  0.6673074E+01  0.7546771E-02  0.2335271E+00
         21   -1    0    0  501  502  0.00000000000E+00  0.00000000000E+00  0.23379489037E+02  0.23379489037E+02  0.00000000000E+00 0.  1.
         21   -1    0    0  502  503 -0.00000000000E+00 -0.00000000000E+00 -0.40333831857E+01  0.40333831857E+01  0.00000000000E+00 0. -1.
          5    1    1    2  501    0  0.40740879394E+01 -0.24169645760E+01  0.19630538666E+02  0.20733739620E+02  0.47000000000E+01 0.  1.
         -5    1    1    2    0  503 -0.40740879394E+01  0.24169645760E+01 -0.28443281491E+00  0.66791326028E+01  0.47000000000E+01 0. -1.
<mgrwt>
<rscale>  2 0.66730735E+01</rscale>
<asrwt>0</asrwt>
<pdfrwt beam="1">  1       21 0.35968444E-02 0.66730735E+01</pdfrwt>
<pdfrwt beam="2">  1       21 0.62052050E-03 0.66730735E+01</pdfrwt>
<totfact> 0.10681975E+09</totfact>
</mgrwt>
</event>
<event>
 4    1  0.4144004E+006  0.5760910E+01  0.7546771E-02  0.2447620E+00
         21   -1    0    0  501  502  0.00000000000E+00  0.00000000000E+00  0.16402885661E+01  0.16402885661E+01  0.00000000000E+00 0.  1.
         21   -1    0    0  502  503 -0.00000000000E+00 -0.00000000000E+00 -0.35621800059E+02  0.35621800059E+02  0.00000000000E+00 0.  1.
          5    1    1    2  501    0  0.19429897138E+01 -0.27060818322E+01 -0.47451426488E+01  0.74635425013E+01  0.47000000000E+01 0.  1.
         -5    1    1    2    0  503 -0.19429897138E+01  0.27060818322E+01 -0.29236368844E+02  0.29798546124E+02  0.47000000000E+01 0.  1.
<mgrwt>
<rscale>  2 0.57609103E+01</rscale>
<asrwt>0</asrwt>
<pdfrwt beam="1">  1       21 0.25235211E-03 0.57609103E+01</pdfrwt>
<pdfrwt beam="2">  1       21 0.54802764E-02 0.57609103E+01</pdfrwt>
<totfact> 0.17675735E+09</totfact>
</mgrwt>
</event>
<event>
 4    1  0.4144004E+006  0.7478929E+01  0.7546771E-02  0.2255258E+00
         21   -1    0    0  503  502  0.00000000000E+00  0.00000000000E+00  0.18672478167E+02  0.18672478167E+02  0.00000000000E+00 0.  1.
         21   -1    0    0  501  503 -0.00000000000E+00 -0.00000000000E+00 -0.39758467134E+01  0.39758467134E+01  0.00000000000E+00 0. -1.
          5    1    1    2  501    0 -0.36945790309E+01 -0.44938252658E+01  0.17252960944E+01  0.76753518713E+01  0.47000000000E+01 0. -1.
         -5    1    1    2    0  502  0.36945790309E+01  0.44938252658E+01  0.12971335360E+02  0.14972973010E+02  0.47000000000E+01 0.  1.
<mgrwt>
<rscale>  2 0.74789290E+01</rscale>
<asrwt>0</asrwt>
<pdfrwt beam="1">  1       21 0.28726889E-02 0.74789290E+01</pdfrwt>
<pdfrwt beam="2">  1       21 0.61166874E-03 0.74789290E+01</pdfrwt>
<totfact> 0.16518455E+09</totfact>
</mgrwt>
</event>
<event>
 4    1  0.4144004E+006  0.7659068E+01  0.7546771E-02  0.2239269E+00
         21   -1    0    0  501  502  0.00000000000E+00  0.00000000000E+00  0.19506615038E+02  0.19506615038E+02  0.00000000000E+00 0.  1.
         21   -1    0    0  502  503 -0.00000000000E+00 -0.00000000000E+00 -0.38795504375E+01  0.38795504375E+01  0.00000000000E+00 0.  1.
          5    1    1    2  501    0 -0.50690675690E+01  0.32978583481E+01  0.13358139170E+02  0.15398090719E+02  0.47000000000E+01 0.  1.
         -5    1    1    2    0  503  0.50690675690E+01 -0.32978583481E+01  0.22689254301E+01  0.79880747562E+01  0.47000000000E+01 0.  1.
<mgrwt>
<rscale>  2 0.76590675E+01</rscale>
<asrwt>0</asrwt>
<pdfrwt beam="1">  1       21 0.30010176E-02 0.76590675E+01</pdfrwt>
<pdfrwt beam="2">  1       21 0.59685392E-03 0.76590675E+01</pdfrwt>
<totfact> 0.16314740E+09</totfact>
</mgrwt>
</event>
<event>
 4    1  0.4144004E+006  0.5397189E+01  0.7546771E-02  0.2501175E+00
         21   -1    0    0  503  502  0.00000000000E+00  0.00000000000E+00  0.99145432526E+00  0.99145432526E+00  0.00000000000E+00 0. -1.
         21   -1    0    0  501  503 -0.00000000000E+00 -0.00000000000E+00 -0.29935621023E+02  0.29935621023E+02  0.00000000000E+00 0. -1.
          5    1    1    2  501    0  0.24151595125E+00 -0.26422183761E+01 -0.12366753617E+02  0.13493192466E+02  0.47000000000E+01 0. -1.
         -5    1    1    2    0  502 -0.24151595125E+00  0.26422183761E+01 -0.16577413081E+02  0.17433882883E+02  0.47000000000E+01 0. -1.
<mgrwt>
<rscale>  2 0.53971889E+01</rscale>
<asrwt>0</asrwt>
<pdfrwt beam="1">  1       21 0.15253142E-03 0.53971889E+01</pdfrwt>
<pdfrwt beam="2">  1       21 0.46054807E-02 0.53971889E+01</pdfrwt>
<totfact> 0.42574662E+09</totfact>
</mgrwt>
</event>
<event>
 4    1  0.4144004E+006  0.6193366E+01  0.7546771E-02  0.2390916E+00
         21   -1    0    0  501  502  0.00000000000E+00  0.00000000000E+00  0.22745449493E+01  0.22745449493E+01  0.00000000000E+00 0. -1.
         21   -1    0    0  502  503 -0.00000000000E+00 -0.00000000000E+00 -0.27738972234E+02  0.27738972234E+02  0.00000000000E+00 0.  1.
          5    1    1    2  501    0 -0.20144280805E+00  0.40283005999E+01 -0.33359102645E+01  0.70346344767E+01  0.47000000000E+01 0. -1.
         -5    1    1    2    0  503  0.20144280805E+00 -0.40283005999E+01 -0.22128517021E+02  0.22978882707E+02  0.47000000000E+01 0.  1.
<mgrwt>
<rscale>  2 0.61933662E+01</rscale>
<asrwt>0</asrwt>
<pdfrwt beam="1">  1       21 0.34992997E-03 0.61933662E+01</pdfrwt>
<pdfrwt beam="2">  1       21 0.42675344E-02 0.61933662E+01</pdfrwt>
<totfact> 0.17368471E+09</totfact>
</mgrwt>
</event>
<event>
 4    1  0.4144004E+006  0.1077946E+02  0.7546771E-02  0.2033164E+00
         21   -1    0    0  501  502  0.00000000000E+00  0.00000000000E+00  0.93905419022E+00  0.93905419022E+00  0.00000000000E+00 0.  1.
         21   -1    0    0  502  503 -0.00000000000E+00 -0.00000000000E+00 -0.44674953627E+03  0.44674953627E+03  0.00000000000E+00 0. -1.
          5    1    1    2  501    0 -0.59374589933E+01 -0.76715989625E+01 -0.32568391852E+02  0.34305932399E+02  0.47000000000E+01 0.  1.
         -5    1    1    2    0  503  0.59374589933E+01  0.76715989625E+01 -0.41324209023E+03  0.41338265806E+03  0.47000000000E+01 0. -1.
<mgrwt>
<rscale>  2 0.10779464E+02</rscale>
<asrwt>0</asrwt>
<pdfrwt beam="1">  1       21 0.14446955E-03 0.10779464E+02</pdfrwt>
<pdfrwt beam="2">  1       21 0.68730851E-01 0.10779464E+02</pdfrwt>
<totfact> 0.81822745E+07</totfact>
</mgrwt>
</event>
<event>
 4    1  0.4144004E+006  0.5415850E+01  0.7546771E-02  0.2498279E+00
         21   -1    0    0  503  502  0.00000000000E+00  0.00000000000E+00  0.21481845157E+00  0.21481845157E+00  0.00000000000E+00 0.  1.
         21   -1    0    0  501  503 -0.00000000000E+00 -0.00000000000E+00 -0.15148026424E+03  0.15148026424E+03  0.00000000000E+00 0.  1.
          5    1    1    2  501    0 -0.21405643296E+01 -0.16307701497E+01 -0.99452341392E+02  0.99599696964E+02  0.47000000000E+01 0.  1.
         -5    1    1    2    0  502  0.21405643296E+01  0.16307701497E+01 -0.51813104399E+02  0.52095385731E+02  0.47000000000E+01 0.  1.
<mgrwt>
<rscale>  2 0.54158496E+01</rscale>
<asrwt>0</asrwt>
<pdfrwt beam="1">  1       21 0.33048929E-04 0.54158496E+01</pdfrwt>
<pdfrwt beam="2">  1       21 0.23304701E-01 0.54158496E+01</pdfrwt>
<totfact> 0.27362184E+09</totfact>
</mgrwt>
</event>
<event>
 4    1  0.4144004E+006  0.1078177E+02  0.7546771E-02  0.2033048E+00
         21   -1    0    0  501  502  0.00000000000E+00  0.00000000000E+00  0.38615218679E+03  0.38615218679E+03  0.00000000000E+00 0. -1.
         21   -1    0    0  502  503 -0.00000000000E+00 -0.00000000000E+00 -0.35409345039E+00  0.35409345039E+00  0.00000000000E+00 0.  1.
          5    1    1    2  501    0  0.10624250156E+01  0.96450950636E+01  0.26770416328E+03  0.26792119297E+03  0.47000000000E+01 0. -1.
         -5    1    1    2    0  503 -0.10624250156E+01 -0.96450950636E+01  0.11809393006E+03  0.11858508727E+03  0.47000000000E+01 0.  1.
<mgrwt>
<rscale>  2 0.10781772E+02</rscale>
<asrwt>0</asrwt>
<pdfrwt beam="1">  1       21 0.59407692E-01 0.10781772E+02</pdfrwt>
<pdfrwt beam="2">  1       21 0.54476225E-04 0.10781772E+02</pdfrwt>
<totfact> 0.41820487E+08</totfact>
</mgrwt>
</event>
<event>
 4    1  0.4144004E+006  0.6862207E+01  0.7546771E-02  0.2315114E+00
         21   -1    0    0  503  502  0.00000000000E+00  0.00000000000E+00  0.10597860067E+03  0.10597860067E+03  0.00000000000E+00 0.  1.
         21   -1    0    0  501  503 -0.00000000000E+00 -0.00000000000E+00 -0.13269896363E+01  0.13269896363E+01  0.00000000000E+00 0. -1.
          5    1    1    2  501    0 -0.42094300320E+01 -0.26982553114E+01  0.85681277762E+01  0.10977372022E+02  0.47000000000E+01 0. -1.
         -5    1    1    2    0  502  0.42094300320E+01  0.26982553114E+01  0.96083483260E+02  0.96328218287E+02  0.47000000000E+01 0.  1.
<mgrwt>
<rscale>  2 0.68622069E+01</rscale>
<asrwt>0</asrwt>
<pdfrwt beam="1">  1       21 0.16304393E-01 0.68622069E+01</pdfrwt>
<pdfrwt beam="2">  1       21 0.20415234E-03 0.68622069E+01</pdfrwt>
<totfact> 0.50506609E+08</totfact>
</mgrwt>
</event>
<event>
 4    1  0.4144004E+006  0.6304989E+01  0.7546771E-02  0.2377342E+00
         21   -1    0    0  501  502  0.00000000000E+00  0.00000000000E+00  0.70781119140E+01  0.70781119140E+01  0.00000000000E+00 0. -1.
         21   -1    0    0  502  503 -0.00000000000E+00 -0.00000000000E+00 -0.65028497385E+01  0.65028497385E+01  0.00000000000E+00 0. -1.
          5    1    1    2  501    0  0.26570786022E+01  0.32561978323E+01  0.27948777918E+01  0.68966827455E+01  0.47000000000E+01 0. -1.
         -5    1    1    2    0  503 -0.26570786022E+01 -0.32561978323E+01 -0.22196156163E+01  0.66842789069E+01  0.47000000000E+01 0. -1.
<mgrwt>
<rscale>  2 0.63049894E+01</rscale>
<asrwt>0</asrwt>
<pdfrwt beam="1">  1       21 0.10889403E-02 0.63049894E+01</pdfrwt>
<pdfrwt beam="2">  1       21 0.10004384E-02 0.63049894E+01</pdfrwt>
<totfact> 0.29207375E+09</totfact>
</mgrwt>
</event>
<event>
 4    1  0.4144004E+006  0.1064503E+02  0.7546771E-02  0.2040036E+00
         21   -1    0    0  501  502  0.00000000000E+00  0.00000000000E+00  0.41945337122E+02  0.41945337122E+02  0.00000000000E+00 0. -1.
         21   -1    0    0  502  503 -0.00000000000E+00 -0.00000000000E+00 -0.88125418471E+01  0.88125418471E+01  0.00000000000E+00 0.  1.
          5    1    1    2  501    0  0.23242348432E+01  0.92641564625E+01  0.37700284225E+02  0.39174329518E+02  0.47000000000E+01 0. -1.
         -5    1    1    2    0  503 -0.23242348432E+01 -0.92641564625E+01 -0.45674889501E+01  0.11583549451E+02  0.47000000000E+01 0.  1.
<mgrwt>
<rscale>  2 0.10645030E+02</rscale>
<asrwt>0</asrwt>
<pdfrwt beam="1">  1       21 0.64531287E-02 0.10645030E+02</pdfrwt>
<pdfrwt beam="2">  1       21 0.13557757E-02 0.10645030E+02</pdfrwt>
<totfact> 0.19074798E+08</totfact>
</mgrwt>
</event>
<event>
 4    1  0.4144004E+006  0.6880122E+01  0.7546771E-02  0.2313252E+00
         21   -1    0    0  501  502  0.00000000000E+00  0.00000000000E+00  0.15478917663E+02  0.15478917663E+02  0.00000000000E+00 0.  1.
         21   -1    0    0  502  503 -0.00000000000E+00 -0.00000000000E+00 -0.59017113315E+01  0.59017113315E+01  0.00000000000E+00 0.  1.
          5    1    1    2  501    0 -0.24149843735E+00 -0.50187401571E+01  0.12209162420E+02  0.14014268488E+02  0.47000000000E+01 0.  1.
         -5    1    1    2    0  503  0.24149843735E+00  0.50187401571E+01 -0.26319560884E+01  0.73663605065E+01  0.47000000000E+01 0.  1.
<mgrwt>
<rscale>  2 0.68801217E+01</rscale>
<asrwt>0</asrwt>
<pdfrwt beam="1">  1       21 0.23813719E-02 0.68801217E+01</pdfrwt>
<pdfrwt beam="2">  1       21 0.90795559E-03 0.68801217E+01</pdfrwt>
<totfact> 0.11681441E+09</totfact>
</mgrwt>
</event>
<event>
 4    1  0.4144004E+006  0.6416515E+01  0.7546771E-02  0.2364173E+00
         21   -1    0    0  501  502  0.00000000000E+00  0.00000000000E+00  0.35224835942E+02  0.35224835942E+02  0.00000000000E+00 0.  1.
         21   -1    0    0  502  503 -0.00000000000E+00 -0.00000000000E+00 -0.18246369074E+01  0.18246369074E+01  0.00000000000E+00 0.  1.
          5    1    1    2  501    0 -0.32906476045E+01 -0.28728570406E+01  0.27805991760E+02  0.28536728035E+02  0.47000000000E+01 0.  1.
         -5    1    1    2    0  503  0.32906476045E+01  0.28728570406E+01  0.55942072748E+01  0.85127448139E+01  0.47000000000E+01 0.  1.
<mgrwt>
<rscale>  2 0.64165153E+01</rscale>
<asrwt>0</asrwt>
<pdfrwt beam="1">  1       21 0.54192050E-02 0.64165153E+01</pdfrwt>
<pdfrwt beam="2">  1       21 0.28071340E-03 0.64165153E+01</pdfrwt>
<totfact> 0.16991788E+09</totfact>
</mgrwt>
</event>
<event>
 4    1  0.4144004E+006  0.1497849E+02  0.7546771E-02  0.1868726E+00
         21   -1    0    0  503  502  0.00000000000E+00  0.00000000000E+00  0.90869020315E+03  0.90869020315E+03  0.00000000000E+00 0. -1.
         21   -1    0    0  501  503 -0.00000000000E+00 -0.00000000000E+00 -0.58905686663E+00  0.58905686663E+00  0.00000000000E+00 0.  1.
          5    1    1    2  501    0 -0.13116407966E+02 -0.54977299028E+01  0.10755188001E+03  0.10858988022E+03  0.47000000000E+01 0.  1.
         -5    1    1    2    0  502  0.13116407966E+02  0.54977299028E+01  0.80054926627E+03  0.80068937979E+03  0.47000000000E+01 0. -1.
<mgrwt>
<rscale>  2 0.14978491E+02</rscale>
<asrwt>0</asrwt>
<pdfrwt beam="1">  1       21 0.13979737E+00 0.14978491E+02</pdfrwt>
<pdfrwt beam="2">  1       21 0.90624861E-04 0.14978491E+02</pdfrwt>
<totfact> 0.38891551E+07</totfact>
</mgrwt>
</event>
<event>
 4    1  0.4144004E+006  0.5708175E+01  0.7546771E-02  0.2455026E+00
         21   -1    0    0  501  502  0.00000000000E+00  0.00000000000E+00  0.59272005595E+02  0.59272005595E+02  0.00000000000E+00 0. -1.
         21   -1    0    0  502  503 -0.00000000000E+00 -0.00000000000E+00 -0.55228556866E+00  0.55228556866E+00  0.00000000000E+00 0. -1.
          5    1    1    2  501    0 -0.21285853718E+01  0.24417991687E+01  0.27322829837E+02  0.27912726294E+02  0.47000000000E+01 0. -1.
         -5    1    1    2    0  503  0.21285853718E+01 -0.24417991687E+01  0.31396890189E+02  0.31911564870E+02  0.47000000000E+01 0. -1.
<mgrwt>
<rscale>  2 0.57081747E+01</rscale>
<asrwt>0</asrwt>
<pdfrwt beam="1">  1       21 0.91187651E-02 0.57081747E+01</pdfrwt>
<pdfrwt beam="2">  1       21 0.84967057E-04 0.57081747E+01</pdfrwt>
<totfact> 0.35466442E+09</totfact>
</mgrwt>
</event>
<event>
 4    1  0.4144004E+006  0.5400475E+01  0.7546771E-02  0.2500663E+00
         21   -1    0    0  503  502  0.00000000000E+00  0.00000000000E+00  0.12320496962E+03  0.12320496962E+03  0.00000000000E+00 0.  1.
         21   -1    0    0  501  503 -0.00000000000E+00 -0.00000000000E+00 -0.31445697529E+00  0.31445697529E+00  0.00000000000E+00 0. -1.
          5    1    1    2  501    0 -0.13812390863E+01 -0.22731715276E+01  0.30738259431E+02  0.31209064758E+02  0.47000000000E+01 0. -1.
         -5    1    1    2    0  502  0.13812390863E+01  0.22731715276E+01  0.92152253209E+02  0.92310361833E+02  0.47000000000E+01 0.  1.
<mgrwt>
<rscale>  2 0.54004750E+01</rscale>
<asrwt>0</asrwt>
<pdfrwt beam="1">  1       21 0.18954572E-01 0.54004750E+01</pdfrwt>
<pdfrwt beam="2">  1       21 0.48378095E-04 0.54004750E+01</pdfrwt>
<totfact> 0.22932554E+09</totfact>
</mgrwt>
</event>
<event>
 4    1  0.4144004E+006  0.6288579E+01  0.7546771E-02  0.2379313E+00
         21   -1    0    0  503  502  0.00000000000E+00  0.00000000000E+00  0.49686347068E+03  0.49686347068E+03  0.00000000000E+00 0. -1.
         21   -1    0    0  501  503 -0.00000000000E+00 -0.00000000000E+00 -0.87181973896E-01  0.87181973896E-01  0.00000000000E+00 0. -1.
          5    1    1    2  501    0 -0.34878467028E+01  0.23002494690E+01  0.17507229978E+03  0.17518520592E+03  0.47000000000E+01 0. -1.
         -5    1    1    2    0  502  0.34878467028E+01 -0.23002494690E+01  0.32170398893E+03  0.32176544674E+03  0.47000000000E+01 0. -1.
<mgrwt>
<rscale>  2 0.62885787E+01</rscale>
<asrwt>0</asrwt>
<pdfrwt beam="1">  1       21 0.76438267E-01 0.62885787E+01</pdfrwt>
<pdfrwt beam="2">  1       21 0.13413009E-04 0.62885787E+01</pdfrwt>
<totfact> 0.12588812E+09</totfact>
</mgrwt>
</event>
<event>
 4    1  0.4144004E+006  0.6018546E+01  0.7546771E-02  0.2413016E+00
         21   -1    0    0  503  502  0.00000000000E+00  0.00000000000E+00  0.74156031415E+02  0.74156031415E+02  0.00000000000E+00 0. -1.
         21   -1    0    0  501  503 -0.00000000000E+00 -0.00000000000E+00 -0.68930157662E+00  0.68930157662E+00  0.00000000000E+00 0. -1.
          5    1    1    2  501    0 -0.29766840864E+01  0.22961374195E+01  0.16533541564E+02  0.17594910964E+02  0.47000000000E+01 0. -1.
         -5    1    1    2    0  502  0.29766840864E+01 -0.22961374195E+01  0.56933188274E+02  0.57250422027E+02  0.47000000000E+01 0. -1.
<mgrwt>
<rscale>  2 0.60185459E+01</rscale>
<asrwt>0</asrwt>
<pdfrwt beam="1">  1       21 0.11408614E-01 0.60185459E+01</pdfrwt>
<pdfrwt beam="2">  1       21 0.10604645E-03 0.60185459E+01</pdfrwt>
<totfact> 0.19555345E+09</totfact>
</mgrwt>
</event>
<event>
 4    1  0.4144004E+006  0.5155665E+01  0.7546771E-02  0.2540258E+00
         21   -1    0    0  503  502  0.00000000000E+00  0.00000000000E+00  0.85656234244E+01  0.85656234244E+01  0.00000000000E+00 0.  1.
         21   -1    0    0  501  503 -0.00000000000E+00 -0.00000000000E+00 -0.93483113286E+01  0.93483113286E+01  0.00000000000E+00 0.  1.
          5    1    1    2  501    0  0.20714798355E+01  0.44705092640E+00 -0.77122416180E+01  0.92768288771E+01  0.47000000000E+01 0.  1.
         -5    1    1    2    0  502 -0.20714798355E+01 -0.44705092640E+00  0.69295537138E+01  0.86371058760E+01  0.47000000000E+01 0.  1.
<mgrwt>
<rscale>  2 0.51556652E+01</rscale>
<asrwt>0</asrwt>
<pdfrwt beam="1">  1       21 0.13177882E-02 0.51556652E+01</pdfrwt>
<pdfrwt beam="2">  1       21 0.14382017E-02 0.51556652E+01</pdfrwt>
<totfact> 0.11160683E+09</totfact>
</mgrwt>
</event>
<event>
 4    1  0.4144004E+006  0.1145570E+02  0.7546771E-02  0.2000523E+00
         21   -1    0    0  503  502  0.00000000000E+00  0.00000000000E+00  0.85112162270E+02  0.85112162270E+02  0.00000000000E+00 0. -1.
         21   -1    0    0  501  503 -0.00000000000E+00 -0.00000000000E+00 -0.32316641350E+01  0.32316641350E+01  0.00000000000E+00 0. -1.
          5    1    1    2  501    0 -0.10342381613E+02 -0.14758493296E+01  0.89992614284E+01  0.14567762180E+02  0.47000000000E+01 0. -1.
         -5    1    1    2    0  502  0.10342381613E+02  0.14758493296E+01  0.72881236707E+02  0.73776064225E+02  0.47000000000E+01 0. -1.
<mgrwt>
<rscale>  2 0.11455697E+02</rscale>
<asrwt>0</asrwt>
<pdfrwt beam="1">  1       21 0.13094177E-01 0.11455697E+02</pdfrwt>
<pdfrwt beam="2">  1       21 0.49717916E-03 0.11455697E+02</pdfrwt>
<totfact> 0.27495571E+08</totfact>
</mgrwt>
</event>
<event>
 4    1  0.4144004E+006  0.6274181E+01  0.7546771E-02  0.2381048E+00
         21   -1    0    0  503  502  0.00000000000E+00  0.00000000000E+00  0.24951974752E+01  0.24951974752E+01  0.00000000000E+00 0.  1.
         21   -1    0    0  501  503 -0.00000000000E+00 -0.00000000000E+00 -0.20713870306E+02  0.20713870306E+02  0.00000000000E+00 0.  1.
          5    1    1    2  501    0 -0.26292123078E+01 -0.32190973951E+01 -0.14774955209E+02  0.16051935922E+02  0.47000000000E+01 0.  1.
         -5    1    1    2    0  502  0.26292123078E+01  0.32190973951E+01 -0.34437176216E+01  0.71571318596E+01  0.47000000000E+01 0.  1.
<mgrwt>
<rscale>  2 0.62741809E+01</rscale>
<asrwt>0</asrwt>
<pdfrwt beam="1">  1       21 0.38387655E-03 0.62741809E+01</pdfrwt>
<pdfrwt beam="2">  1       21 0.31867491E-02 0.62741809E+01</pdfrwt>
<totfact> 0.23722050E+09</totfact>
</mgrwt>
</event>
<event>
 4    1  0.4144004E+006  0.5480957E+01  0.7546771E-02  0.2488308E+00
         21   -1    0    0  501  502  0.00000000000E+00  0.00000000000E+00  0.30262398976E+02  0.30262398976E+02  0.00000000000E+00 0.  1.
         21   -1    0    0  502  503 -0.00000000000E+00 -0.00000000000E+00 -0.99270033967E+00  0.99270033967E+00  0.00000000000E+00 0. -1.
          5    1    1    2  501    0 -0.38255082005E+00 -0.27936605132E+01  0.14564455478E+02  0.15561627407E+02  0.47000000000E+01 0. -1.
         -5    1    1    2    0  503  0.38255082005E+00  0.27936605132E+01  0.14705243158E+02  0.15693471908E+02  0.47000000000E+01 0.  1.
<mgrwt>
<rscale>  2 0.54809565E+01</rscale>
<asrwt>0</asrwt>
<pdfrwt beam="1">  1       21 0.46557530E-02 0.54809565E+01</pdfrwt>
<pdfrwt beam="2">  1       21 0.15272315E-03 0.54809565E+01</pdfrwt>
<totfact> 0.42455607E+09</totfact>
</mgrwt>
</event>
<event>
 4    1  0.4144004E+006  0.1393098E+02  0.7546771E-02  0.1902558E+00
         21   -1    0    0  501  502  0.00000000000E+00  0.00000000000E+00  0.24045464023E+01  0.24045464023E+01  0.00000000000E+00 0. -1.
         21   -1    0    0  502  503 -0.00000000000E+00 -0.00000000000E+00 -0.10119670964E+03  0.10119670964E+03  0.00000000000E+00 0. -1.
          5    1    1    2  501    0  0.92319954417E+01  0.93141071832E+01 -0.26089327329E+02  0.29575755830E+02  0.47000000000E+01 0. -1.
         -5    1    1    2    0  503 -0.92319954417E+01 -0.93141071832E+01 -0.72702835908E+02  0.74025500212E+02  0.47000000000E+01 0. -1.
<mgrwt>
<rscale>  2 0.13930985E+02</rscale>
<asrwt>0</asrwt>
<pdfrwt beam="1">  1       21 0.36993027E-03 0.13930985E+02</pdfrwt>
<pdfrwt beam="2">  1       21 0.15568722E-01 0.13930985E+02</pdfrwt>
<totfact> 0.34448456E+08</totfact>
</mgrwt>
</event>
<event>
 4    1  0.4144004E+006  0.5684975E+01  0.7546771E-02  0.2458321E+00
         21   -1    0    0  503  502  0.00000000000E+00  0.00000000000E+00  0.87872383609E+02  0.87872383609E+02  0.00000000000E+00 0. -1.
         21   -1    0    0  501  503 -0.00000000000E+00 -0.00000000000E+00 -0.45744223711E+00  0.45744223711E+00  0.00000000000E+00 0. -1.
          5    1    1    2  501    0  0.26418581213E+01 -0.18026451804E+01  0.24155979364E+02  0.24815928011E+02  0.47000000000E+01 0. -1.
         -5    1    1    2    0  502 -0.26418581213E+01  0.18026451804E+01  0.63258962007E+02  0.63513897835E+02  0.47000000000E+01 0. -1.
<mgrwt>
<rscale>  2 0.56849753E+01</rscale>
<asrwt>0</asrwt>
<pdfrwt beam="1">  1       21 0.13518815E-01 0.56849753E+01</pdfrwt>
<pdfrwt beam="2">  1       21 0.70375798E-04 0.56849753E+01</pdfrwt>
<totfact> 0.24797778E+09</totfact>
</mgrwt>
</event>
<event>
 4    1  0.4144004E+006  0.6387804E+01  0.7546771E-02  0.2367527E+00
         21   -1    0    0  501  502  0.00000000000E+00  0.00000000000E+00  0.88980605205E+00  0.88980605205E+00  0.00000000000E+00 0. -1.
         21   -1    0    0  502  503 -0.00000000000E+00 -0.00000000000E+00 -0.46137624073E+02  0.46137624073E+02  0.00000000000E+00 0. -1.
          5    1    1    2  501    0 -0.33135473849E+01  0.27810878811E+01 -0.20790862650E+02  0.21750034846E+02  0.47000000000E+01 0. -1.
         -5    1    1    2    0  503  0.33135473849E+01 -0.27810878811E+01 -0.24456955371E+02  0.25277395279E+02  0.47000000000E+01 0. -1.
<mgrwt>
<rscale>  2 0.63878045E+01</rscale>
<asrwt>0</asrwt>
<pdfrwt beam="1">  1       21 0.13689325E-03 0.63878045E+01</pdfrwt>
<pdfrwt beam="2">  1       21 0.70980953E-02 0.63878045E+01</pdfrwt>
<totfact> 0.30083205E+09</totfact>
</mgrwt>
</event>
<event>
 4    1  0.4144004E+006  0.5717987E+01  0.7546771E-02  0.2453640E+00
         21   -1    0    0  501  502  0.00000000000E+00  0.00000000000E+00  0.14480517072E+02  0.14480517072E+02  0.00000000000E+00 0.  1.
         21   -1    0    0  502  503 -0.00000000000E+00 -0.00000000000E+00 -0.23969493857E+01  0.23969493857E+01  0.00000000000E+00 0.  1.
          5    1    1    2  501    0  0.17344676146E+01  0.27562648029E+01  0.40091815374E+01  0.69834740760E+01  0.47000000000E+01 0.  1.
         -5    1    1    2    0  503 -0.17344676146E+01 -0.27562648029E+01  0.80743861487E+01  0.98939923816E+01  0.47000000000E+01 0.  1.
<mgrwt>
<rscale>  2 0.57179868E+01</rscale>
<asrwt>0</asrwt>
<pdfrwt beam="1">  1       21 0.22277718E-02 0.57179868E+01</pdfrwt>
<pdfrwt beam="2">  1       21 0.36876145E-03 0.57179868E+01</pdfrwt>
<totfact> 0.38792602E+09</totfact>
</mgrwt>
</event>
<event>
 4    1  0.4144004E+006  0.5266719E+01  0.7546771E-02  0.2521907E+00
         21   -1    0    0  501  502  0.00000000000E+00  0.00000000000E+00  0.29859273596E+02  0.29859273596E+02  0.00000000000E+00 0.  1.
         21   -1    0    0  502  503 -0.00000000000E+00 -0.00000000000E+00 -0.93038765315E+00  0.93038765315E+00  0.00000000000E+00 0.  1.
          5    1    1    2  501    0 -0.16799669829E+01 -0.16810836140E+01  0.13863236189E+02  0.14829957815E+02  0.47000000000E+01 0.  1.
         -5    1    1    2    0  503  0.16799669829E+01  0.16810836140E+01  0.15065649754E+02  0.15959703434E+02  0.47000000000E+01 0.  1.
<mgrwt>
<rscale>  2 0.52667192E+01</rscale>
<asrwt>0</asrwt>
<pdfrwt beam="1">  1       21 0.45937337E-02 0.52667192E+01</pdfrwt>
<pdfrwt beam="2">  1       21 0.14313659E-03 0.52667192E+01</pdfrwt>
<totfact> 0.45417540E+09</totfact>
</mgrwt>
</event>
<event>
 4    1  0.4144004E+006  0.6144296E+01  0.7546771E-02  0.2397013E+00
         21   -1    0    0  503  502  0.00000000000E+00  0.00000000000E+00  0.23613995384E+03  0.23613995384E+03  0.00000000000E+00 0. -1.
         21   -1    0    0  501  503 -0.00000000000E+00 -0.00000000000E+00 -0.16047739121E+00  0.16047739121E+00  0.00000000000E+00 0.  1.
          5    1    1    2  501    0  0.28257727498E+01 -0.27708082466E+01  0.12524138538E+03  0.12539201323E+03  0.47000000000E+01 0. -1.
         -5    1    1    2    0  502 -0.28257727498E+01  0.27708082466E+01  0.11073809108E+03  0.11090841801E+03  0.47000000000E+01 0.  1.
<mgrwt>
<rscale>  2 0.61442957E+01</rscale>
<asrwt>0</asrwt>
<pdfrwt beam="1">  1       21 0.36328946E-01 0.61442957E+01</pdfrwt>
<pdfrwt beam="2">  1       21 0.24689018E-04 0.61442957E+01</pdfrwt>
<totfact> 0.21297215E+09</totfact>
</mgrwt>
</event>
<event>
 4    1  0.4144004E+006  0.6797395E+01  0.7546771E-02  0.2321917E+00
         21   -1    0    0  501  502  0.00000000000E+00  0.00000000000E+00  0.33423172115E+01  0.33423172115E+01  0.00000000000E+00 0. -1.
         21   -1    0    0  502  503 -0.00000000000E+00 -0.00000000000E+00 -0.19422987921E+02  0.19422987921E+02  0.00000000000E+00 0. -1.
          5    1    1    2  501    0 -0.41028335922E+01  0.26983938053E+01 -0.19290041385E+01  0.70658070721E+01  0.47000000000E+01 0. -1.
         -5    1    1    2    0  503  0.41028335922E+01 -0.26983938053E+01 -0.14151666571E+02  0.15699498061E+02  0.47000000000E+01 0. -1.
<mgrwt>
<rscale>  2 0.67973945E+01</rscale>
<asrwt>0</asrwt>
<pdfrwt beam="1">  1       21 0.51420265E-03 0.67973945E+01</pdfrwt>
<pdfrwt beam="2">  1       21 0.29881520E-02 0.67973945E+01</pdfrwt>
<totfact> 0.18516177E+09</totfact>
</mgrwt>
</event>
<event>
 4    1  0.4144004E+006  0.5328647E+01  0.7546771E-02  0.2511959E+00
         21   -1    0    0  501  502  0.00000000000E+00  0.00000000000E+00  0.10367276574E+01  0.10367276574E+01  0.00000000000E+00 0. -1.
         21   -1    0    0  502  503 -0.00000000000E+00 -0.00000000000E+00 -0.31764475274E+02  0.31764475274E+02  0.00000000000E+00 0. -1.
          5    1    1    2  501    0 -0.14292333963E+01  0.20644046128E+01 -0.92765902116E+01  0.10698112005E+02  0.47000000000E+01 0. -1.
         -5    1    1    2    0  503  0.14292333963E+01 -0.20644046128E+01 -0.21451157405E+02  0.22103090927E+02  0.47000000000E+01 0. -1.
<mgrwt>
<rscale>  2 0.53286466E+01</rscale>
<asrwt>0</asrwt>
<pdfrwt beam="1">  1       21 0.15949658E-03 0.53286466E+01</pdfrwt>
<pdfrwt beam="2">  1       21 0.48868418E-02 0.53286466E+01</pdfrwt>
<totfact> 0.36292790E+09</totfact>
</mgrwt>
</event>
<event>
 4    1  0.4144004E+006  0.6821858E+01  0.7546771E-02  0.2319337E+00
         21   -1    0    0  501  502  0.00000000000E+00  0.00000000000E+00  0.23237578692E+03  0.23237578692E+03  0.00000000000E+00 0.  1.
         21   -1    0    0  502  503 -0.00000000000E+00 -0.00000000000E+00 -0.42758026523E+00  0.42758026523E+00  0.00000000000E+00 0. -1.
          5    1    1    2  501    0 -0.50868625431E+00  0.49182296967E+01  0.20084535209E+03  0.20096117337E+03  0.47000000000E+01 0.  1.
         -5    1    1    2    0  503  0.50868625431E+00 -0.49182296967E+01  0.31102854565E+02  0.31842193818E+02  0.47000000000E+01 0. -1.
<mgrwt>
<rscale>  2 0.68218579E+01</rscale>
<asrwt>0</asrwt>
<pdfrwt beam="1">  1       21 0.35750020E-01 0.68218579E+01</pdfrwt>
<pdfrwt beam="2">  1       21 0.65781765E-04 0.68218579E+01</pdfrwt>
<totfact> 0.63415942E+08</totfact>
</mgrwt>
</event>
<event>
 4    1  0.4144004E+006  0.6520450E+01  0.7546771E-02  0.2352238E+00
         21   -1    0    0  501  502  0.00000000000E+00  0.00000000000E+00  0.24070800597E+01  0.24070800597E+01  0.00000000000E+00 0. -1.
         21   -1    0    0  502  503 -0.00000000000E+00 -0.00000000000E+00 -0.39120783826E+02  0.39120783826E+02  0.00000000000E+00 0. -1.
          5    1    1    2  501    0  0.35768923887E+01  0.27626276439E+01 -0.29789108846E+01  0.71686944918E+01  0.47000000000E+01 0. -1.
         -5    1    1    2    0  503 -0.35768923887E+01 -0.27626276439E+01 -0.33734792882E+02  0.34359169394E+02  0.47000000000E+01 0. -1.
<mgrwt>
<rscale>  2 0.65204502E+01</rscale>
<asrwt>0</asrwt>
<pdfrwt beam="1">  1       21 0.37032003E-03 0.65204502E+01</pdfrwt>
<pdfrwt beam="2">  1       21 0.60185818E-02 0.65204502E+01</pdfrwt>
<totfact> 0.10028880E+09</totfact>
</mgrwt>
</event>
<event>
 4    1  0.4144004E+006  0.5040754E+01  0.7546771E-02  0.2559975E+00
         21   -1    0    0  503  502  0.00000000000E+00  0.00000000000E+00  0.28216398899E+01  0.28216398899E+01  0.00000000000E+00 0.  1.
         21   -1    0    0  501  503 -0.00000000000E+00 -0.00000000000E+00 -0.12663387895E+02  0.12663387895E+02  0.00000000000E+00 0.  1.
          5    1    1    2  501    0  0.18096852150E+01  0.21032736959E+00 -0.90823265958E+01  0.10387389209E+02  0.47000000000E+01 0.  1.
         -5    1    1    2    0  502 -0.18096852150E+01 -0.21032736959E+00 -0.75942140958E+00  0.50976385766E+01  0.47000000000E+01 0.  1.
<mgrwt>
<rscale>  2 0.50407537E+01</rscale>
<asrwt>0</asrwt>
<pdfrwt beam="1">  1       21 0.43409845E-03 0.50407537E+01</pdfrwt>
<pdfrwt beam="2">  1       21 0.19482135E-02 0.50407537E+01</pdfrwt>
<totfact> 0.33187255E+09</totfact>
</mgrwt>
</event>
<event>
 4    1  0.4144004E+006  0.4766439E+01  0.7546771E-02  0.2610333E+00
         21   -1    0    0  503  502  0.00000000000E+00  0.00000000000E+00  0.16914273306E+01  0.16914273306E+01  0.00000000000E+00 0.  1.
         21   -1    0    0  501  503 -0.00000000000E+00 -0.00000000000E+00 -0.27838681627E+02  0.27838681627E+02  0.00000000000E+00 0.  1.
          5    1    1    2  501    0  0.46698643394E+00  0.64098692248E+00 -0.23695362474E+02  0.24170005034E+02  0.47000000000E+01 0.  1.
         -5    1    1    2    0  502 -0.46698643394E+00 -0.64098692248E+00 -0.24518918225E+01  0.53601039237E+01  0.47000000000E+01 0.  1.
<mgrwt>
<rscale>  2 0.47664390E+01</rscale>
<asrwt>0</asrwt>
<pdfrwt beam="1">  1       21 0.26021958E-03 0.47664390E+01</pdfrwt>
<pdfrwt beam="2">  1       21 0.42828742E-02 0.47664390E+01</pdfrwt>
<totfact> 0.20345900E+09</totfact>
</mgrwt>
</event>
<event>
 4    1  0.4144004E+006  0.8940233E+01  0.7546771E-02  0.2140844E+00
         21   -1    0    0  501  502  0.00000000000E+00  0.00000000000E+00  0.28412431528E+02  0.28412431528E+02  0.00000000000E+00 0. -1.
         21   -1    0    0  502  503 -0.00000000000E+00 -0.00000000000E+00 -0.36953759544E+01  0.36953759544E+01  0.00000000000E+00 0. -1.
          5    1    1    2  501    0 -0.75628737065E+01  0.80044274824E+00  0.20202698047E+02  0.22092459701E+02  0.47000000000E+01 0. -1.
         -5    1    1    2    0  503  0.75628737065E+01 -0.80044274824E+00  0.45143575271E+01  0.10015347781E+02  0.47000000000E+01 0. -1.
<mgrwt>
<rscale>  2 0.89402331E+01</rscale>
<asrwt>0</asrwt>
<pdfrwt beam="1">  1       21 0.43711432E-02 0.89402331E+01</pdfrwt>
<pdfrwt beam="2">  1       21 0.56851940E-03 0.89402331E+01</pdfrwt>
<totfact> 0.11052075E+09</totfact>
</mgrwt>
</event>
<event>
 4    1  0.4144004E+006  0.5493594E+01  0.7546771E-02  0.2486395E+00
         21   -1    0    0  503  502  0.00000000000E+00  0.00000000000E+00  0.29581217115E+02  0.29581217115E+02  0.00000000000E+00 0. -1.
         21   -1    0    0  501  503 -0.00000000000E+00 -0.00000000000E+00 -0.14879830137E+01  0.14879830137E+01  0.00000000000E+00 0.  1.
          5    1    1    2  501    0  0.22616011874E+01  0.17247419656E+01  0.53367707456E+01  0.76590271425E+01  0.47000000000E+01 0.  1.
         -5    1    1    2    0  502 -0.22616011874E+01 -0.17247419656E+01  0.22756463355E+02  0.23410172986E+02  0.47000000000E+01 0. -1.
<mgrwt>
<rscale>  2 0.54935940E+01</rscale>
<asrwt>0</asrwt>
<pdfrwt beam="1">  1       21 0.45509560E-02 0.54935940E+01</pdfrwt>
<pdfrwt beam="2">  1       21 0.22892049E-03 0.54935940E+01</pdfrwt>
<totfact> 0.25457745E+09</totfact>
</mgrwt>
</event>
<event>
 4    1  0.4144004E+006  0.5847253E+01  0.7546771E-02  0.2435738E+00
         21   -1    0    0  503  502  0.00000000000E+00  0.00000000000E+00  0.14415093335E+00  0.14415093335E+00  0.00000000000E+00 0. -1.
         21   -1    0    0  501  503 -0.00000000000E+00 -0.00000000000E+00 -0.25984882679E+03  0.25984882679E+03  0.00000000000E+00 0. -1.
          5    1    1    2  501    0 -0.28433438178E+01  0.20039371368E+01 -0.16824450114E+03  0.16834607965E+03  0.47000000000E+01 0. -1.
         -5    1    1    2    0  502  0.28433438178E+01 -0.20039371368E+01 -0.91460174712E+02  0.91646898073E+02  0.47000000000E+01 0. -1.
<mgrwt>
<rscale>  2 0.58472530E+01</rscale>
<asrwt>0</asrwt>
<pdfrwt beam="1">  1       21 0.22177027E-04 0.58472530E+01</pdfrwt>
<pdfrwt beam="2">  1       21 0.39976815E-01 0.58472530E+01</pdfrwt>
<totfact> 0.20032643E+09</totfact>
</mgrwt>
</event>
<event>
 4    1  0.4144004E+006  0.5191579E+01  0.7546771E-02  0.2534250E+00
         21   -1    0    0  503  502  0.00000000000E+00  0.00000000000E+00  0.10824712428E+01  0.10824712428E+01  0.00000000000E+00 0. -1.
         21   -1    0    0  501  503 -0.00000000000E+00 -0.00000000000E+00 -0.61776060700E+03  0.61776060700E+03  0.00000000000E+00 0. -1.
          5    1    1    2  501    0 -0.10161038101E+01  0.19570458940E+01 -0.61146080775E+03  0.61148284679E+03  0.47000000000E+01 0. -1.
         -5    1    1    2    0  502  0.10161038101E+01 -0.19570458940E+01 -0.52173280016E+01  0.73602314543E+01  0.47000000000E+01 0. -1.
<mgrwt>
<rscale>  2 0.51915793E+01</rscale>
<asrwt>0</asrwt>
<pdfrwt beam="1">  1       21 0.16653398E-03 0.51915793E+01</pdfrwt>
<pdfrwt beam="2">  1       21 0.95040129E-01 0.51915793E+01</pdfrwt>
<totfact> 0.25157942E+07</totfact>
</mgrwt>
</event>
<event>
 4    1  0.4144004E+006  0.6072497E+01  0.7546771E-02  0.2406083E+00
         21   -1    0    0  503  502  0.00000000000E+00  0.00000000000E+00  0.19652452470E+02  0.19652452470E+02  0.00000000000E+00 0. -1.
         21   -1    0    0  501  503 -0.00000000000E+00 -0.00000000000E+00 -0.21834912755E+01  0.21834912755E+01  0.00000000000E+00 0. -1.
          5    1    1    2  501    0 -0.21809558801E+01  0.31668038278E+01  0.46397696445E+01  0.76421644440E+01  0.47000000000E+01 0. -1.
         -5    1    1    2    0  502  0.21809558801E+01 -0.31668038278E+01  0.12829191550E+02  0.14193779301E+02  0.47000000000E+01 0. -1.
<mgrwt>
<rscale>  2 0.60724966E+01</rscale>
<asrwt>0</asrwt>
<pdfrwt beam="1">  1       21 0.30234541E-02 0.60724966E+01</pdfrwt>
<pdfrwt beam="2">  1       21 0.33592175E-03 0.60724966E+01</pdfrwt>
<totfact> 0.29942888E+09</totfact>
</mgrwt>
</event>
<event>
 4    1  0.4144004E+006  0.8031820E+01  0.7546771E-02  0.2208041E+00
         21   -1    0    0  501  502  0.00000000000E+00  0.00000000000E+00  0.61972217850E+01  0.61972217850E+01  0.00000000000E+00 0.  1.
         21   -1    0    0  502  503 -0.00000000000E+00 -0.00000000000E+00 -0.22129264414E+02  0.22129264414E+02  0.00000000000E+00 0. -1.
          5    1    1    2  501    0 -0.44905080681E+00 -0.64975759214E+01  0.23411189233E+01  0.83660610382E+01  0.47000000000E+01 0.  1.
         -5    1    1    2    0  503  0.44905080681E+00  0.64975759214E+01 -0.18273161552E+02  0.19960425160E+02  0.47000000000E+01 0. -1.
<mgrwt>
<rscale>  2 0.80318204E+01</rscale>
<asrwt>0</asrwt>
<pdfrwt beam="1">  1       21 0.95341874E-03 0.80318204E+01</pdfrwt>
<pdfrwt beam="2">  1       21 0.34045022E-02 0.80318204E+01</pdfrwt>
<totfact> 0.71778163E+08</totfact>
</mgrwt>
</event>
<event>
 4    1  0.4144004E+006  0.6342648E+01  0.7546771E-02  0.2372852E+00
         21   -1    0    0  501  502  0.00000000000E+00  0.00000000000E+00  0.30947926501E+00  0.30947926501E+00  0.00000000000E+00 0.  1.
         21   -1    0    0  502  503 -0.00000000000E+00 -0.00000000000E+00 -0.13441837080E+03  0.13441837080E+03  0.00000000000E+00 0. -1.
          5    1    1    2  501    0 -0.31268914001E+01 -0.28916670561E+01 -0.54827345860E+02  0.55192998127E+02  0.47000000000E+01 0.  1.
         -5    1    1    2    0  503  0.31268914001E+01  0.28916670561E+01 -0.79281545674E+02  0.79534851938E+02  0.47000000000E+01 0.  1.
<mgrwt>
<rscale>  2 0.63426484E+01</rscale>
<asrwt>0</asrwt>
<pdfrwt beam="1">  1       21 0.47612297E-04 0.63426484E+01</pdfrwt>
<pdfrwt beam="2">  1       21 0.20679705E-01 0.63426484E+01</pdfrwt>
<totfact> 0.23277679E+09</totfact>
</mgrwt>
</event>
<event>
 4    1  0.4144004E+006  0.1055509E+02  0.7546771E-02  0.2044708E+00
         21   -1    0    0  501  502  0.00000000000E+00  0.00000000000E+00  0.12585932711E+03  0.12585932711E+03  0.00000000000E+00 0. -1.
         21   -1    0    0  502  503 -0.00000000000E+00 -0.00000000000E+00 -0.91865149408E+00  0.91865149408E+00  0.00000000000E+00 0.  1.
          5    1    1    2  501    0 -0.12070254786E+01 -0.93735262042E+01  0.74567570267E+02  0.75310905184E+02  0.47000000000E+01 0. -1.
         -5    1    1    2    0  503  0.12070254786E+01  0.93735262042E+01  0.50373105350E+02  0.51467073422E+02  0.47000000000E+01 0.  1.
<mgrwt>
<rscale>  2 0.10555089E+02</rscale>
<asrwt>0</asrwt>
<pdfrwt beam="1">  1       21 0.19362960E-01 0.10555089E+02</pdfrwt>
<pdfrwt beam="2">  1       21 0.14133110E-03 0.10555089E+02</pdfrwt>
<totfact> 0.81829897E+08</totfact>
</mgrwt>
</event>
<event>
 4    1  0.4144004E+006  0.4795996E+01  0.7546771E-02  0.2604668E+00
         21   -1    0    0  501  502  0.00000000000E+00  0.00000000000E+00  0.18924156398E+01  0.18924156398E+01  0.00000000000E+00 0. -1.
         21   -1    0    0  502  503 -0.00000000000E+00 -0.00000000000E+00 -0.14655881248E+02  0.14655881248E+02  0.00000000000E+00 0. -1.
          5    1    1    2  501    0  0.14159554023E+00 -0.94420853952E+00 -0.29635325242E+01  0.56377392707E+01  0.47000000000E+01 0. -1.
         -5    1    1    2    0  503 -0.14159554023E+00  0.94420853952E+00 -0.97999330840E+01  0.10910557617E+02  0.47000000000E+01 0. -1.
<mgrwt>
<rscale>  2 0.47959961E+01</rscale>
<asrwt>0</asrwt>
<pdfrwt beam="1">  1       21 0.29114087E-03 0.47959961E+01</pdfrwt>
<pdfrwt beam="2">  1       21 0.22547510E-02 0.47959961E+01</pdfrwt>
<totfact> 0.44097368E+09</totfact>
</mgrwt>
</event>
<event>
 4    1  0.4144004E+006  0.8011861E+01  0.7546771E-02  0.2209653E+00
         21   -1    0    0  501  502  0.00000000000E+00  0.00000000000E+00  0.23446217986E+02  0.23446217986E+02  0.00000000000E+00 0. -1.
         21   -1    0    0  502  503 -0.00000000000E+00 -0.00000000000E+00 -0.36557579011E+01  0.36557579011E+01  0.00000000000E+00 0.  1.
          5    1    1    2  501    0 -0.18720297313E+01 -0.62125218369E+01  0.16685781668E+02  0.18509598395E+02  0.47000000000E+01 0. -1.
         -5    1    1    2    0  503  0.18720297313E+01  0.62125218369E+01  0.31046784170E+01  0.85923774918E+01  0.47000000000E+01 0.  1.
<mgrwt>
<rscale>  2 0.80118614E+01</rscale>
<asrwt>0</asrwt>
<pdfrwt beam="1">  1       21 0.36071104E-02 0.80118614E+01</pdfrwt>
<pdfrwt beam="2">  1       21 0.56242431E-03 0.80118614E+01</pdfrwt>
<totfact> 0.13941928E+09</totfact>
</mgrwt>
</event>
<event>
 4    1  0.4144004E+006  0.6419653E+01  0.7546771E-02  0.2363808E+00
         21   -1    0    0  503  502  0.00000000000E+00  0.00000000000E+00  0.90797136265E+03  0.90797136265E+03  0.00000000000E+00 0. -1.
         21   -1    0    0  501  503 -0.00000000000E+00 -0.00000000000E+00 -0.75066188253E-01  0.75066188253E-01  0.00000000000E+00 0.  1.
          5    1    1    2  501    0  0.43705726127E+01  0.14157247368E+00  0.73942241530E+03  0.73945028243E+03  0.47000000000E+01 0. -1.
         -5    1    1    2    0  502 -0.43705726127E+01 -0.14157247368E+00  0.16847388116E+03  0.16859614640E+03  0.47000000000E+01 0. -1.
<mgrwt>
<rscale>  2 0.64196532E+01</rscale>
<asrwt>0</asrwt>
<pdfrwt beam="1">  1       21 0.13967911E+00 0.64196532E+01</pdfrwt>
<pdfrwt beam="2">  1       21 0.11549372E-04 0.64196532E+01</pdfrwt>
<totfact> 0.45473454E+08</totfact>
</mgrwt>
</event>
<event>
 4    1  0.4144004E+006  0.9062787E+01  0.7546771E-02  0.2132609E+00
         21   -1    0    0  503  502  0.00000000000E+00  0.00000000000E+00  0.51881163170E+03  0.51881163170E+03  0.00000000000E+00 0. -1.
         21   -1    0    0  501  503 -0.00000000000E+00 -0.00000000000E+00 -0.27680165040E+00  0.27680165040E+00  0.00000000000E+00 0.  1.
          5    1    1    2  501    0 -0.68913784201E+01 -0.35430233393E+01  0.89455869828E+02  0.89913774014E+02  0.47000000000E+01 0.  1.
         -5    1    1    2    0  502  0.68913784201E+01  0.35430233393E+01  0.42907896022E+03  0.42917465933E+03  0.47000000000E+01 0. -1.
<mgrwt>
<rscale>  2 0.90627871E+01</rscale>
<asrwt>0</asrwt>
<pdfrwt beam="1">  1       21 0.79816396E-01 0.90627871E+01</pdfrwt>
<pdfrwt beam="2">  1       21 0.42585284E-04 0.90627871E+01</pdfrwt>
<totfact> 0.30234349E+08</totfact>
</mgrwt>
</event>
<event>
 4    1  0.4144004E+006  0.4709767E+01  0.7546771E-02  0.2621368E+00
         21   -1    0    0  501  502  0.00000000000E+00  0.00000000000E+00  0.89053280701E+02  0.89053280701E+02  0.00000000000E+00 0. -1.
         21   -1    0    0  502  503 -0.00000000000E+00 -0.00000000000E+00 -0.10192179177E+01  0.10192179177E+01  0.00000000000E+00 0. -1.
          5    1    1    2  501    0 -0.14745386478E+00  0.26488468621E+00  0.83165187464E+02  0.83298441236E+02  0.47000000000E+01 0. -1.
         -5    1    1    2    0  503  0.14745386478E+00 -0.26488468621E+00  0.48688753195E+01  0.67740573821E+01  0.47000000000E+01 0. -1.
<mgrwt>
<rscale>  2 0.47097671E+01</rscale>
<asrwt>0</asrwt>
<pdfrwt beam="1">  1       21 0.13700499E-01 0.47097671E+01</pdfrwt>
<pdfrwt beam="2">  1       21 0.15680283E-03 0.47097671E+01</pdfrwt>
<totfact> 0.70419211E+08</totfact>
</mgrwt>
</event>
<event>
 4    1  0.4144004E+006  0.6865742E+01  0.7546771E-02  0.2314745E+00
         21   -1    0    0  501  502  0.00000000000E+00  0.00000000000E+00  0.16241395553E+00  0.16241395553E+00  0.00000000000E+00 0. -1.
         21   -1    0    0  502  503 -0.00000000000E+00 -0.00000000000E+00 -0.33066789876E+03  0.33066789876E+03  0.00000000000E+00 0.  1.
          5    1    1    2  501    0 -0.48679647891E+01 -0.11624701391E+01 -0.22309430108E+03  0.22319992293E+03  0.47000000000E+01 0. -1.
         -5    1    1    2    0  503  0.48679647891E+01  0.11624701391E+01 -0.10741118372E+03  0.10763038979E+03  0.47000000000E+01 0. -1.
<mgrwt>
<rscale>  2 0.68657423E+01</rscale>
<asrwt>0</asrwt>
<pdfrwt beam="1">  1       21 0.24986893E-04 0.68657423E+01</pdfrwt>
<pdfrwt beam="2">  1       21 0.50871718E-01 0.68657423E+01</pdfrwt>
<totfact> 0.12495151E+09</totfact>
</mgrwt>
</event>
<event>
 4    1  0.4144004E+006  0.4998991E+01  0.7546771E-02  0.2567333E+00
         21   -1    0    0  501  502  0.00000000000E+00  0.00000000000E+00  0.35941417177E+01  0.35941417177E+01  0.00000000000E+00 0.  1.
         21   -1    0    0  502  503 -0.00000000000E+00 -0.00000000000E+00 -0.10720897686E+02  0.10720897686E+02  0.00000000000E+00 0.  1.
          5    1    1    2  501    0 -0.10807484145E+01 -0.13160152444E+01  0.67987571154E+00  0.50450118178E+01  0.47000000000E+01 0.  1.
         -5    1    1    2    0  503  0.10807484145E+01  0.13160152444E+01 -0.78066316801E+01  0.92700275862E+01  0.47000000000E+01 0.  1.
<mgrwt>
<rscale>  2 0.49989912E+01</rscale>
<asrwt>0</asrwt>
<pdfrwt beam="1">  1       21 0.55294488E-03 0.49989912E+01</pdfrwt>
<pdfrwt beam="2">  1       21 0.16493689E-02 0.49989912E+01</pdfrwt>
<totfact> 0.29870062E+09</totfact>
</mgrwt>
</event>
<event>
 4    1  0.4144004E+006  0.6546621E+01  0.7546771E-02  0.2349282E+00
         21   -1    0    0  503  502  0.00000000000E+00  0.00000000000E+00  0.81020725298E+01  0.81020725298E+01  0.00000000000E+00 0. -1.
         21   -1    0    0  501  503 -0.00000000000E+00 -0.00000000000E+00 -0.59720373014E+01  0.59720373014E+01  0.00000000000E+00 0. -1.
          5    1    1    2  501    0  0.43230437075E+01 -0.14420590659E+01 -0.13134728937E+01  0.66770841158E+01  0.47000000000E+01 0. -1.
         -5    1    1    2    0  502 -0.43230437075E+01  0.14420590659E+01  0.34435081222E+01  0.73970257154E+01  0.47000000000E+01 0. -1.
<mgrwt>
<rscale>  2 0.65466206E+01</rscale>
<asrwt>0</asrwt>
<pdfrwt beam="1">  1       21 0.12464727E-02 0.65466206E+01</pdfrwt>
<pdfrwt beam="2">  1       21 0.91877497E-03 0.65466206E+01</pdfrwt>
<totfact> 0.28079895E+09</totfact>
</mgrwt>
</event>
<event>
 4    1  0.4144004E+006  0.5391379E+01  0.7546771E-02  0.2502080E+00
         21   -1    0    0  503  502  0.00000000000E+00  0.00000000000E+00  0.79339431377E-01  0.79339431377E-01  0.00000000000E+00 0.  1.
         21   -1    0    0  501  503 -0.00000000000E+00 -0.00000000000E+00 -0.41714862494E+03  0.41714862494E+03  0.00000000000E+00 0.  1.
          5    1    1    2  501    0  0.25462217389E+01 -0.70265748447E+00 -0.13574466150E+03  0.13585168419E+03  0.47000000000E+01 0.  1.
         -5    1    1    2    0  502 -0.25462217389E+01  0.70265748447E+00 -0.28132462401E+03  0.28137628017E+03  0.47000000000E+01 0.  1.
<mgrwt>
<rscale>  2 0.53913795E+01</rscale>
<asrwt>0</asrwt>
<pdfrwt beam="1">  1       21 0.12206014E-04 0.53913795E+01</pdfrwt>
<pdfrwt beam="2">  1       21 0.64176987E-01 0.53913795E+01</pdfrwt>
<totfact> 0.17738679E+09</totfact>
</mgrwt>
</event>
<event>
 4    1  0.4144004E+006  0.7524458E+01  0.7546771E-02  0.2251158E+00
         21   -1    0    0  501  502  0.00000000000E+00  0.00000000000E+00  0.11825235502E+04  0.11825235502E+04  0.00000000000E+00 0.  1.
         21   -1    0    0  502  503 -0.00000000000E+00 -0.00000000000E+00 -0.50453647860E-01  0.50453647860E-01  0.00000000000E+00 0. -1.
          5    1    1    2  501    0 -0.31378854498E+01 -0.49680123297E+01  0.72481975406E+03  0.72485880925E+03  0.47000000000E+01 0.  1.
         -5    1    1    2    0  503  0.31378854498E+01  0.49680123297E+01  0.45765334246E+03  0.45771519456E+03  0.47000000000E+01 0. -1.
<mgrwt>
<rscale>  2 0.75244582E+01</rscale>
<asrwt>0</asrwt>
<pdfrwt beam="1">  1       21 0.18190451E+00 0.75244582E+01</pdfrwt>
<pdfrwt beam="2">  1       21 0.77630468E-05 0.75244582E+01</pdfrwt>
<totfact> 0.47337734E+08</totfact>
</mgrwt>
</event>
<event>
 4    1  0.4144004E+006  0.6125452E+01  0.7546771E-02  0.2399376E+00
         21   -1    0    0  501  502  0.00000000000E+00  0.00000000000E+00  0.12919185282E+01  0.12919185282E+01  0.00000000000E+00 0. -1.
         21   -1    0    0  502  503 -0.00000000000E+00 -0.00000000000E+00 -0.10814497992E+03  0.10814497992E+03  0.00000000000E+00 0.  1.
          5    1    1    2  501    0  0.12457434051E+01 -0.37254907279E+01 -0.66288485396E+01  0.90256739779E+01  0.47000000000E+01 0. -1.
         -5    1    1    2    0  503 -0.12457434051E+01  0.37254907279E+01 -0.10022421286E+03  0.10041122448E+03  0.47000000000E+01 0.  1.
<mgrwt>
<rscale>  2 0.61254516E+01</rscale>
<asrwt>0</asrwt>
<pdfrwt beam="1">  1       21 0.19875672E-03 0.61254516E+01</pdfrwt>
<pdfrwt beam="2">  1       21 0.16637687E-01 0.61254516E+01</pdfrwt>
<totfact> 0.46860010E+08</totfact>
</mgrwt>
</event>
<event>
 4    1  0.4144004E+006  0.7813459E+01  0.7546771E-02  0.2226043E+00
         21   -1    0    0  501  502  0.00000000000E+00  0.00000000000E+00  0.49257072584E+03  0.49257072584E+03  0.00000000000E+00 0.  1.
         21   -1    0    0  502  503 -0.00000000000E+00 -0.00000000000E+00 -0.12402032564E+00  0.12402032564E+00  0.00000000000E+00 0. -1.
          5    1    1    2  501    0  0.25615359095E+01 -0.56919834994E+01  0.24002776308E+03  0.24015490250E+03  0.47000000000E+01 0.  1.
         -5    1    1    2    0  503 -0.25615359095E+01  0.56919834994E+01  0.25241894243E+03  0.25253984367E+03  0.47000000000E+01 0. -1.
<mgrwt>
<rscale>  2 0.78134591E+01</rscale>
<asrwt>0</asrwt>
<pdfrwt beam="1">  1       21 0.75778545E-01 0.78134591E+01</pdfrwt>
<pdfrwt beam="2">  1       21 0.19080444E-04 0.78134591E+01</pdfrwt>
<totfact> 0.91668468E+08</totfact>
</mgrwt>
</event>
<event>
 4    1  0.4144004E+006  0.5335034E+01  0.7546771E-02  0.2510944E+00
         21   -1    0    0  503  502  0.00000000000E+00  0.00000000000E+00  0.60385038720E+02  0.60385038720E+02  0.00000000000E+00 0. -1.
         21   -1    0    0  501  503 -0.00000000000E+00 -0.00000000000E+00 -0.14295751022E+01  0.14295751022E+01  0.00000000000E+00 0. -1.
          5    1    1    2  501    0  0.14693783872E+01 -0.20526838082E+01  0.41736204779E+01  0.67736025537E+01  0.47000000000E+01 0. -1.
         -5    1    1    2    0  502 -0.14693783872E+01  0.20526838082E+01  0.54781843140E+02  0.55041011269E+02  0.47000000000E+01 0. -1.
<mgrwt>
<rscale>  2 0.53350336E+01</rscale>
<asrwt>0</asrwt>
<pdfrwt beam="1">  1       21 0.92900040E-02 0.53350336E+01</pdfrwt>
<pdfrwt beam="2">  1       21 0.21993468E-03 0.53350336E+01</pdfrwt>
<totfact> 0.90460392E+08</totfact>
</mgrwt>
</event>
<event>
 4    1  0.4144004E+006  0.7967769E+01  0.7546771E-02  0.2213239E+00
         21   -1    0    0  501  502  0.00000000000E+00  0.00000000000E+00  0.28918328921E+03  0.28918328921E+03  0.00000000000E+00 0.  1.
         21   -1    0    0  502  503 -0.00000000000E+00 -0.00000000000E+00 -0.28398756938E+00  0.28398756938E+00  0.00000000000E+00 0. -1.
          5    1    1    2  501    0 -0.80620569074E+00 -0.63832107283E+01  0.21340148665E+03  0.21355018111E+03  0.47000000000E+01 0.  1.
         -5    1    1    2    0  503  0.80620569074E+00  0.63832107283E+01  0.75497814985E+02  0.75917095665E+02  0.47000000000E+01 0. -1.
<mgrwt>
<rscale>  2 0.79677692E+01</rscale>
<asrwt>0</asrwt>
<pdfrwt beam="1">  1       21 0.44489501E-01 0.79677692E+01</pdfrwt>
<pdfrwt beam="2">  1       21 0.43690627E-04 0.79677692E+01</pdfrwt>
<totfact> 0.82532085E+08</totfact>
</mgrwt>
</event>
<event>
 4    1  0.4144004E+006  0.5762070E+01  0.7546771E-02  0.2447459E+00
         21   -1    0    0  503  502  0.00000000000E+00  0.00000000000E+00  0.13505972809E+01  0.13505972809E+01  0.00000000000E+00 0. -1.
         21   -1    0    0  501  503 -0.00000000000E+00 -0.00000000000E+00 -0.47855119680E+02  0.47855119680E+02  0.00000000000E+00 0. -1.
          5    1    1    2  501    0 -0.28689890420E+00  0.33210143926E+01 -0.40409259472E+02  0.40818007039E+02  0.47000000000E+01 0. -1.
         -5    1    1    2    0  502  0.28689890420E+00 -0.33210143926E+01 -0.60952629264E+01  0.83877099210E+01  0.47000000000E+01 0. -1.
<mgrwt>
<rscale>  2 0.57620697E+01</rscale>
<asrwt>0</asrwt>
<pdfrwt beam="1">  1       21 0.20778421E-03 0.57620697E+01</pdfrwt>
<pdfrwt beam="2">  1       21 0.73623255E-02 0.57620697E+01</pdfrwt>
<totfact> 0.14819869E+09</totfact>
</mgrwt>
</event>
<event>
 4    1  0.4144004E+006  0.6133393E+01  0.7546771E-02  0.2398379E+00
         21   -1    0    0  503  502  0.00000000000E+00  0.00000000000E+00  0.14045017335E+02  0.14045017335E+02  0.00000000000E+00 0. -1.
         21   -1    0    0  501  503 -0.00000000000E+00 -0.00000000000E+00 -0.44857477207E+01  0.44857477207E+01  0.00000000000E+00 0.  1.
          5    1    1    2  501    0 -0.39406062590E+01 -0.11724339728E-01 -0.11015371103E+01  0.62315246252E+01  0.47000000000E+01 0. -1.
         -5    1    1    2    0  502  0.39406062590E+01  0.11724339728E-01  0.10660806724E+02  0.12299240430E+02  0.47000000000E+01 0. -1.
<mgrwt>
<rscale>  2 0.61333934E+01</rscale>
<asrwt>0</asrwt>
<pdfrwt beam="1">  1       21 0.21607719E-02 0.61333934E+01</pdfrwt>
<pdfrwt beam="2">  1       21 0.69011504E-03 0.61333934E+01</pdfrwt>
<totfact> 0.18067459E+09</totfact>
</mgrwt>
</event>
<event>
 4    1  0.4144004E+006  0.9734440E+01  0.7546771E-02  0.2090424E+00
         21   -1    0    0  503  502  0.00000000000E+00  0.00000000000E+00  0.37071089687E+01  0.37071089687E+01  0.00000000000E+00 0. -1.
         21   -1    0    0  501  503 -0.00000000000E+00 -0.00000000000E+00 -0.33774961418E+02  0.33774961418E+02  0.00000000000E+00 0.  1.
          5    1    1    2  501    0  0.34144683273E+01 -0.78109360613E+01 -0.24275775855E+02  0.26154781771E+02  0.47000000000E+01 0.  1.
         -5    1    1    2    0  502 -0.34144683273E+01  0.78109360613E+01 -0.57920765939E+01  0.11327288616E+02  0.47000000000E+01 0. -1.
<mgrwt>
<rscale>  2 0.97344397E+01</rscale>
<asrwt>0</asrwt>
<pdfrwt beam="1">  1       21 0.57032448E-03 0.97344397E+01</pdfrwt>
<pdfrwt beam="2">  1       21 0.51961477E-02 0.97344397E+01</pdfrwt>
<totfact> 0.89065816E+08</totfact>
</mgrwt>
</event>
<event>
 4    1  0.4144004E+006  0.5561573E+01  0.7546771E-02  0.2476236E+00
         21   -1    0    0  503  502  0.00000000000E+00  0.00000000000E+00  0.36005580170E+00  0.36005580170E+00  0.00000000000E+00 0.  1.
         21   -1    0    0  501  503 -0.00000000000E+00 -0.00000000000E+00 -0.13079241032E+03  0.13079241032E+03  0.00000000000E+00 0.  1.
          5    1    1    2  501    0 -0.29623619629E+01  0.25593931418E+00 -0.10363205455E+03  0.10378118242E+03  0.47000000000E+01 0.  1.
         -5    1    1    2    0  502  0.29623619629E+01 -0.25593931418E+00 -0.26800299972E+02  0.27371283710E+02  0.47000000000E+01 0.  1.
<mgrwt>
<rscale>  2 0.55615729E+01</rscale>
<asrwt>0</asrwt>
<pdfrwt beam="1">  1       21 0.55393204E-04 0.55615729E+01</pdfrwt>
<pdfrwt beam="2">  1       21 0.20121908E-01 0.55615729E+01</pdfrwt>
<totfact> 0.17852963E+09</totfact>
</mgrwt>
</event>
<event>
 4    1  0.4144004E+006  0.4794890E+01  0.7546771E-02  0.2604879E+00
         21   -1    0    0  503  502  0.00000000000E+00  0.00000000000E+00  0.43852699105E+00  0.43852699105E+00  0.00000000000E+00 0.  1.
         21   -1    0    0  501  503 -0.00000000000E+00 -0.00000000000E+00 -0.26944408745E+03  0.26944408745E+03  0.00000000000E+00 0.  1.
          5    1    1    2  501    0 -0.45433452588E+00 -0.83339500805E+00 -0.25560631963E+03  0.25565128906E+03  0.47000000000E+01 0.  1.
         -5    1    1    2    0  502  0.45433452588E+00  0.83339500805E+00 -0.13399240833E+02  0.14231325377E+02  0.47000000000E+01 0.  1.
<mgrwt>
<rscale>  2 0.47948897E+01</rscale>
<asrwt>0</asrwt>
<pdfrwt beam="1">  1       21 0.67465519E-04 0.47948897E+01</pdfrwt>
<pdfrwt beam="2">  1       21 0.41453042E-01 0.47948897E+01</pdfrwt>
<totfact> 0.36545583E+08</totfact>
</mgrwt>
</event>
<event>
 4    1  0.4144004E+006  0.5063288E+01  0.7546771E-02  0.2556048E+00
         21   -1    0    0  503  502  0.00000000000E+00  0.00000000000E+00  0.96931970479E+00  0.96931970479E+00  0.00000000000E+00 0. -1.
         21   -1    0    0  501  503 -0.00000000000E+00 -0.00000000000E+00 -0.28280702637E+02  0.28280702637E+02  0.00000000000E+00 0. -1.
          5    1    1    2  501    0 -0.13197855573E+01 -0.13435215350E+01 -0.99329881784E+01  0.11149042030E+02  0.47000000000E+01 0. -1.
         -5    1    1    2    0  502  0.13197855573E+01  0.13435215350E+01 -0.17378394754E+02  0.18100980312E+02  0.47000000000E+01 0. -1.
<mgrwt>
<rscale>  2 0.50632879E+01</rscale>
<asrwt>0</asrwt>
<pdfrwt beam="1">  1       21 0.14912609E-03 0.50632879E+01</pdfrwt>
<pdfrwt beam="2">  1       21 0.43508778E-02 0.50632879E+01</pdfrwt>
<totfact> 0.44702202E+09</totfact>
</mgrwt>
</event>
<event>
 4    1  0.4144004E+006  0.1166609E+02  0.7546771E-02  0.1990970E+00
         21   -1    0    0  503  502  0.00000000000E+00  0.00000000000E+00  0.21626945975E+01  0.21626945975E+01  0.00000000000E+00 0. -1.
         21   -1    0    0  501  503 -0.00000000000E+00 -0.00000000000E+00 -0.92349214111E+02  0.92349214111E+02  0.00000000000E+00 0.  1.
          5    1    1    2  501    0 -0.10642744838E+02 -0.86005000564E+00 -0.71765392717E+02  0.72707422561E+02  0.47000000000E+01 0.  1.
         -5    1    1    2    0  502  0.10642744838E+02  0.86005000564E+00 -0.18421126797E+02  0.21804486148E+02  0.47000000000E+01 0. -1.
<mgrwt>
<rscale>  2 0.11666092E+02</rscale>
<asrwt>0</asrwt>
<pdfrwt beam="1">  1       21 0.33272236E-03 0.11666092E+02</pdfrwt>
<pdfrwt beam="2">  1       21 0.14207567E-01 0.11666092E+02</pdfrwt>
<totfact> 0.43084414E+08</totfact>
</mgrwt>
</event>
<event>
 4    1  0.4144004E+006  0.5012245E+01  0.7546771E-02  0.2564986E+00
         21   -1    0    0  501  502  0.00000000000E+00  0.00000000000E+00  0.53858955854E+00  0.53858955854E+00  0.00000000000E+00 0.  1.
         21   -1    0    0  502  503 -0.00000000000E+00 -0.00000000000E+00 -0.27651311878E+03  0.27651311878E+03  0.00000000000E+00 0.  1.
          5    1    1    2  501    0 -0.10240718210E-01  0.17414064123E+01 -0.11684697628E+02  0.12714352513E+02  0.47000000000E+01 0.  1.
         -5    1    1    2    0  503  0.10240718210E-01 -0.17414064123E+01 -0.26428983160E+03  0.26433735583E+03  0.47000000000E+01 0.  1.
<mgrwt>
<rscale>  2 0.50122451E+01</rscale>
<asrwt>0</asrwt>
<pdfrwt beam="1">  1       21 0.82860107E-04 0.50122451E+01</pdfrwt>
<pdfrwt beam="2">  1       21 0.42540390E-01 0.50122451E+01</pdfrwt>
<totfact> 0.27593497E+08</totfact>
</mgrwt>
</event>
<event>
 4    1  0.4144004E+006  0.5290795E+01  0.7546771E-02  0.2518016E+00
         21   -1    0    0  503  502  0.00000000000E+00  0.00000000000E+00  0.39792914674E-01  0.39792914674E-01  0.00000000000E+00 0. -1.
         21   -1    0    0  501  503 -0.00000000000E+00 -0.00000000000E+00 -0.13782899066E+04  0.13782899066E+04  0.00000000000E+00 0. -1.
          5    1    1    2  501    0 -0.19496932351E+01  0.14495551372E+01 -0.11713522411E+04  0.11713641899E+04  0.47000000000E+01 0. -1.
         -5    1    1    2    0  502  0.19496932351E+01 -0.14495551372E+01 -0.20689787258E+03  0.20696550967E+03  0.47000000000E+01 0. -1.
<mgrwt>
<rscale>  2 0.52907952E+01</rscale>
<asrwt>0</asrwt>
<pdfrwt beam="1">  1       21 0.61234937E-05 0.52907952E+01</pdfrwt>
<pdfrwt beam="2">  1       21 0.21199242E+00 0.52907952E+01</pdfrwt>
<totfact> 0.37960795E+08</totfact>
</mgrwt>
</event>
<event>
 4    1  0.4144004E+006  0.7561585E+01  0.7546771E-02  0.2247845E+00
         21   -1    0    0  503  502  0.00000000000E+00  0.00000000000E+00  0.22573385912E+00  0.22573385912E+00  0.00000000000E+00 0.  1.
         21   -1    0    0  501  503 -0.00000000000E+00 -0.00000000000E+00 -0.33960987422E+03  0.33960987422E+03  0.00000000000E+00 0. -1.
          5    1    1    2  501    0 -0.46393530992E+01  0.36829290469E+01 -0.25535405765E+03  0.25546599053E+03  0.47000000000E+01 0. -1.
         -5    1    1    2    0  502  0.46393530992E+01 -0.36829290469E+01 -0.84030082718E+02  0.84369617548E+02  0.47000000000E+01 0.  1.
<mgrwt>
<rscale>  2 0.75615847E+01</rscale>
<asrwt>0</asrwt>
<pdfrwt beam="1">  1       21 0.34728407E-04 0.75615847E+01</pdfrwt>
<pdfrwt beam="2">  1       21 0.52247492E-01 0.75615847E+01</pdfrwt>
<totfact> 0.81314422E+08</totfact>
</mgrwt>
</event>
<event>
 4    1  0.4144004E+006  0.4946993E+01  0.7546771E-02  0.2576644E+00
         21   -1    0    0  501  502  0.00000000000E+00  0.00000000000E+00  0.56364619738E+02  0.56364619738E+02  0.00000000000E+00 0. -1.
         21   -1    0    0  502  503 -0.00000000000E+00 -0.00000000000E+00 -0.20740820646E+02  0.20740820646E+02  0.00000000000E+00 0.  1.
          5    1    1    2  501    0  0.55001526390E+00 -0.14422994976E+01  0.55958956070E+02  0.56177197412E+02  0.47000000000E+01 0. -1.
         -5    1    1    2    0  503 -0.55001526390E+00  0.14422994976E+01 -0.20335156977E+02  0.20928242973E+02  0.47000000000E+01 0.  1.
<mgrwt>
<rscale>  2 0.49469935E+01</rscale>
<asrwt>0</asrwt>
<pdfrwt beam="1">  1       21 0.86714799E-02 0.49469935E+01</pdfrwt>
<pdfrwt beam="2">  1       21 0.31908955E-02 0.49469935E+01</pdfrwt>
<totfact> 0.22809937E+07</totfact>
</mgrwt>
</event>
<event>
 4    1  0.4144004E+006  0.6988080E+01  0.7546771E-02  0.2302197E+00
         21   -1    0    0  501  502  0.00000000000E+00  0.00000000000E+00  0.60412774797E+01  0.60412774797E+01  0.00000000000E+00 0.  1.
         21   -1    0    0  502  503 -0.00000000000E+00 -0.00000000000E+00 -0.81016186094E+01  0.81016186094E+01  0.00000000000E+00 0.  1.
          5    1    1    2  501    0  0.21234151211E+01 -0.47153340325E+01 -0.69362489027E+00  0.70224199748E+01  0.47000000000E+01 0.  1.
         -5    1    1    2    0  503 -0.21234151211E+01  0.47153340325E+01 -0.13667162394E+01  0.71204761143E+01  0.47000000000E+01 0.  1.
<mgrwt>
<rscale>  2 0.69880803E+01</rscale>
<asrwt>0</asrwt>
<pdfrwt beam="1">  1       21 0.92942731E-03 0.69880803E+01</pdfrwt>
<pdfrwt beam="2">  1       21 0.12464029E-02 0.69880803E+01</pdfrwt>
<totfact> 0.29119704E+09</totfact>
</mgrwt>
</event>
<event>
 4    1  0.4144004E+006  0.4973089E+01  0.7546771E-02  0.2571950E+00
         21   -1    0    0  503  502  0.00000000000E+00  0.00000000000E+00  0.15177386035E+01  0.15177386035E+01  0.00000000000E+00 0.  1.
         21   -1    0    0  501  503 -0.00000000000E+00 -0.00000000000E+00 -0.58067605998E+02  0.58067605998E+02  0.00000000000E+00 0.  1.
          5    1    1    2  501    0 -0.11411627797E+00  0.16212942610E+01 -0.53543933625E+02  0.53774384661E+02  0.47000000000E+01 0.  1.
         -5    1    1    2    0  502  0.11411627797E+00 -0.16212942610E+01 -0.30059337693E+01  0.58109599406E+01  0.47000000000E+01 0.  1.
<mgrwt>
<rscale>  2 0.49730893E+01</rscale>
<asrwt>0</asrwt>
<pdfrwt beam="1">  1       21 0.23349832E-03 0.49730893E+01</pdfrwt>
<pdfrwt beam="2">  1       21 0.89334752E-02 0.49730893E+01</pdfrwt>
<totfact> 0.83080368E+08</totfact>
</mgrwt>
</event>
<event>
 4    1  0.4144004E+006  0.5620509E+01  0.7546771E-02  0.2467597E+00
         21   -1    0    0  501  502  0.00000000000E+00  0.00000000000E+00  0.71301394925E+02  0.71301394925E+02  0.00000000000E+00 0.  1.
         21   -1    0    0  502  503 -0.00000000000E+00 -0.00000000000E+00 -0.23716962662E+01  0.23716962662E+01  0.00000000000E+00 0.  1.
          5    1    1    2  501    0  0.29926842395E+01 -0.73753655092E+00  0.67683011062E+02  0.67915978279E+02  0.47000000000E+01 0.  1.
         -5    1    1    2    0  503 -0.29926842395E+01  0.73753655092E+00  0.12466875963E+01  0.57571129122E+01  0.47000000000E+01 0.  1.
<mgrwt>
<rscale>  2 0.56205088E+01</rscale>
<asrwt>0</asrwt>
<pdfrwt beam="1">  1       21 0.10969444E-01 0.56205088E+01</pdfrwt>
<pdfrwt beam="2">  1       21 0.36487640E-03 0.56205088E+01</pdfrwt>
<totfact> 0.36721277E+08</totfact>
</mgrwt>
</event>
<event>
 4    1  0.4144004E+006  0.6696974E+01  0.7546771E-02  0.2332672E+00
         21   -1    0    0  503  502  0.00000000000E+00  0.00000000000E+00  0.41340887745E+00  0.41340887745E+00  0.00000000000E+00 0.  1.
         21   -1    0    0  501  503 -0.00000000000E+00 -0.00000000000E+00 -0.13135994569E+03  0.13135994569E+03  0.00000000000E+00 0.  1.
          5    1    1    2  501    0 -0.47671985301E+01 -0.18242319519E+00 -0.92966629609E+02  0.93207530173E+02  0.47000000000E+01 0.  1.
         -5    1    1    2    0  502  0.47671985301E+01  0.18242319519E+00 -0.37979907199E+02  0.38565824391E+02  0.47000000000E+01 0.  1.
<mgrwt>
<rscale>  2 0.66969739E+01</rscale>
<asrwt>0</asrwt>
<pdfrwt beam="1">  1       21 0.63601389E-04 0.66969739E+01</pdfrwt>
<pdfrwt beam="2">  1       21 0.20209215E-01 0.66969739E+01</pdfrwt>
<totfact> 0.17077060E+09</totfact>
</mgrwt>
</event>
<event>
 4    1  0.4144004E+006  0.6519303E+01  0.7546771E-02  0.2352368E+00
         21   -1    0    0  503  502  0.00000000000E+00  0.00000000000E+00  0.78354361829E+02  0.78354361829E+02  0.00000000000E+00 0.  1.
         21   -1    0    0  501  503 -0.00000000000E+00 -0.00000000000E+00 -0.74728296044E+01  0.74728296044E+01  0.00000000000E+00 0. -1.
          5    1    1    2  501    0  0.37838346052E+01  0.24685839903E+01 -0.58860247092E+01  0.87833136181E+01  0.47000000000E+01 0. -1.
         -5    1    1    2    0  502 -0.37838346052E+01 -0.24685839903E+01  0.76767556934E+02  0.77043877815E+02  0.47000000000E+01 0.  1.
<mgrwt>
<rscale>  2 0.65193030E+01</rscale>
<asrwt>0</asrwt>
<pdfrwt beam="1">  1       21 0.12054517E-01 0.65193030E+01</pdfrwt>
<pdfrwt beam="2">  1       21 0.11496662E-02 0.65193030E+01</pdfrwt>
<totfact> 0.70532777E+07</totfact>
</mgrwt>
</event>
<event>
 4    1  0.4144004E+006  0.1026345E+02  0.7546771E-02  0.2060297E+00
         21   -1    0    0  501  502  0.00000000000E+00  0.00000000000E+00  0.12466787544E+03  0.12466787544E+03  0.00000000000E+00 0.  1.
         21   -1    0    0  502  503 -0.00000000000E+00 -0.00000000000E+00 -0.87592395157E+00  0.87592395157E+00  0.00000000000E+00 0. -1.
          5    1    1    2  501    0 -0.60921667035E+01  0.67921973023E+01  0.50092429760E+02  0.51133061307E+02  0.47000000000E+01 0. -1.
         -5    1    1    2    0  503  0.60921667035E+01 -0.67921973023E+01  0.73699521731E+02  0.74410738088E+02  0.47000000000E+01 0.  1.
<mgrwt>
<rscale>  2 0.10263452E+02</rscale>
<asrwt>0</asrwt>
<pdfrwt beam="1">  1       21 0.19179659E-01 0.10263452E+02</pdfrwt>
<pdfrwt beam="2">  1       21 0.13475763E-03 0.10263452E+02</pdfrwt>
<totfact> 0.87514836E+08</totfact>
</mgrwt>
</event>
<event>
 4    1  0.4144004E+006  0.9178103E+01  0.7546771E-02  0.2125020E+00
         21   -1    0    0  503  502  0.00000000000E+00  0.00000000000E+00  0.71060722756E+01  0.71060722756E+01  0.00000000000E+00 0. -1.
         21   -1    0    0  501  503 -0.00000000000E+00 -0.00000000000E+00 -0.14550575189E+02  0.14550575189E+02  0.00000000000E+00 0.  1.
          5    1    1    2  501    0  0.60030168307E+01 -0.51099285673E+01  0.93899946690E+00  0.92260121955E+01  0.47000000000E+01 0. -1.
         -5    1    1    2    0  502 -0.60030168307E+01  0.51099285673E+01 -0.83835023802E+01  0.12430635269E+02  0.47000000000E+01 0.  1.
<mgrwt>
<rscale>  2 0.91781033E+01</rscale>
<asrwt>0</asrwt>
<pdfrwt beam="1">  1       21 0.10932419E-02 0.91781033E+01</pdfrwt>
<pdfrwt beam="2">  1       21 0.22385500E-02 0.91781033E+01</pdfrwt>
<totfact> 0.11948024E+09</totfact>
</mgrwt>
</event>
<event>
 4    1  0.4144004E+006  0.5643499E+01  0.7546771E-02  0.2464269E+00
         21   -1    0    0  503  502  0.00000000000E+00  0.00000000000E+00  0.75222017025E+01  0.75222017025E+01  0.00000000000E+00 0. -1.
         21   -1    0    0  501  503 -0.00000000000E+00 -0.00000000000E+00 -0.54748750160E+01  0.54748750160E+01  0.00000000000E+00 0. -1.
          5    1    1    2  501    0 -0.29932290127E+01  0.89423890237E+00 -0.20701258283E+01  0.60111982235E+01  0.47000000000E+01 0. -1.
         -5    1    1    2    0  502  0.29932290127E+01 -0.89423890237E+00  0.41174525148E+01  0.69858784951E+01  0.47000000000E+01 0. -1.
<mgrwt>
<rscale>  2 0.56434992E+01</rscale>
<asrwt>0</asrwt>
<pdfrwt beam="1">  1       21 0.11572618E-02 0.56434992E+01</pdfrwt>
<pdfrwt beam="2">  1       21 0.84228847E-03 0.56434992E+01</pdfrwt>
<totfact> 0.30926265E+09</totfact>
</mgrwt>
</event>
<event>
 4    1  0.4144004E+006  0.6733883E+01  0.7546771E-02  0.2328689E+00
         21   -1    0    0  503  502  0.00000000000E+00  0.00000000000E+00  0.65994793289E+03  0.65994793289E+03  0.00000000000E+00 0. -1.
         21   -1    0    0  501  503 -0.00000000000E+00 -0.00000000000E+00 -0.12790516643E+00  0.12790516643E+00  0.00000000000E+00 0.  1.
          5    1    1    2  501    0  0.33894324091E+01 -0.34302960317E+01  0.10538639805E+03  0.10560131664E+03  0.47000000000E+01 0.  1.
         -5    1    1    2    0  502 -0.33894324091E+01  0.34302960317E+01  0.55443362967E+03  0.55447452141E+03  0.47000000000E+01 0. -1.
<mgrwt>
<rscale>  2 0.67338832E+01</rscale>
<asrwt>0</asrwt>
<pdfrwt beam="1">  1       21 0.10152772E+00 0.67338832E+01</pdfrwt>
<pdfrwt beam="2">  1       21 0.19678246E-04 0.67338832E+01</pdfrwt>
<totfact> 0.44828871E+08</totfact>
</mgrwt>
</event>
<event>
 4    1  0.4144004E+006  0.5882944E+01  0.7546771E-02  0.2430912E+00
         21   -1    0    0  501  502  0.00000000000E+00  0.00000000000E+00  0.42157713835E+00  0.42157713835E+00  0.00000000000E+00 0. -1.
         21   -1    0    0  502  503 -0.00000000000E+00 -0.00000000000E+00 -0.82282669513E+02  0.82282669513E+02  0.00000000000E+00 0. -1.
          5    1    1    2  501    0  0.28823353426E+00 -0.35264645507E+01 -0.38951373800E+02  0.39393128229E+02  0.47000000000E+01 0. -1.
         -5    1    1    2    0  503 -0.28823353426E+00  0.35264645507E+01 -0.42909718575E+02  0.43311118422E+02  0.47000000000E+01 0. -1.
<mgrwt>
<rscale>  2 0.58829441E+01</rscale>
<asrwt>0</asrwt>
<pdfrwt beam="1">  1       21 0.64858041E-04 0.58829441E+01</pdfrwt>
<pdfrwt beam="2">  1       21 0.12658868E-01 0.58829441E+01</pdfrwt>
<totfact> 0.31557450E+09</totfact>
</mgrwt>
</event>
<event>
 4    1  0.4144004E+006  0.1735109E+02  0.7546771E-02  0.1803792E+00
         21   -1    0    0  501  502  0.00000000000E+00  0.00000000000E+00  0.38533001606E+01  0.38533001606E+01  0.00000000000E+00 0. -1.
         21   -1    0    0  502  503 -0.00000000000E+00 -0.00000000000E+00 -0.23617887358E+03  0.23617887358E+03  0.00000000000E+00 0.  1.
          5    1    1    2  501    0  0.26994730870E+01  0.16482811634E+02 -0.17984835130E+02  0.24990288693E+02  0.47000000000E+01 0. -1.
         -5    1    1    2    0  503 -0.26994730870E+01 -0.16482811634E+02 -0.21434073829E+03  0.21504188505E+03  0.47000000000E+01 0.  1.
<mgrwt>
<rscale>  2 0.17351087E+02</rscale>
<asrwt>0</asrwt>
<pdfrwt beam="1">  1       21 0.59281542E-03 0.17351087E+02</pdfrwt>
<pdfrwt beam="2">  1       21 0.36335211E-01 0.17351087E+02</pdfrwt>
<totfact> 0.42689263E+07</totfact>
</mgrwt>
</event>
<event>
 4    1  0.4144004E+006  0.5200716E+01  0.7546771E-02  0.2532733E+00
         21   -1    0    0  501  502  0.00000000000E+00  0.00000000000E+00  0.64928772016E+01  0.64928772016E+01  0.00000000000E+00 0. -1.
         21   -1    0    0  502  503 -0.00000000000E+00 -0.00000000000E+00 -0.48967764450E+01  0.48967764450E+01  0.00000000000E+00 0. -1.
          5    1    1    2  501    0  0.11030543743E+01 -0.19340933665E+01  0.29984607787E+01  0.60031835841E+01  0.47000000000E+01 0. -1.
         -5    1    1    2    0  503 -0.11030543743E+01  0.19340933665E+01 -0.14023600221E+01  0.53864700625E+01  0.47000000000E+01 0. -1.
<mgrwt>
<rscale>  2 0.52007159E+01</rscale>
<asrwt>0</asrwt>
<pdfrwt beam="1">  1       21 0.99890418E-03 0.52007159E+01</pdfrwt>
<pdfrwt beam="2">  1       21 0.75335022E-03 0.52007159E+01</pdfrwt>
<totfact> 0.41026712E+09</totfact>
</mgrwt>
</event>
<event>
 4    1  0.4144004E+006  0.6344780E+01  0.7546771E-02  0.2372600E+00
         21   -1    0    0  503  502  0.00000000000E+00  0.00000000000E+00  0.21391070077E+00  0.21391070077E+00  0.00000000000E+00 0. -1.
         21   -1    0    0  501  503 -0.00000000000E+00 -0.00000000000E+00 -0.18827376725E+03  0.18827376725E+03  0.00000000000E+00 0.  1.
          5    1    1    2  501    0  0.78549279704E+00  0.41891811418E+01 -0.92063373498E+02  0.92281747802E+02  0.47000000000E+01 0.  1.
         -5    1    1    2    0  502 -0.78549279704E+00 -0.41891811418E+01 -0.95996483054E+02  0.96205930152E+02  0.47000000000E+01 0. -1.
<mgrwt>
<rscale>  2 0.63447803E+01</rscale>
<asrwt>0</asrwt>
<pdfrwt beam="1">  1       21 0.32909449E-04 0.63447803E+01</pdfrwt>
<pdfrwt beam="2">  1       21 0.28965098E-01 0.63447803E+01</pdfrwt>
<totfact> 0.21868235E+09</totfact>
</mgrwt>
</event>
<event>
 4    1  0.4144004E+006  0.6613041E+01  0.7546771E-02  0.2341868E+00
         21   -1    0    0  503  502  0.00000000000E+00  0.00000000000E+00  0.39741030075E+02  0.39741030075E+02  0.00000000000E+00 0. -1.
         21   -1    0    0  501  503 -0.00000000000E+00 -0.00000000000E+00 -0.16930457065E+01  0.16930457065E+01  0.00000000000E+00 0. -1.
          5    1    1    2  501    0  0.26158694754E+01 -0.38470171800E+01  0.67671372990E+01  0.94618423956E+01  0.47000000000E+01 0. -1.
         -5    1    1    2    0  502 -0.26158694754E+01  0.38470171800E+01  0.31280847069E+02  0.31972233386E+02  0.47000000000E+01 0. -1.
<mgrwt>
<rscale>  2 0.66130412E+01</rscale>
<asrwt>0</asrwt>
<pdfrwt beam="1">  1       21 0.61140039E-02 0.66130412E+01</pdfrwt>
<pdfrwt beam="2">  1       21 0.26046860E-03 0.66130412E+01</pdfrwt>
<totfact> 0.16098432E+09</totfact>
</mgrwt>
</event>
<event>
 4    1  0.4144004E+006  0.9829544E+01  0.7546771E-02  0.2084820E+00
         21   -1    0    0  501  502  0.00000000000E+00  0.00000000000E+00  0.15446862311E+02  0.15446862311E+02  0.00000000000E+00 0.  1.
         21   -1    0    0  502  503 -0.00000000000E+00 -0.00000000000E+00 -0.82947268560E+01  0.82947268560E+01  0.00000000000E+00 0. -1.
          5    1    1    2  501    0 -0.69649702198E+01 -0.51008938938E+01  0.94626890156E+01  0.13644134714E+02  0.47000000000E+01 0.  1.
         -5    1    1    2    0  503  0.69649702198E+01  0.51008938938E+01 -0.23105535607E+01  0.10097454453E+02  0.47000000000E+01 0. -1.
<mgrwt>
<rscale>  2 0.98295437E+01</rscale>
<asrwt>0</asrwt>
<pdfrwt beam="1">  1       21 0.23764404E-02 0.98295437E+01</pdfrwt>
<pdfrwt beam="2">  1       21 0.12761118E-02 0.98295437E+01</pdfrwt>
<totfact> 0.91051232E+08</totfact>
</mgrwt>
</event>
<event>
 4    1  0.4144004E+006  0.5810438E+01  0.7546771E-02  0.2440768E+00
         21   -1    0    0  503  502  0.00000000000E+00  0.00000000000E+00  0.63002559585E+00  0.63002559585E+00  0.00000000000E+00 0. -1.
         21   -1    0    0  501  503 -0.00000000000E+00 -0.00000000000E+00 -0.63715272676E+02  0.63715272676E+02  0.00000000000E+00 0. -1.
          5    1    1    2  501    0 -0.12605152590E+01 -0.31752615330E+01 -0.44369846481E+02  0.44748681112E+02  0.47000000000E+01 0. -1.
         -5    1    1    2    0  502  0.12605152590E+01  0.31752615330E+01 -0.18715400599E+02  0.19596617160E+02  0.47000000000E+01 0. -1.
<mgrwt>
<rscale>  2 0.58104375E+01</rscale>
<asrwt>0</asrwt>
<pdfrwt beam="1">  1       21 0.96927024E-04 0.58104375E+01</pdfrwt>
<pdfrwt beam="2">  1       21 0.98023487E-02 0.58104375E+01</pdfrwt>
<totfact> 0.27048958E+09</totfact>
</mgrwt>
</event>
<event>
 4    1  0.4144004E+006  0.5601102E+01  0.7546771E-02  0.2470425E+00
         21   -1    0    0  501  502  0.00000000000E+00  0.00000000000E+00  0.41808936175E+03  0.41808936175E+03  0.00000000000E+00 0. -1.
         21   -1    0    0  502  503 -0.00000000000E+00 -0.00000000000E+00 -0.75152879942E-01  0.75152879942E-01  0.00000000000E+00 0. -1.
          5    1    1    2  501    0  0.10568411102E+01 -0.28575210526E+01  0.21720293619E+03  0.21727514314E+03  0.47000000000E+01 0. -1.
         -5    1    1    2    0  503 -0.10568411102E+01  0.28575210526E+01  0.20081127268E+03  0.20088937148E+03  0.47000000000E+01 0. -1.
<mgrwt>
<rscale>  2 0.56011017E+01</rscale>
<asrwt>0</asrwt>
<pdfrwt beam="1">  1       21 0.64319577E-01 0.56011017E+01</pdfrwt>
<pdfrwt beam="2">  1       21 0.11562316E-04 0.56011017E+01</pdfrwt>
<totfact> 0.19565222E+09</totfact>
</mgrwt>
</event>
<event>
 4    1  0.4144004E+006  0.6582617E+01  0.7546771E-02  0.2345249E+00
         21   -1    0    0  501  502  0.00000000000E+00  0.00000000000E+00  0.56478906246E+01  0.56478906246E+01  0.00000000000E+00 0.  1.
         21   -1    0    0  502  503 -0.00000000000E+00 -0.00000000000E+00 -0.84507771592E+01  0.84507771592E+01  0.00000000000E+00 0.  1.
          5    1    1    2  501    0  0.32756031649E+01  0.32421089983E+01  0.73846425394E+00  0.66239094427E+01  0.47000000000E+01 0.  1.
         -5    1    1    2    0  503 -0.32756031649E+01 -0.32421089983E+01 -0.35413507885E+01  0.74747583411E+01  0.47000000000E+01 0.  1.
<mgrwt>
<rscale>  2 0.65826170E+01</rscale>
<asrwt>0</asrwt>
<pdfrwt beam="1">  1       21 0.86890625E-03 0.65826170E+01</pdfrwt>
<pdfrwt beam="2">  1       21 0.13001196E-02 0.65826170E+01</pdfrwt>
<totfact> 0.28742633E+09</totfact>
</mgrwt>
</event>
<event>
 4    1  0.4144004E+006  0.1307426E+02  0.7546771E-02  0.1933235E+00
         21   -1    0    0  503  502  0.00000000000E+00  0.00000000000E+00  0.11803790590E+03  0.11803790590E+03  0.00000000000E+00 0. -1.
         21   -1    0    0  501  503 -0.00000000000E+00 -0.00000000000E+00 -0.31413957884E+01  0.31413957884E+01  0.00000000000E+00 0.  1.
          5    1    1    2  501    0 -0.10875271173E+02  0.55294446995E+01  0.12964907538E+02  0.18412634500E+02  0.47000000000E+01 0.  1.
         -5    1    1    2    0  502  0.10875271173E+02 -0.55294446995E+01  0.10193160257E+03  0.10276666719E+03  0.47000000000E+01 0. -1.
<mgrwt>
<rscale>  2 0.13074260E+02</rscale>
<asrwt>0</asrwt>
<pdfrwt beam="1">  1       21 0.18159674E-01 0.13074260E+02</pdfrwt>
<pdfrwt beam="2">  1       21 0.48329175E-03 0.13074260E+02</pdfrwt>
<totfact> 0.17639128E+08</totfact>
</mgrwt>
</event>
<event>
 4    1  0.4144004E+006  0.5763425E+01  0.7546771E-02  0.2447270E+00
         21   -1    0    0  503  502  0.00000000000E+00  0.00000000000E+00  0.86745208792E+00  0.86745208792E+00  0.00000000000E+00 0. -1.
         21   -1    0    0  501  503 -0.00000000000E+00 -0.00000000000E+00 -0.43690647988E+02  0.43690647988E+02  0.00000000000E+00 0. -1.
          5    1    1    2  501    0 -0.22242238838E+01 -0.24859389551E+01 -0.29242605046E+02  0.29805150801E+02  0.47000000000E+01 0. -1.
         -5    1    1    2    0  502  0.22242238838E+01  0.24859389551E+01 -0.13580590855E+02  0.14752949276E+02  0.47000000000E+01 0. -1.
<mgrwt>
<rscale>  2 0.57634247E+01</rscale>
<asrwt>0</asrwt>
<pdfrwt beam="1">  1       21 0.13345421E-03 0.57634247E+01</pdfrwt>
<pdfrwt beam="2">  1       21 0.67216359E-02 0.57634247E+01</pdfrwt>
<totfact> 0.30927442E+09</totfact>
</mgrwt>
</event>
<event>
 4    1  0.4144004E+006  0.5111881E+01  0.7546771E-02  0.2547681E+00
         21   -1    0    0  501  502  0.00000000000E+00  0.00000000000E+00  0.63832557185E+01  0.63832557185E+01  0.00000000000E+00 0. -1.
         21   -1    0    0  502  503 -0.00000000000E+00 -0.00000000000E+00 -0.62268433885E+01  0.62268433885E+01  0.00000000000E+00 0. -1.
          5    1    1    2  501    0  0.19934510368E+01  0.25977295223E+00  0.37685042366E+01  0.63508230336E+01  0.47000000000E+01 0. -1.
         -5    1    1    2    0  503 -0.19934510368E+01 -0.25977295223E+00 -0.36120919066E+01  0.62592760735E+01  0.47000000000E+01 0. -1.
<mgrwt>
<rscale>  2 0.51118812E+01</rscale>
<asrwt>0</asrwt>
<pdfrwt beam="1">  1       21 0.98203934E-03 0.51118812E+01</pdfrwt>
<pdfrwt beam="2">  1       21 0.95797590E-03 0.51118812E+01</pdfrwt>
<totfact> 0.29542157E+09</totfact>
</mgrwt>
</event>
<event>
 4    1  0.4144004E+006  0.6172477E+01  0.7546771E-02  0.2393502E+00
         21   -1    0    0  501  502  0.00000000000E+00  0.00000000000E+00  0.50594201304E-01  0.50594201304E-01  0.00000000000E+00 0.  1.
         21   -1    0    0  502  503 -0.00000000000E+00 -0.00000000000E+00 -0.17617361818E+04  0.17617361818E+04  0.00000000000E+00 0.  1.
          5    1    1    2  501    0  0.38945932843E+01 -0.91739697361E+00 -0.21429233661E+03  0.21438121420E+03  0.47000000000E+01 0.  1.
         -5    1    1    2    0  503 -0.38945932843E+01  0.91739697361E+00 -0.15473932510E+04  0.15474055618E+04  0.47000000000E+01 0.  1.
<mgrwt>
<rscale>  2 0.61724771E+01</rscale>
<asrwt>0</asrwt>
<pdfrwt beam="1">  1       21 0.77822758E-05 0.61724771E+01</pdfrwt>
<pdfrwt beam="2">  1       21 0.27108675E+00 0.61724771E+01</pdfrwt>
<totfact> 0.16922041E+08</totfact>
</mgrwt>
</event>
<event>
 4    1  0.4144004E+006  0.1287071E+02  0.7546771E-02  0.1940978E+00
         21   -1    0    0  501  502  0.00000000000E+00  0.00000000000E+00  0.65394290364E+02  0.65394290364E+02  0.00000000000E+00 0. -1.
         21   -1    0    0  502  503 -0.00000000000E+00 -0.00000000000E+00 -0.96819851097E+01  0.96819851097E+01  0.00000000000E+00 0.  1.
          5    1    1    2  501    0 -0.65716662151E+01  0.10018904459E+02  0.60111919396E+02  0.61474369430E+02  0.47000000000E+01 0. -1.
         -5    1    1    2    0  503  0.65716662151E+01 -0.10018904459E+02 -0.43996141418E+01  0.13601906043E+02  0.47000000000E+01 0.  1.
<mgrwt>
<rscale>  2 0.12870713E+02</rscale>
<asrwt>0</asrwt>
<pdfrwt beam="1">  1       21 0.10060660E-01 0.12870713E+02</pdfrwt>
<pdfrwt beam="2">  1       21 0.14895362E-02 0.12870713E+02</pdfrwt>
<totfact> 0.89255466E+07</totfact>
</mgrwt>
</event>
<event>
 4    1  0.4144004E+006  0.2118836E+02  0.7546771E-02  0.1722679E+00
         21   -1    0    0  501  502  0.00000000000E+00  0.00000000000E+00  0.12813064920E+03  0.12813064920E+03  0.00000000000E+00 0.  1.
         21   -1    0    0  502  503 -0.00000000000E+00 -0.00000000000E+00 -0.62473697632E+01  0.62473697632E+01  0.00000000000E+00 0. -1.
          5    1    1    2  501    0 -0.43349297437E+01 -0.20200614454E+02  0.10546687610E+03  0.10757419949E+03  0.47000000000E+01 0.  1.
         -5    1    1    2    0  503  0.43349297437E+01  0.20200614454E+02  0.16416403338E+02  0.26803819481E+02  0.47000000000E+01 0. -1.
<mgrwt>
<rscale>  2 0.21188356E+02</rscale>
<asrwt>0</asrwt>
<pdfrwt beam="1">  1       21 0.19712406E-01 0.21188356E+02</pdfrwt>
<pdfrwt beam="2">  1       21 0.96113390E-03 0.21188356E+02</pdfrwt>
<totfact> 0.65603150E+07</totfact>
</mgrwt>
</event>
<event>
 4    1  0.4144004E+006  0.7846662E+01  0.7546771E-02  0.2223253E+00
         21   -1    0    0  503  502  0.00000000000E+00  0.00000000000E+00  0.34306831766E+00  0.34306831766E+00  0.00000000000E+00 0.  1.
         21   -1    0    0  501  503 -0.00000000000E+00 -0.00000000000E+00 -0.22650930645E+03  0.22650930645E+03  0.00000000000E+00 0. -1.
          5    1    1    2  501    0 -0.49265394001E+01 -0.38999123697E+01 -0.16477301552E+03  0.16495974282E+03  0.47000000000E+01 0.  1.
         -5    1    1    2    0  502  0.49265394001E+01  0.38999123697E+01 -0.61393222609E+02  0.61892631946E+02  0.47000000000E+01 0.  1.
<mgrwt>
<rscale>  2 0.78466622E+01</rscale>
<asrwt>0</asrwt>
<pdfrwt beam="1">  1       21 0.52779491E-04 0.78466622E+01</pdfrwt>
<pdfrwt beam="2">  1       21 0.34847751E-01 0.78466622E+01</pdfrwt>
<totfact> 0.97693007E+08</totfact>
</mgrwt>
</event>
<event>
 4    1  0.4144004E+006  0.4872093E+01  0.7546771E-02  0.2590357E+00
         21   -1    0    0  501  502  0.00000000000E+00  0.00000000000E+00  0.40285789516E+01  0.40285789516E+01  0.00000000000E+00 0.  1.
         21   -1    0    0  502  503 -0.00000000000E+00 -0.00000000000E+00 -0.20701861672E+02  0.20701861672E+02  0.00000000000E+00 0.  1.
          5    1    1    2  501    0  0.81783095774E+00  0.98916095302E+00  0.21218582368E+01  0.53140915727E+01  0.47000000000E+01 0.  1.
         -5    1    1    2    0  503 -0.81783095774E+00 -0.98916095302E+00 -0.18795140957E+02  0.19416349051E+02  0.47000000000E+01 0.  1.
<mgrwt>
<rscale>  2 0.48720927E+01</rscale>
<asrwt>0</asrwt>
<pdfrwt beam="1">  1       21 0.61978137E-03 0.48720927E+01</pdfrwt>
<pdfrwt beam="2">  1       21 0.31849018E-02 0.48720927E+01</pdfrwt>
<totfact> 0.97587380E+08</totfact>
</mgrwt>
</event>
<event>
 4    1  0.4144004E+006  0.6081561E+01  0.7546771E-02  0.2404928E+00
         21   -1    0    0  503  502  0.00000000000E+00  0.00000000000E+00  0.81574594143E+00  0.81574594143E+00  0.00000000000E+00 0.  1.
         21   -1    0    0  501  503 -0.00000000000E+00 -0.00000000000E+00 -0.46965505147E+02  0.46965505147E+02  0.00000000000E+00 0.  1.
          5    1    1    2  501    0 -0.11695592924E+01  0.36779773643E+01 -0.27520370430E+02  0.28184324988E+02  0.47000000000E+01 0.  1.
         -5    1    1    2    0  502  0.11695592924E+01 -0.36779773643E+01 -0.18629388776E+02  0.19596926101E+02  0.47000000000E+01 0.  1.
<mgrwt>
<rscale>  2 0.60815612E+01</rscale>
<asrwt>0</asrwt>
<pdfrwt beam="1">  1       21 0.12549929E-03 0.60815612E+01</pdfrwt>
<pdfrwt beam="2">  1       21 0.72254671E-02 0.60815612E+01</pdfrwt>
<totfact> 0.31591564E+09</totfact>
</mgrwt>
</event>
<event>
 4    1  0.4144004E+006  0.5485140E+01  0.7546771E-02  0.2487674E+00
         21   -1    0    0  503  502  0.00000000000E+00  0.00000000000E+00  0.59394996306E+02  0.59394996306E+02  0.00000000000E+00 0.  1.
         21   -1    0    0  501  503 -0.00000000000E+00 -0.00000000000E+00 -0.16131804445E+02  0.16131804445E+02  0.00000000000E+00 0. -1.
          5    1    1    2  501    0 -0.13612702639E+01  0.24786497819E+01 -0.15534172358E+02  0.16474139502E+02  0.47000000000E+01 0. -1.
         -5    1    1    2    0  502  0.13612702639E+01 -0.24786497819E+01  0.58797364219E+02  0.59052661249E+02  0.47000000000E+01 0.  1.
<mgrwt>
<rscale>  2 0.54851401E+01</rscale>
<asrwt>0</asrwt>
<pdfrwt beam="1">  1       21 0.91376916E-02 0.54851401E+01</pdfrwt>
<pdfrwt beam="2">  1       21 0.24818161E-02 0.54851401E+01</pdfrwt>
<totfact> 0.32381312E+07</totfact>
</mgrwt>
</event>
<event>
 4    1  0.4144004E+006  0.5187295E+01  0.7546771E-02  0.2534963E+00
         21   -1    0    0  503  502  0.00000000000E+00  0.00000000000E+00  0.36669471813E+01  0.36669471813E+01  0.00000000000E+00 0.  1.
         21   -1    0    0  501  503 -0.00000000000E+00 -0.00000000000E+00 -0.10444052010E+02  0.10444052010E+02  0.00000000000E+00 0.  1.
          5    1    1    2  501    0 -0.34143042426E-01  0.21947357661E+01 -0.72362253286E+01  0.89034256237E+01  0.47000000000E+01 0.  1.
         -5    1    1    2    0  502  0.34143042426E-01 -0.21947357661E+01  0.45912049982E+00  0.52075735678E+01  0.47000000000E+01 0.  1.
<mgrwt>
<rscale>  2 0.51872951E+01</rscale>
<asrwt>0</asrwt>
<pdfrwt beam="1">  1       21 0.56414573E-03 0.51872951E+01</pdfrwt>
<pdfrwt beam="2">  1       21 0.16067772E-02 0.51872951E+01</pdfrwt>
<totfact> 0.31308064E+09</totfact>
</mgrwt>
</event>
<event>
 4    1  0.4144004E+006  0.1319982E+02  0.7546771E-02  0.1928550E+00
         21   -1    0    0  503  502  0.00000000000E+00  0.00000000000E+00  0.23920392471E+01  0.23920392471E+01  0.00000000000E+00 0. -1.
         21   -1    0    0  501  503 -0.00000000000E+00 -0.00000000000E+00 -0.73020696301E+02  0.73020696301E+02  0.00000000000E+00 0.  1.
          5    1    1    2  501    0 -0.90695026327E+01  0.83599887452E+01 -0.37191882455E+02  0.39464812306E+02  0.47000000000E+01 0. -1.
         -5    1    1    2    0  502  0.90695026327E+01 -0.83599887452E+01 -0.33436774599E+02  0.35947923242E+02  0.47000000000E+01 0.  1.
<mgrwt>
<rscale>  2 0.13199822E+02</rscale>
<asrwt>0</asrwt>
<pdfrwt beam="1">  1       21 0.36800606E-03 0.13199822E+02</pdfrwt>
<pdfrwt beam="2">  1       21 0.11233953E-01 0.13199822E+02</pdfrwt>
<totfact> 0.57969472E+08</totfact>
</mgrwt>
</event>
<event>
 4    1  0.4144004E+006  0.7201839E+01  0.7546771E-02  0.2281114E+00
         21   -1    0    0  501  502  0.00000000000E+00  0.00000000000E+00  0.18129072819E+00  0.18129072819E+00  0.00000000000E+00 0. -1.
         21   -1    0    0  502  503 -0.00000000000E+00 -0.00000000000E+00 -0.33937228552E+03  0.33937228552E+03  0.00000000000E+00 0.  1.
          5    1    1    2  501    0 -0.14267847919E+01  0.52669509932E+01 -0.23686350228E+03  0.23697296301E+03  0.47000000000E+01 0. -1.
         -5    1    1    2    0  503  0.14267847919E+01 -0.52669509932E+01 -0.10232749251E+03  0.10258061323E+03  0.47000000000E+01 0. -1.
<mgrwt>
<rscale>  2 0.72018392E+01</rscale>
<asrwt>0</asrwt>
<pdfrwt beam="1">  1       21 0.27890670E-04 0.72018392E+01</pdfrwt>
<pdfrwt beam="2">  1       21 0.52211516E-01 0.72018392E+01</pdfrwt>
<totfact> 0.10608437E+09</totfact>
</mgrwt>
</event>
<event>
 4    1  0.4144004E+006  0.4907959E+01  0.7546771E-02  0.2583745E+00
         21   -1    0    0  503  502  0.00000000000E+00  0.00000000000E+00  0.15866880683E+00  0.15866880683E+00  0.00000000000E+00 0. -1.
         21   -1    0    0  501  503 -0.00000000000E+00 -0.00000000000E+00 -0.15226267763E+03  0.15226267763E+03  0.00000000000E+00 0. -1.
          5    1    1    2  501    0 -0.10517684777E+01  0.94437587465E+00 -0.71912571310E+02  0.72079858318E+02  0.47000000000E+01 0.  1.
         -5    1    1    2    0  502  0.10517684777E+01 -0.94437587465E+00 -0.80191437508E+02  0.80341488114E+02  0.47000000000E+01 0.  1.
<mgrwt>
<rscale>  2 0.49079591E+01</rscale>
<asrwt>0</asrwt>
<pdfrwt beam="1">  1       21 0.24410629E-04 0.49079591E+01</pdfrwt>
<pdfrwt beam="2">  1       21 0.23424985E-01 0.49079591E+01</pdfrwt>
<totfact> 0.37002927E+09</totfact>
</mgrwt>
</event>
<event>
 4    1  0.4144004E+006  0.6168027E+01  0.7546771E-02  0.2394055E+00
         21   -1    0    0  503  502  0.00000000000E+00  0.00000000000E+00  0.13923324463E+01  0.13923324463E+01  0.00000000000E+00 0. -1.
         21   -1    0    0  501  503 -0.00000000000E+00 -0.00000000000E+00 -0.34997135621E+02  0.34997135621E+02  0.00000000000E+00 0. -1.
          5    1    1    2  501    0 -0.86112117594E+00 -0.39003887262E+01 -0.25321749271E+02  0.26062147802E+02  0.47000000000E+01 0. -1.
         -5    1    1    2    0  502  0.86112117594E+00  0.39003887262E+01 -0.82830539035E+01  0.10327320265E+02  0.47000000000E+01 0. -1.
<mgrwt>
<rscale>  2 0.61680274E+01</rscale>
<asrwt>0</asrwt>
<pdfrwt beam="1">  1       21 0.21420502E-03 0.61680274E+01</pdfrwt>
<pdfrwt beam="2">  1       21 0.53841739E-02 0.61680274E+01</pdfrwt>
<totfact> 0.24057484E+09</totfact>
</mgrwt>
</event>
<event>
 4    1  0.4144004E+006  0.7908414E+01  0.7546771E-02  0.2218116E+00
         21   -1    0    0  501  502  0.00000000000E+00  0.00000000000E+00  0.59886335029E+01  0.59886335029E+01  0.00000000000E+00 0.  1.
         21   -1    0    0  502  503 -0.00000000000E+00 -0.00000000000E+00 -0.11077977312E+02  0.11077977312E+02  0.00000000000E+00 0. -1.
          5    1    1    2  501    0  0.62134460188E+01  0.13587105246E+01 -0.50267808451E+00  0.79243732229E+01  0.47000000000E+01 0.  1.
         -5    1    1    2    0  503 -0.62134460188E+01 -0.13587105246E+01 -0.45866657243E+01  0.91422375918E+01  0.47000000000E+01 0. -1.
<mgrwt>
<rscale>  2 0.79084136E+01</rscale>
<asrwt>0</asrwt>
<pdfrwt beam="1">  1       21 0.92132824E-03 0.79084136E+01</pdfrwt>
<pdfrwt beam="2">  1       21 0.17043042E-02 0.79084136E+01</pdfrwt>
<totfact> 0.20634700E+09</totfact>
</mgrwt>
</event>
<event>
 4    1  0.4144004E+006  0.6126242E+01  0.7546771E-02  0.2399277E+00
         21   -1    0    0  501  502  0.00000000000E+00  0.00000000000E+00  0.32083170861E+03  0.32083170861E+03  0.00000000000E+00 0.  1.
         21   -1    0    0  502  503 -0.00000000000E+00 -0.00000000000E+00 -0.37358588370E+00  0.37358588370E+00  0.00000000000E+00 0.  1.
          5    1    1    2  501    0  0.39017514452E+01  0.46602465656E+00  0.29333300024E+03  0.29339696637E+03  0.47000000000E+01 0.  1.
         -5    1    1    2    0  503 -0.39017514452E+01 -0.46602465656E+00  0.27125122481E+02  0.27808328122E+02  0.47000000000E+01 0.  1.
<mgrwt>
<rscale>  2 0.61262422E+01</rscale>
<asrwt>0</asrwt>
<pdfrwt beam="1">  1       21 0.49358504E-01 0.61262422E+01</pdfrwt>
<pdfrwt beam="2">  1       21 0.57475008E-04 0.61262422E+01</pdfrwt>
<totfact> 0.40002557E+08</totfact>
</mgrwt>
</event>
<event>
 4    1  0.4144004E+006  0.5875851E+01  0.7546771E-02  0.2431867E+00
         21   -1    0    0  503  502  0.00000000000E+00  0.00000000000E+00  0.29861827419E+00  0.29861827419E+00  0.00000000000E+00 0.  1.
         21   -1    0    0  501  503 -0.00000000000E+00 -0.00000000000E+00 -0.14017210620E+03  0.14017210620E+03  0.00000000000E+00 0.  1.
          5    1    1    2  501    0  0.25852434578E+01  0.23983611967E+01 -0.99332721393E+02  0.99506357383E+02  0.47000000000E+01 0.  1.
         -5    1    1    2    0  502 -0.25852434578E+01 -0.23983611967E+01 -0.40540766531E+02  0.40964367090E+02  0.47000000000E+01 0.  1.
<mgrwt>
<rscale>  2 0.58758506E+01</rscale>
<asrwt>0</asrwt>
<pdfrwt beam="1">  1       21 0.45941197E-04 0.58758506E+01</pdfrwt>
<pdfrwt beam="2">  1       21 0.21564975E-01 0.58758506E+01</pdfrwt>
<totfact> 0.21448694E+09</totfact>
</mgrwt>
</event>
<event>
 4    1  0.4144004E+006  0.4766794E+01  0.7546771E-02  0.2610265E+00
         21   -1    0    0  503  502  0.00000000000E+00  0.00000000000E+00  0.95774280912E+00  0.95774280912E+00  0.00000000000E+00 0.  1.
         21   -1    0    0  501  503 -0.00000000000E+00 -0.00000000000E+00 -0.36804172898E+02  0.36804172898E+02  0.00000000000E+00 0.  1.
          5    1    1    2  501    0  0.54455627262E+00 -0.57946788239E+00 -0.29178792333E+02  0.29565592275E+02  0.47000000000E+01 0.  1.
         -5    1    1    2    0  502 -0.54455627262E+00  0.57946788239E+00 -0.66676377561E+01  0.81963234323E+01  0.47000000000E+01 0.  1.
<mgrwt>
<rscale>  2 0.47667939E+01</rscale>
<asrwt>0</asrwt>
<pdfrwt beam="1">  1       21 0.14734504E-03 0.47667939E+01</pdfrwt>
<pdfrwt beam="2">  1       21 0.56621808E-02 0.47667939E+01</pdfrwt>
<totfact> 0.29051071E+09</totfact>
</mgrwt>
</event>
<event>
 4    1  0.4144004E+006  0.4775064E+01  0.7546771E-02  0.2608674E+00
         21   -1    0    0  501  502  0.00000000000E+00  0.00000000000E+00  0.88701162242E+03  0.88701162242E+03  0.00000000000E+00 0. -1.
         21   -1    0    0  502  503 -0.00000000000E+00 -0.00000000000E+00 -0.42839801232E-01  0.42839801232E-01  0.00000000000E+00 0. -1.
          5    1    1    2  501    0  0.81602020234E+00 -0.21294069282E+00  0.72398095397E+03  0.72399670092E+03  0.47000000000E+01 0. -1.
         -5    1    1    2    0  503 -0.81602020234E+00  0.21294069282E+00  0.16298782865E+03  0.16305776130E+03  0.47000000000E+01 0. -1.
<mgrwt>
<rscale>  2 0.47750636E+01</rscale>
<asrwt>0</asrwt>
<pdfrwt beam="1">  1       21 0.13644862E+00 0.47750636E+01</pdfrwt>
<pdfrwt beam="2">  1       21 0.65914491E-05 0.47750636E+01</pdfrwt>
<totfact> 0.82468599E+08</totfact>
</mgrwt>
</event>
<event>
 4    1  0.4144004E+006  0.8637215E+01  0.7546771E-02  0.2162000E+00
         21   -1    0    0  503  502  0.00000000000E+00  0.00000000000E+00  0.73147479917E+00  0.73147479917E+00  0.00000000000E+00 0. -1.
         21   -1    0    0  501  503 -0.00000000000E+00 -0.00000000000E+00 -0.15499604641E+03  0.15499604641E+03  0.00000000000E+00 0. -1.
          5    1    1    2  501    0 -0.58360162357E+01  0.42956256223E+01 -0.12266744912E+03  0.12297115336E+03  0.47000000000E+01 0. -1.
         -5    1    1    2    0  502  0.58360162357E+01 -0.42956256223E+01 -0.31597122489E+02  0.32756367848E+02  0.47000000000E+01 0. -1.
<mgrwt>
<rscale>  2 0.86372151E+01</rscale>
<asrwt>0</asrwt>
<pdfrwt beam="1">  1       21 0.11253448E-03 0.86372151E+01</pdfrwt>
<pdfrwt beam="2">  1       21 0.23845569E-01 0.86372151E+01</pdfrwt>
<totfact> 0.70715193E+08</totfact>
</mgrwt>
</event>
<event>
 4    1  0.4144004E+006  0.6778936E+01  0.7546771E-02  0.2323874E+00
         21   -1    0    0  503  502  0.00000000000E+00  0.00000000000E+00  0.13174218255E+02  0.13174218255E+02  0.00000000000E+00 0.  1.
         21   -1    0    0  501  503 -0.00000000000E+00 -0.00000000000E+00 -0.36091159539E+01  0.36091159539E+01  0.00000000000E+00 0.  1.
          5    1    1    2  501    0  0.26545091973E+01  0.41009203270E+01  0.32463921104E+01  0.75161844270E+01  0.47000000000E+01 0.  1.
         -5    1    1    2    0  502 -0.26545091973E+01 -0.41009203270E+01  0.63187101909E+01  0.92671497820E+01  0.47000000000E+01 0.  1.
<mgrwt>
<rscale>  2 0.67789355E+01</rscale>
<asrwt>0</asrwt>
<pdfrwt beam="1">  1       21 0.20268028E-02 0.67789355E+01</pdfrwt>
<pdfrwt beam="2">  1       21 0.55524862E-03 0.67789355E+01</pdfrwt>
<totfact> 0.29207112E+09</totfact>
</mgrwt>
</event>
<event>
 4    1  0.4144004E+006  0.4935506E+01  0.7546771E-02  0.2578724E+00
         21   -1    0    0  503  502  0.00000000000E+00  0.00000000000E+00  0.31601307360E+01  0.31601307360E+01  0.00000000000E+00 0. -1.
         21   -1    0    0  501  503 -0.00000000000E+00 -0.00000000000E+00 -0.26121819459E+03  0.26121819459E+03  0.00000000000E+00 0. -1.
          5    1    1    2  501    0  0.13502012305E+00 -0.15003310765E+01 -0.25925320263E+03  0.25930017798E+03  0.47000000000E+01 0. -1.
         -5    1    1    2    0  502 -0.13502012305E+00  0.15003310765E+01  0.11951387804E+01  0.50781473469E+01  0.47000000000E+01 0. -1.
<mgrwt>
<rscale>  2 0.49355064E+01</rscale>
<asrwt>0</asrwt>
<pdfrwt beam="1">  1       21 0.48617398E-03 0.49355064E+01</pdfrwt>
<pdfrwt beam="2">  1       21 0.40187412E-01 0.49355064E+01</pdfrwt>
<totfact> 0.27798771E+07</totfact>
</mgrwt>
</event>
<event>
 4    1  0.4144004E+006  0.6574908E+01  0.7546771E-02  0.2346109E+00
         21   -1    0    0  501  502  0.00000000000E+00  0.00000000000E+00  0.12158992704E+03  0.12158992704E+03  0.00000000000E+00 0. -1.
         21   -1    0    0  502  503 -0.00000000000E+00 -0.00000000000E+00 -0.46008958981E+00  0.46008958981E+00  0.00000000000E+00 0. -1.
          5    1    1    2  501    0  0.25096256005E+01 -0.38524263542E+01  0.89655962884E+02  0.89896724580E+02  0.47000000000E+01 0. -1.
         -5    1    1    2    0  503 -0.25096256005E+01  0.38524263542E+01  0.31473874571E+02  0.32153292055E+02  0.47000000000E+01 0. -1.
<mgrwt>
<rscale>  2 0.65749076E+01</rscale>
<asrwt>0</asrwt>
<pdfrwt beam="1">  1       21 0.18706117E-01 0.65749076E+01</pdfrwt>
<pdfrwt beam="2">  1       21 0.70783111E-04 0.65749076E+01</pdfrwt>
<totfact> 0.16536862E+09</totfact>
</mgrwt>
</event>
<event>
 4    1  0.4144004E+006  0.6554975E+01  0.7546771E-02  0.2348343E+00
         21   -1    0    0  503  502  0.00000000000E+00  0.00000000000E+00  0.10075116472E+02  0.10075116472E+02  0.00000000000E+00 0.  1.
         21   -1    0    0  501  503 -0.00000000000E+00 -0.00000000000E+00 -0.53484530903E+01  0.53484530903E+01  0.00000000000E+00 0.  1.
          5    1    1    2  501    0  0.24047847808E+01  0.38851910252E+01 -0.11080232397E+01  0.66479631951E+01  0.47000000000E+01 0.  1.
         -5    1    1    2    0  502 -0.24047847808E+01 -0.38851910252E+01  0.58346866217E+01  0.87756063675E+01  0.47000000000E+01 0.  1.
<mgrwt>
<rscale>  2 0.65549751E+01</rscale>
<asrwt>0</asrwt>
<pdfrwt beam="1">  1       21 0.15500179E-02 0.65549751E+01</pdfrwt>
<pdfrwt beam="2">  1       21 0.82283894E-03 0.65549751E+01</pdfrwt>
<totfact> 0.24054791E+09</totfact>
</mgrwt>
</event>
<event>
 4    1  0.4144004E+006  0.8005821E+01  0.7546771E-02  0.2210142E+00
         21   -1    0    0  501  502  0.00000000000E+00  0.00000000000E+00  0.13726574040E+02  0.13726574040E+02  0.00000000000E+00 0. -1.
         21   -1    0    0  502  503 -0.00000000000E+00 -0.00000000000E+00 -0.14917134554E+02  0.14917134554E+02  0.00000000000E+00 0.  1.
          5    1    1    2  501    0 -0.43675355378E+01 -0.47882988899E+01  0.11275331280E+02  0.13828458641E+02  0.47000000000E+01 0. -1.
         -5    1    1    2    0  503  0.43675355378E+01  0.47882988899E+01 -0.12465891794E+02  0.14815249953E+02  0.47000000000E+01 0.  1.
<mgrwt>
<rscale>  2 0.80058212E+01</rscale>
<asrwt>0</asrwt>
<pdfrwt beam="1">  1       21 0.21117806E-02 0.80058212E+01</pdfrwt>
<pdfrwt beam="2">  1       21 0.22949438E-02 0.80058212E+01</pdfrwt>
<totfact> 0.40560786E+08</totfact>
</mgrwt>
</event>
<event>
 4    1  0.4144004E+006  0.4704141E+01  0.7546771E-02  0.2622477E+00
         21   -1    0    0  503  502  0.00000000000E+00  0.00000000000E+00  0.12669773447E+03  0.12669773447E+03  0.00000000000E+00 0.  1.
         21   -1    0    0  501  503 -0.00000000000E+00 -0.00000000000E+00 -0.21735842668E+00  0.21735842668E+00  0.00000000000E+00 0.  1.
          5    1    1    2  501    0  0.18259918186E+00 -0.74838591966E-01  0.35114425570E+02  0.35428121971E+02  0.47000000000E+01 0.  1.
         -5    1    1    2    0  502 -0.18259918186E+00  0.74838591966E-01  0.91365950473E+02  0.91486970926E+02  0.47000000000E+01 0.  1.
<mgrwt>
<rscale>  2 0.47041411E+01</rscale>
<asrwt>0</asrwt>
<pdfrwt beam="1">  1       21 0.19491900E-01 0.47041411E+01</pdfrwt>
<pdfrwt beam="2">  1       21 0.33439859E-04 0.47041411E+01</pdfrwt>
<totfact> 0.31381061E+09</totfact>
</mgrwt>
</event>
<event>
 4    1  0.4144004E+006  0.4758645E+01  0.7546771E-02  0.2611837E+00
         21   -1    0    0  503  502  0.00000000000E+00  0.00000000000E+00  0.23241942277E+03  0.23241942277E+03  0.00000000000E+00 0. -1.
         21   -1    0    0  501  503 -0.00000000000E+00 -0.00000000000E+00 -0.97514693373E-01  0.97514693373E-01  0.00000000000E+00 0. -1.
          5    1    1    2  501    0 -0.72814760352E+00 -0.15653746537E+00  0.11274158459E+03  0.11284196736E+03  0.47000000000E+01 0. -1.
         -5    1    1    2    0  502  0.72814760352E+00  0.15653746537E+00  0.11958032349E+03  0.11967497010E+03  0.47000000000E+01 0. -1.
<mgrwt>
<rscale>  2 0.47586451E+01</rscale>
<asrwt>0</asrwt>
<pdfrwt beam="1">  1       21 0.35756391E-01 0.47586451E+01</pdfrwt>
<pdfrwt beam="2">  1       21 0.15002447E-04 0.47586451E+01</pdfrwt>
<totfact> 0.34047626E+09</totfact>
</mgrwt>
</event>
<event>
 4    1  0.4144004E+006  0.5906426E+01  0.7546771E-02  0.2427764E+00
         21   -1    0    0  503  502  0.00000000000E+00  0.00000000000E+00  0.33870822603E+01  0.33870822603E+01  0.00000000000E+00 0. -1.
         21   -1    0    0  501  503 -0.00000000000E+00 -0.00000000000E+00 -0.87853358073E+02  0.87853358073E+02  0.00000000000E+00 0.  1.
          5    1    1    2  501    0 -0.34017982860E+01 -0.11061813370E+01 -0.85095824530E+02  0.85300558153E+02  0.47000000000E+01 0.  1.
         -5    1    1    2    0  502  0.34017982860E+01  0.11061813370E+01  0.62954871745E+00  0.59398821803E+01  0.47000000000E+01 0. -1.
<mgrwt>
<rscale>  2 0.59064261E+01</rscale>
<asrwt>0</asrwt>
<pdfrwt beam="1">  1       21 0.52108963E-03 0.59064261E+01</pdfrwt>
<pdfrwt beam="2">  1       21 0.13515900E-01 0.59064261E+01</pdfrwt>
<totfact> 0.16832050E+08</totfact>
</mgrwt>
</event>
<event>
 4    1  0.4144004E+006  0.8690812E+01  0.7546771E-02  0.2158172E+00
         21   -1    0    0  503  502  0.00000000000E+00  0.00000000000E+00  0.18770512404E+03  0.18770512404E+03  0.00000000000E+00 0. -1.
         21   -1    0    0  501  503 -0.00000000000E+00 -0.00000000000E+00 -0.57925548931E+00  0.57925548931E+00  0.00000000000E+00 0.  1.
          5    1    1    2  501    0 -0.61581575293E+01 -0.39392008780E+01  0.41542525936E+02  0.42441862221E+02  0.47000000000E+01 0.  1.
         -5    1    1    2    0  502  0.61581575293E+01  0.39392008780E+01  0.14558334261E+03  0.14584251731E+03  0.47000000000E+01 0. -1.
<mgrwt>
<rscale>  2 0.86908117E+01</rscale>
<asrwt>0</asrwt>
<pdfrwt beam="1">  1       21 0.28877663E-01 0.86908117E+01</pdfrwt>
<pdfrwt beam="2">  1       21 0.89116379E-04 0.86908117E+01</pdfrwt>
<totfact> 0.70526615E+08</totfact>
</mgrwt>
</event>
<event>
 4    1  0.4144004E+006  0.5285726E+01  0.7546771E-02  0.2518833E+00
         21   -1    0    0  501  502  0.00000000000E+00  0.00000000000E+00  0.68027435653E+02  0.68027435653E+02  0.00000000000E+00 0. -1.
         21   -1    0    0  502  503 -0.00000000000E+00 -0.00000000000E+00 -0.48654772184E+00  0.48654772184E+00  0.00000000000E+00 0. -1.
          5    1    1    2  501    0  0.18221438797E+01 -0.15901846040E+01  0.47296046179E+02  0.47590491483E+02  0.47000000000E+01 0. -1.
         -5    1    1    2    0  503 -0.18221438797E+01  0.15901846040E+01  0.20244841752E+02  0.20923491892E+02  0.47000000000E+01 0. -1.
<mgrwt>
<rscale>  2 0.52857256E+01</rscale>
<asrwt>0</asrwt>
<pdfrwt beam="1">  1       21 0.10465752E-01 0.52857256E+01</pdfrwt>
<pdfrwt beam="2">  1       21 0.74853550E-04 0.52857256E+01</pdfrwt>
<totfact> 0.31716887E+09</totfact>
</mgrwt>
</event>
<event>
 4    1  0.4144004E+006  0.5283576E+01  0.7546771E-02  0.2519179E+00
         21   -1    0    0  501  502  0.00000000000E+00  0.00000000000E+00  0.47290503381E+02  0.47290503381E+02  0.00000000000E+00 0.  1.
         21   -1    0    0  502  503 -0.00000000000E+00 -0.00000000000E+00 -0.14667006885E+01  0.14667006885E+01  0.00000000000E+00 0. -1.
          5    1    1    2  501    0 -0.24120347098E+01  0.90915151316E-01  0.41756474238E+02  0.42089420498E+02  0.47000000000E+01 0.  1.
         -5    1    1    2    0  503  0.24120347098E+01 -0.90915151316E-01  0.40673284537E+01  0.66677835715E+01  0.47000000000E+01 0. -1.
<mgrwt>
<rscale>  2 0.52835762E+01</rscale>
<asrwt>0</asrwt>
<pdfrwt beam="1">  1       21 0.72754609E-02 0.52835762E+01</pdfrwt>
<pdfrwt beam="2">  1       21 0.22564630E-03 0.52835762E+01</pdfrwt>
<totfact> 0.12509113E+09</totfact>
</mgrwt>
</event>
<event>
 4    1  0.4144004E+006  0.6531891E+01  0.7546771E-02  0.2350943E+00
         21   -1    0    0  503  502  0.00000000000E+00  0.00000000000E+00  0.15079871903E+04  0.15079871903E+04  0.00000000000E+00 0. -1.
         21   -1    0    0  501  503 -0.00000000000E+00 -0.00000000000E+00 -0.30360097609E-01  0.30360097609E-01  0.00000000000E+00 0.  1.
          5    1    1    2  501    0  0.17904030838E+01 -0.41677399577E+01  0.95072041954E+03  0.95074285784E+03  0.47000000000E+01 0.  1.
         -5    1    1    2    0  502 -0.17904030838E+01  0.41677399577E+01  0.55723641067E+03  0.55727469256E+03  0.47000000000E+01 0.  1.
<mgrwt>
<rscale>  2 0.65318910E+01</rscale>
<asrwt>0</asrwt>
<pdfrwt beam="1">  1       21 0.23193805E+00 0.65318910E+01</pdfrwt>
<pdfrwt beam="2">  1       21 0.46719920E-05 0.65318910E+01</pdfrwt>
<totfact> 0.50013762E+08</totfact>
</mgrwt>
</event>
<event>
 4    1  0.4144004E+006  0.5441665E+01  0.7546771E-02  0.2494301E+00
         21   -1    0    0  501  502  0.00000000000E+00  0.00000000000E+00  0.33158529712E+00  0.33158529712E+00  0.00000000000E+00 0.  1.
         21   -1    0    0  502  503 -0.00000000000E+00 -0.00000000000E+00 -0.12189376935E+03  0.12189376935E+03  0.00000000000E+00 0.  1.
          5    1    1    2  501    0 -0.17299639921E+01 -0.21281305752E+01 -0.29181259466E+02  0.29684299203E+02  0.47000000000E+01 0.  1.
         -5    1    1    2    0  503  0.17299639921E+01  0.21281305752E+01 -0.92380924589E+02  0.92541055446E+02  0.47000000000E+01 0.  1.
<mgrwt>
<rscale>  2 0.54416647E+01</rscale>
<asrwt>0</asrwt>
<pdfrwt beam="1">  1       21 0.51013169E-04 0.54416647E+01</pdfrwt>
<pdfrwt beam="2">  1       21 0.18752871E-01 0.54416647E+01</pdfrwt>
<totfact> 0.21885984E+09</totfact>
</mgrwt>
</event>
<event>
 4    1  0.4144004E+006  0.5126801E+01  0.7546771E-02  0.2545139E+00
         21   -1    0    0  501  502  0.00000000000E+00  0.00000000000E+00  0.41102221098E+02  0.41102221098E+02  0.00000000000E+00 0.  1.
         21   -1    0    0  502  503 -0.00000000000E+00 -0.00000000000E+00 -0.69755289515E+00  0.69755289515E+00  0.00000000000E+00 0.  1.
          5    1    1    2  501    0 -0.10483529041E+01  0.17592724988E+01  0.14172034317E+02  0.15070853998E+02  0.47000000000E+01 0.  1.
         -5    1    1    2    0  503  0.10483529041E+01 -0.17592724988E+01  0.26232633885E+02  0.26728919995E+02  0.47000000000E+01 0.  1.
<mgrwt>
<rscale>  2 0.51268005E+01</rscale>
<asrwt>0</asrwt>
<pdfrwt beam="1">  1       21 0.63234167E-02 0.51268005E+01</pdfrwt>
<pdfrwt beam="2">  1       21 0.10731586E-03 0.51268005E+01</pdfrwt>
<totfact> 0.40590362E+09</totfact>
</mgrwt>
</event>
<event>
 4    1  0.4144004E+006  0.4933770E+01  0.7546771E-02  0.2579039E+00
         21   -1    0    0  503  502  0.00000000000E+00  0.00000000000E+00  0.25617150108E+03  0.25617150108E+03  0.00000000000E+00 0.  1.
         21   -1    0    0  501  503 -0.00000000000E+00 -0.00000000000E+00 -0.19441939365E+00  0.19441939365E+00  0.00000000000E+00 0.  1.
          5    1    1    2  501    0  0.11157403016E+01 -0.10036004432E+01  0.36335554033E+02  0.36668986585E+02  0.47000000000E+01 0.  1.
         -5    1    1    2    0  502 -0.11157403016E+01  0.10036004432E+01  0.21964152765E+03  0.21969693388E+03  0.47000000000E+01 0.  1.
<mgrwt>
<rscale>  2 0.49337704E+01</rscale>
<asrwt>0</asrwt>
<pdfrwt beam="1">  1       21 0.39410730E-01 0.49337704E+01</pdfrwt>
<pdfrwt beam="2">  1       21 0.29910881E-04 0.49337704E+01</pdfrwt>
<totfact> 0.11980457E+09</totfact>
</mgrwt>
</event>
<event>
 4    1  0.4144004E+006  0.6230782E+01  0.7546771E-02  0.2386321E+00
         21   -1    0    0  503  502  0.00000000000E+00  0.00000000000E+00  0.11394463698E+02  0.11394463698E+02  0.00000000000E+00 0. -1.
         21   -1    0    0  501  503 -0.00000000000E+00 -0.00000000000E+00 -0.46456368670E+01  0.46456368670E+01  0.00000000000E+00 0. -1.
          5    1    1    2  501    0 -0.11525632077E+00 -0.40889318371E+01 -0.76653818982E+00  0.62777566363E+01  0.47000000000E+01 0. -1.
         -5    1    1    2    0  502  0.11525632077E+00  0.40889318371E+01  0.75153650211E+01  0.97623439290E+01  0.47000000000E+01 0. -1.
<mgrwt>
<rscale>  2 0.62307823E+01</rscale>
<asrwt>0</asrwt>
<pdfrwt beam="1">  1       21 0.17529944E-02 0.62307823E+01</pdfrwt>
<pdfrwt beam="2">  1       21 0.71471337E-03 0.62307823E+01</pdfrwt>
<totfact> 0.23550766E+09</totfact>
</mgrwt>
</event>
<event>
 4    1  0.4144004E+006  0.1638458E+02  0.7546771E-02  0.1828540E+00
         21   -1    0    0  501  502  0.00000000000E+00  0.00000000000E+00  0.45394394739E+00  0.45394394739E+00  0.00000000000E+00 0.  1.
         21   -1    0    0  502  503 -0.00000000000E+00 -0.00000000000E+00 -0.27089559841E+04  0.27089559841E+04  0.00000000000E+00 0. -1.
          5    1    1    2  501    0 -0.11911423880E+02 -0.10221662334E+02 -0.15650974175E+03  0.15736503317E+03  0.47000000000E+01 0.  1.
         -5    1    1    2    0  503  0.11911423880E+02  0.10221662334E+02 -0.25519922984E+04  0.25520448948E+04  0.47000000000E+01 0. -1.
<mgrwt>
<rscale>  2 0.16384578E+02</rscale>
<asrwt>0</asrwt>
<pdfrwt beam="1">  1       21 0.69836292E-04 0.16384578E+02</pdfrwt>
<pdfrwt beam="2">  1       21 0.41676985E+00 0.16384578E+02</pdfrwt>
<totfact> 0.21300028E+06</totfact>
</mgrwt>
</event>
<event>
 4    1  0.4144004E+006  0.5017450E+01  0.7546771E-02  0.2564067E+00
         21   -1    0    0  503  502  0.00000000000E+00  0.00000000000E+00  0.12481185802E+00  0.12481185802E+00  0.00000000000E+00 0.  1.
         21   -1    0    0  501  503 -0.00000000000E+00 -0.00000000000E+00 -0.20621954562E+04  0.20621954562E+04  0.00000000000E+00 0.  1.
          5    1    1    2  501    0 -0.35790598725E+00 -0.17195078189E+01 -0.20104695400E+04  0.20104758009E+04  0.47000000000E+01 0.  1.
         -5    1    1    2    0  502  0.35790598725E+00  0.17195078189E+01 -0.51601104298E+02  0.51844467098E+02  0.47000000000E+01 0.  1.
<mgrwt>
<rscale>  2 0.50174499E+01</rscale>
<asrwt>0</asrwt>
<pdfrwt beam="1">  1       21 0.19200284E-04 0.50174499E+01</pdfrwt>
<pdfrwt beam="2">  1       21 0.31728630E+00 0.50174499E+01</pdfrwt>
<totfact> 0.31207674E+07</totfact>
</mgrwt>
</event>
<event>
 4    1  0.4144004E+006  0.5463112E+01  0.7546771E-02  0.2491020E+00
         21   -1    0    0  501  502  0.00000000000E+00  0.00000000000E+00  0.17230317016E+02  0.17230317016E+02  0.00000000000E+00 0. -1.
         21   -1    0    0  502  503 -0.00000000000E+00 -0.00000000000E+00 -0.17846291244E+01  0.17846291244E+01  0.00000000000E+00 0.  1.
          5    1    1    2  501    0 -0.14635326632E+01  0.23693182053E+01  0.60925734427E+01  0.81832174460E+01  0.47000000000E+01 0.  1.
         -5    1    1    2    0  503  0.14635326632E+01 -0.23693182053E+01  0.93531144490E+01  0.10831728694E+02  0.47000000000E+01 0. -1.
<mgrwt>
<rscale>  2 0.54631124E+01</rscale>
<asrwt>0</asrwt>
<pdfrwt beam="1">  1       21 0.26508179E-02 0.54631124E+01</pdfrwt>
<pdfrwt beam="2">  1       21 0.27455834E-03 0.54631124E+01</pdfrwt>
<totfact> 0.43356216E+09</totfact>
</mgrwt>
</event>
<event>
 4    1  0.4144004E+006  0.5019365E+01  0.7546771E-02  0.2563730E+00
         21   -1    0    0  503  502  0.00000000000E+00  0.00000000000E+00  0.64980452249E+00  0.64980452249E+00  0.00000000000E+00 0.  1.
         21   -1    0    0  501  503 -0.00000000000E+00 -0.00000000000E+00 -0.80594715388E+02  0.80594715388E+02  0.00000000000E+00 0.  1.
          5    1    1    2  501    0  0.13477072830E+01 -0.11347732662E+01 -0.69235430323E+02  0.69417136481E+02  0.47000000000E+01 0.  1.
         -5    1    1    2    0  502 -0.13477072830E+01  0.11347732662E+01 -0.10709480543E+02  0.11827383430E+02  0.47000000000E+01 0.  1.
<mgrwt>
<rscale>  2 0.50193650E+01</rscale>
<asrwt>0</asrwt>
<pdfrwt beam="1">  1       21 0.99969922E-04 0.50193650E+01</pdfrwt>
<pdfrwt beam="2">  1       21 0.12399188E-01 0.50193650E+01</pdfrwt>
<totfact> 0.15859085E+09</totfact>
</mgrwt>
</event>
<event>
 4    1  0.4144004E+006  0.5223137E+01  0.7546771E-02  0.2529029E+00
         21   -1    0    0  501  502  0.00000000000E+00  0.00000000000E+00  0.69546441786E+02  0.69546441786E+02  0.00000000000E+00 0. -1.
         21   -1    0    0  502  503 -0.00000000000E+00 -0.00000000000E+00 -0.54126122996E+00  0.54126122996E+00  0.00000000000E+00 0. -1.
          5    1    1    2  501    0  0.13020383795E+01  0.18697199336E+01  0.16116682361E+02  0.16941918631E+02  0.47000000000E+01 0. -1.
         -5    1    1    2    0  503 -0.13020383795E+01 -0.18697199336E+01  0.52888498195E+02  0.53145784385E+02  0.47000000000E+01 0. -1.
<mgrwt>
<rscale>  2 0.52231367E+01</rscale>
<asrwt>0</asrwt>
<pdfrwt beam="1">  1       21 0.10699445E-01 0.52231367E+01</pdfrwt>
<pdfrwt beam="2">  1       21 0.83271014E-04 0.52231367E+01</pdfrwt>
<totfact> 0.26312089E+09</totfact>
</mgrwt>
</event>
<event>
 4    1  0.4144004E+006  0.5195674E+01  0.7546771E-02  0.2533570E+00
         21   -1    0    0  503  502  0.00000000000E+00  0.00000000000E+00  0.38364137830E+02  0.38364137830E+02  0.00000000000E+00 0.  1.
         21   -1    0    0  501  503 -0.00000000000E+00 -0.00000000000E+00 -0.32648348104E+01  0.32648348104E+01  0.00000000000E+00 0.  1.
          5    1    1    2  501    0 -0.28040029753E+00 -0.21969074514E+01 -0.88586571312E+00  0.52706531605E+01  0.47000000000E+01 0.  1.
         -5    1    1    2    0  502  0.28040029753E+00  0.21969074514E+01  0.35985168733E+02  0.36358319480E+02  0.47000000000E+01 0.  1.
<mgrwt>
<rscale>  2 0.51956738E+01</rscale>
<asrwt>0</asrwt>
<pdfrwt beam="1">  1       21 0.59021747E-02 0.51956738E+01</pdfrwt>
<pdfrwt beam="2">  1       21 0.50228230E-03 0.51956738E+01</pdfrwt>
<totfact> 0.56372162E+08</totfact>
</mgrwt>
</event>
<event>
 4    1  0.4144004E+006  0.9240026E+01  0.7546771E-02  0.2121007E+00
         21   -1    0    0  501  502  0.00000000000E+00  0.00000000000E+00  0.57005882058E+00  0.57005882058E+00  0.00000000000E+00 0. -1.
         21   -1    0    0  502  503 -0.00000000000E+00 -0.00000000000E+00 -0.15293314890E+03  0.15293314890E+03  0.00000000000E+00 0.  1.
          5    1    1    2  501    0  0.22927729226E+01  0.76178257037E+01 -0.87218577349E+02  0.87706660585E+02  0.47000000000E+01 0.  1.
         -5    1    1    2    0  503 -0.22927729226E+01 -0.76178257037E+01 -0.65144512730E+02  0.65796547135E+02  0.47000000000E+01 0. -1.
<mgrwt>
<rscale>  2 0.92400258E+01</rscale>
<asrwt>0</asrwt>
<pdfrwt beam="1">  1       21 0.87701341E-04 0.92400258E+01</pdfrwt>
<pdfrwt beam="2">  1       21 0.23528181E-01 0.92400258E+01</pdfrwt>
<totfact> 0.10592326E+09</totfact>
</mgrwt>
</event>
<event>
 4    1  0.4144004E+006  0.6377361E+01  0.7546771E-02  0.2368753E+00
         21   -1    0    0  503  502  0.00000000000E+00  0.00000000000E+00  0.15465849079E+01  0.15465849079E+01  0.00000000000E+00 0. -1.
         21   -1    0    0  501  503 -0.00000000000E+00 -0.00000000000E+00 -0.26621419475E+02  0.26621419475E+02  0.00000000000E+00 0.  1.
          5    1    1    2  501    0 -0.24647942902E+01  0.35363156019E+01 -0.14091876265E+02  0.15467763755E+02  0.47000000000E+01 0.  1.
         -5    1    1    2    0  502  0.24647942902E+01 -0.35363156019E+01 -0.10982958303E+02  0.12700240628E+02  0.47000000000E+01 0.  1.
<mgrwt>
<rscale>  2 0.63773614E+01</rscale>
<asrwt>0</asrwt>
<pdfrwt beam="1">  1       21 0.23793618E-03 0.63773614E+01</pdfrwt>
<pdfrwt beam="2">  1       21 0.40956024E-02 0.63773614E+01</pdfrwt>
<totfact> 0.32161529E+09</totfact>
</mgrwt>
</event>
<event>
 4    1  0.4144004E+006  0.4875426E+01  0.7546771E-02  0.2589739E+00
         21   -1    0    0  501  502  0.00000000000E+00  0.00000000000E+00  0.22831497133E-01  0.22831497133E-01  0.00000000000E+00 0. -1.
         21   -1    0    0  502  503 -0.00000000000E+00 -0.00000000000E+00 -0.10496675725E+04  0.10496675725E+04  0.00000000000E+00 0. -1.
          5    1    1    2  501    0 -0.10121441868E+01  0.80953264906E+00 -0.57225062216E+03  0.57227139046E+03  0.47000000000E+01 0. -1.
         -5    1    1    2    0  503  0.10121441868E+01 -0.80953264906E+00 -0.47739411880E+03  0.47741901349E+03  0.47000000000E+01 0. -1.
<mgrwt>
<rscale>  2 0.48754260E+01</rscale>
<asrwt>0</asrwt>
<pdfrwt beam="1">  1       21 0.35131567E-05 0.48754260E+01</pdfrwt>
<pdfrwt beam="2">  1       21 0.16145888E+00 0.48754260E+01</pdfrwt>
<totfact> 0.13792145E+09</totfact>
</mgrwt>
</event>
<event>
 4    1  0.4144004E+006  0.5600078E+01  0.7546771E-02  0.2470575E+00
         21   -1    0    0  503  502  0.00000000000E+00  0.00000000000E+00  0.65003663117E+01  0.65003663117E+01  0.00000000000E+00 0. -1.
         21   -1    0    0  501  503 -0.00000000000E+00 -0.00000000000E+00 -0.49799755017E+01  0.49799755017E+01  0.00000000000E+00 0.  1.
          5    1    1    2  501    0 -0.22978206529E+01 -0.19977219861E+01 -0.25412047231E+00  0.56058407131E+01  0.47000000000E+01 0.  1.
         -5    1    1    2    0  502  0.22978206529E+01  0.19977219861E+01  0.17745112823E+01  0.58745011003E+01  0.47000000000E+01 0.  1.
<mgrwt>
<rscale>  2 0.56000779E+01</rscale>
<asrwt>0</asrwt>
<pdfrwt beam="1">  1       21 0.10000564E-02 0.56000779E+01</pdfrwt>
<pdfrwt beam="2">  1       21 0.76615007E-03 0.56000779E+01</pdfrwt>
<totfact> 0.43051944E+09</totfact>
</mgrwt>
</event>
<event>
 4    1  0.4144004E+006  0.5170947E+01  0.7546771E-02  0.2537693E+00
         21   -1    0    0  503  502  0.00000000000E+00  0.00000000000E+00  0.10303906039E+00  0.10303906039E+00  0.00000000000E+00 0. -1.
         21   -1    0    0  501  503 -0.00000000000E+00 -0.00000000000E+00 -0.31645188803E+03  0.31645188803E+03  0.00000000000E+00 0. -1.
          5    1    1    2  501    0 -0.20109074505E+00  0.21466851022E+01 -0.22531996036E+03  0.22537928749E+03  0.47000000000E+01 0. -1.
         -5    1    1    2    0  502  0.20109074505E+00 -0.21466851022E+01 -0.91028888613E+02  0.91175639600E+02  0.47000000000E+01 0. -1.
<mgrwt>
<rscale>  2 0.51709471E+01</rscale>
<asrwt>0</asrwt>
<pdfrwt beam="1">  1       21 0.15852297E-04 0.51709471E+01</pdfrwt>
<pdfrwt beam="2">  1       21 0.48684495E-01 0.51709471E+01</pdfrwt>
<totfact> 0.20014165E+09</totfact>
</mgrwt>
</event>
<event>
 4    1  0.4144004E+006  0.4766354E+01  0.7546771E-02  0.2610350E+00
         21   -1    0    0  503  502  0.00000000000E+00  0.00000000000E+00  0.47100501618E+00  0.47100501618E+00  0.00000000000E+00 0.  1.
         21   -1    0    0  501  503 -0.00000000000E+00 -0.00000000000E+00 -0.48251052029E+02  0.48251052029E+02  0.00000000000E+00 0.  1.
          5    1    1    2  501    0 -0.26175480813E+00 -0.74807616576E+00 -0.24357088163E+02  0.24819062780E+02  0.47000000000E+01 0.  1.
         -5    1    1    2    0  502  0.26175480813E+00  0.74807616576E+00 -0.23422958850E+02  0.23902994264E+02  0.47000000000E+01 0.  1.
<mgrwt>
<rscale>  2 0.47663543E+01</rscale>
<asrwt>0</asrwt>
<pdfrwt beam="1">  1       21 0.72462303E-04 0.47663543E+01</pdfrwt>
<pdfrwt beam="2">  1       21 0.74232395E-02 0.47663543E+01</pdfrwt>
<totfact> 0.49957726E+09</totfact>
</mgrwt>
</event>
<event>
 4    1  0.4144004E+006  0.1014853E+02  0.7546771E-02  0.2066632E+00
         21   -1    0    0  503  502  0.00000000000E+00  0.00000000000E+00  0.27420685657E+03  0.27420685657E+03  0.00000000000E+00 0. -1.
         21   -1    0    0  501  503 -0.00000000000E+00 -0.00000000000E+00 -0.12874509378E+01  0.12874509378E+01  0.00000000000E+00 0.  1.
          5    1    1    2  501    0 -0.74680139062E+00 -0.89635332468E+01  0.20534266031E+02  0.22905211678E+02  0.47000000000E+01 0.  1.
         -5    1    1    2    0  502  0.74680139062E+00  0.89635332468E+01  0.25238513960E+03  0.25258909583E+03  0.47000000000E+01 0. -1.
<mgrwt>
<rscale>  2 0.10148529E+02</rscale>
<asrwt>0</asrwt>
<pdfrwt beam="1">  1       21 0.42185624E-01 0.10148529E+02</pdfrwt>
<pdfrwt beam="2">  1       21 0.19806959E-03 0.10148529E+02</pdfrwt>
<totfact> 0.12931596E+08</totfact>
</mgrwt>
</event>
<event>
 4    1  0.4144004E+006  0.4767751E+01  0.7546771E-02  0.2610081E+00
         21   -1    0    0  501  502  0.00000000000E+00  0.00000000000E+00  0.37006126656E+01  0.37006126656E+01  0.00000000000E+00 0.  1.
         21   -1    0    0  502  503 -0.00000000000E+00 -0.00000000000E+00 -0.62369682647E+01  0.62369682647E+01  0.00000000000E+00 0.  1.
          5    1    1    2  501    0  0.73277987036E+00  0.32323965167E+00 -0.18793102262E+01  0.51247689838E+01  0.47000000000E+01 0.  1.
         -5    1    1    2    0  503 -0.73277987036E+00 -0.32323965167E+00 -0.65704537284E+00  0.48128119465E+01  0.47000000000E+01 0.  1.
<mgrwt>
<rscale>  2 0.47677511E+01</rscale>
<asrwt>0</asrwt>
<pdfrwt beam="1">  1       21 0.56932503E-03 0.47677511E+01</pdfrwt>
<pdfrwt beam="2">  1       21 0.95953357E-03 0.47677511E+01</pdfrwt>
<totfact> 0.58224710E+09</totfact>
</mgrwt>
</event>
<event>
 4    1  0.4144004E+006  0.5803693E+01  0.7546771E-02  0.2441696E+00
         21   -1    0    0  503  502  0.00000000000E+00  0.00000000000E+00  0.59126748561E+02  0.59126748561E+02  0.00000000000E+00 0. -1.
         21   -1    0    0  501  503 -0.00000000000E+00 -0.00000000000E+00 -0.16785302545E+01  0.16785302545E+01  0.00000000000E+00 0.  1.
          5    1    1    2  501    0 -0.13945705339E+01  0.31061262111E+01  0.40134267540E+01  0.70562342168E+01  0.47000000000E+01 0.  1.
         -5    1    1    2    0  502  0.13945705339E+01 -0.31061262111E+01  0.53434791552E+02  0.53749044599E+02  0.47000000000E+01 0. -1.
<mgrwt>
<rscale>  2 0.58036925E+01</rscale>
<asrwt>0</asrwt>
<pdfrwt beam="1">  1       21 0.90964212E-02 0.58036925E+01</pdfrwt>
<pdfrwt beam="2">  1       21 0.25823547E-03 0.58036925E+01</pdfrwt>
<totfact> 0.80494131E+08</totfact>
</mgrwt>
</event>
<event>
 4    1  0.4144004E+006  0.6991371E+01  0.7546771E-02  0.2301865E+00
         21   -1    0    0  501  502  0.00000000000E+00  0.00000000000E+00  0.54463820603E+01  0.54463820603E+01  0.00000000000E+00 0. -1.
         21   -1    0    0  502  503 -0.00000000000E+00 -0.00000000000E+00 -0.11957149478E+02  0.11957149478E+02  0.00000000000E+00 0. -1.
          5    1    1    2  501    0 -0.49634493590E+01  0.14674623163E+01  0.10905695605E+01  0.70759181139E+01  0.47000000000E+01 0.  1.
         -5    1    1    2    0  503  0.49634493590E+01 -0.14674623163E+01 -0.76013369782E+01  0.10327613424E+02  0.47000000000E+01 0.  1.
<mgrwt>
<rscale>  2 0.69913715E+01</rscale>
<asrwt>0</asrwt>
<pdfrwt beam="1">  1       21 0.83790494E-03 0.69913715E+01</pdfrwt>
<pdfrwt beam="2">  1       21 0.18395614E-02 0.69913715E+01</pdfrwt>
<totfact> 0.19274206E+09</totfact>
</mgrwt>
</event>
<event>
 4    1  0.4144004E+006  0.5676004E+01  0.7546771E-02  0.2459601E+00
         21   -1    0    0  501  502  0.00000000000E+00  0.00000000000E+00  0.52045996523E+00  0.52045996523E+00  0.00000000000E+00 0. -1.
         21   -1    0    0  502  503 -0.00000000000E+00 -0.00000000000E+00 -0.67029841189E+02  0.67029841189E+02  0.00000000000E+00 0. -1.
          5    1    1    2  501    0 -0.19451292831E+01  0.25186292119E+01 -0.42597349392E+02  0.42973843164E+02  0.47000000000E+01 0.  1.
         -5    1    1    2    0  503  0.19451292831E+01 -0.25186292119E+01 -0.23912031831E+02  0.24576457990E+02  0.47000000000E+01 0.  1.
<mgrwt>
<rscale>  2 0.56760040E+01</rscale>
<asrwt>0</asrwt>
<pdfrwt beam="1">  1       21 0.80070824E-04 0.56760040E+01</pdfrwt>
<pdfrwt beam="2">  1       21 0.10312276E-01 0.56760040E+01</pdfrwt>
<totfact> 0.31664055E+09</totfact>
</mgrwt>
</event>
<event>
 4    1  0.4144004E+006  0.6451755E+01  0.7546771E-02  0.2360091E+00
         21   -1    0    0  503  502  0.00000000000E+00  0.00000000000E+00  0.60731960388E+00  0.60731960388E+00  0.00000000000E+00 0. -1.
         21   -1    0    0  501  503 -0.00000000000E+00 -0.00000000000E+00 -0.68558433749E+02  0.68558433749E+02  0.00000000000E+00 0.  1.
          5    1    1    2  501    0 -0.26239744539E+01  0.35566693359E+01 -0.33394798792E+02  0.34012317255E+02  0.47000000000E+01 0. -1.
         -5    1    1    2    0  502  0.26239744539E+01 -0.35566693359E+01 -0.34556315353E+02  0.35153436098E+02  0.47000000000E+01 0.  1.
<mgrwt>
<rscale>  2 0.64517547E+01</rscale>
<asrwt>0</asrwt>
<pdfrwt beam="1">  1       21 0.93433837E-04 0.64517547E+01</pdfrwt>
<pdfrwt beam="2">  1       21 0.10547445E-01 0.64517547E+01</pdfrwt>
<totfact> 0.27727736E+09</totfact>
</mgrwt>
</event>
<event>
 4    1  0.4144004E+006  0.8131080E+01  0.7546771E-02  0.2200116E+00
         21   -1    0    0  501  502  0.00000000000E+00  0.00000000000E+00  0.99104912245E+01  0.99104912245E+01  0.00000000000E+00 0.  1.
         21   -1    0    0  502  503 -0.00000000000E+00 -0.00000000000E+00 -0.86293707444E+01  0.86293707444E+01  0.00000000000E+00 0. -1.
          5    1    1    2  501    0 -0.64663207231E+01  0.14869984677E+01 -0.37753140519E+01  0.89647902556E+01  0.47000000000E+01 0. -1.
         -5    1    1    2    0  503  0.64663207231E+01 -0.14869984677E+01  0.50564345321E+01  0.95750717133E+01  0.47000000000E+01 0.  1.
<mgrwt>
<rscale>  2 0.81310804E+01</rscale>
<asrwt>0</asrwt>
<pdfrwt beam="1">  1       21 0.15246910E-02 0.81310804E+01</pdfrwt>
<pdfrwt beam="2">  1       21 0.13275955E-02 0.81310804E+01</pdfrwt>
<totfact> 0.14621113E+09</totfact>
</mgrwt>
</event>
<event>
 4    1  0.4144004E+006  0.5460700E+01  0.7546771E-02  0.2491388E+00
         21   -1    0    0  503  502  0.00000000000E+00  0.00000000000E+00  0.91020391918E+01  0.91020391918E+01  0.00000000000E+00 0.  1.
         21   -1    0    0  501  503 -0.00000000000E+00 -0.00000000000E+00 -0.37207398817E+01  0.37207398817E+01  0.00000000000E+00 0. -1.
          5    1    1    2  501    0  0.26745049909E+01  0.75912290058E+00  0.47429721175E+00  0.54812591956E+01  0.47000000000E+01 0. -1.
         -5    1    1    2    0  502 -0.26745049909E+01 -0.75912290058E+00  0.49070020983E+01  0.73415198779E+01  0.47000000000E+01 0. -1.
<mgrwt>
<rscale>  2 0.54607000E+01</rscale>
<asrwt>0</asrwt>
<pdfrwt beam="1">  1       21 0.14003137E-02 0.54607000E+01</pdfrwt>
<pdfrwt beam="2">  1       21 0.57242152E-03 0.54607000E+01</pdfrwt>
<totfact> 0.39230879E+09</totfact>
</mgrwt>
</event>
<event>
 4    1  0.4144004E+006  0.5250840E+01  0.7546771E-02  0.2524490E+00
         21   -1    0    0  501  502  0.00000000000E+00  0.00000000000E+00  0.59455376711E+00  0.59455376711E+00  0.00000000000E+00 0. -1.
         21   -1    0    0  502  503 -0.00000000000E+00 -0.00000000000E+00 -0.75301865462E+02  0.75301865462E+02  0.00000000000E+00 0. -1.
          5    1    1    2  501    0 -0.26980887215E+00 -0.23256231371E+01 -0.13832798939E+02  0.14795865851E+02  0.47000000000E+01 0. -1.
         -5    1    1    2    0  503  0.26980887215E+00  0.23256231371E+01 -0.60874512756E+02  0.61100553377E+02  0.47000000000E+01 0. -1.
<mgrwt>
<rscale>  2 0.52508399E+01</rscale>
<asrwt>0</asrwt>
<pdfrwt beam="1">  1       21 0.91469807E-04 0.52508399E+01</pdfrwt>
<pdfrwt beam="2">  1       21 0.11584903E-01 0.52508399E+01</pdfrwt>
<totfact> 0.20666272E+09</totfact>
</mgrwt>
</event>
<event>
 4    1  0.4144004E+006  0.9149724E+01  0.7546771E-02  0.2126874E+00
         21   -1    0    0  501  502  0.00000000000E+00  0.00000000000E+00  0.41856142457E+00  0.41856142457E+00  0.00000000000E+00 0.  1.
         21   -1    0    0  502  503 -0.00000000000E+00 -0.00000000000E+00 -0.21155960904E+03  0.21155960904E+03  0.00000000000E+00 0. -1.
          5    1    1    2  501    0 -0.61677675166E+01 -0.48565520407E+01 -0.80808608552E+02  0.81324957240E+02  0.47000000000E+01 0.  1.
         -5    1    1    2    0  503  0.61677675166E+01  0.48565520407E+01 -0.13033243906E+03  0.13065321322E+03  0.47000000000E+01 0. -1.
<mgrwt>
<rscale>  2 0.91497243E+01</rscale>
<asrwt>0</asrwt>
<pdfrwt beam="1">  1       21 0.64394040E-04 0.91497243E+01</pdfrwt>
<pdfrwt beam="2">  1       21 0.32547645E-01 0.91497243E+01</pdfrwt>
<totfact> 0.92017871E+08</totfact>
</mgrwt>
</event>
<event>
 4    1  0.4144004E+006  0.6032374E+01  0.7546771E-02  0.2411229E+00
         21   -1    0    0  501  502  0.00000000000E+00  0.00000000000E+00  0.10634306275E+01  0.10634306275E+01  0.00000000000E+00 0. -1.
         21   -1    0    0  502  503 -0.00000000000E+00 -0.00000000000E+00 -0.10804548211E+03  0.10804548211E+03  0.00000000000E+00 0. -1.
          5    1    1    2  501    0  0.28172712825E+01  0.25224043223E+01 -0.83955481718E+01  0.10338025447E+02  0.47000000000E+01 0. -1.
         -5    1    1    2    0  503 -0.28172712825E+01 -0.25224043223E+01 -0.98586503308E+02  0.98770887287E+02  0.47000000000E+01 0. -1.
<mgrwt>
<rscale>  2 0.60323744E+01</rscale>
<asrwt>0</asrwt>
<pdfrwt beam="1">  1       21 0.16360469E-03 0.60323744E+01</pdfrwt>
<pdfrwt beam="2">  1       21 0.16622384E-01 0.60323744E+01</pdfrwt>
<totfact> 0.60452134E+08</totfact>
</mgrwt>
</event>
<event>
 4    1  0.4144004E+006  0.5907347E+01  0.7546771E-02  0.2427641E+00
         21   -1    0    0  503  502  0.00000000000E+00  0.00000000000E+00  0.43479740573E+01  0.43479740573E+01  0.00000000000E+00 0. -1.
         21   -1    0    0  501  503 -0.00000000000E+00 -0.00000000000E+00 -0.21110186811E+02  0.21110186811E+02  0.00000000000E+00 0.  1.
          5    1    1    2  501    0  0.27066652027E+01  0.23410929311E+01 -0.18402420909E+02  0.19327334217E+02  0.47000000000E+01 0.  1.
         -5    1    1    2    0  502 -0.27066652027E+01 -0.23410929311E+01  0.16402081554E+01  0.61308266510E+01  0.47000000000E+01 0. -1.
<mgrwt>
<rscale>  2 0.59073473E+01</rscale>
<asrwt>0</asrwt>
<pdfrwt beam="1">  1       21 0.66891908E-03 0.59073473E+01</pdfrwt>
<pdfrwt beam="2">  1       21 0.32477211E-02 0.59073473E+01</pdfrwt>
<totfact> 0.10135629E+09</totfact>
</mgrwt>
</event>
<event>
 4    1  0.4144004E+006  0.5629088E+01  0.7546771E-02  0.2466352E+00
         21   -1    0    0  503  502  0.00000000000E+00  0.00000000000E+00  0.47013874875E+01  0.47013874875E+01  0.00000000000E+00 0. -1.
         21   -1    0    0  501  503 -0.00000000000E+00 -0.00000000000E+00 -0.94992584512E+01  0.94992584512E+01  0.00000000000E+00 0. -1.
          5    1    1    2  501    0 -0.30017207390E+01 -0.76570763543E+00 -0.62257853875E+01  0.83932734537E+01  0.47000000000E+01 0. -1.
         -5    1    1    2    0  502  0.30017207390E+01  0.76570763543E+00  0.14279144238E+01  0.58073724850E+01  0.47000000000E+01 0. -1.
<mgrwt>
<rscale>  2 0.56290883E+01</rscale>
<asrwt>0</asrwt>
<pdfrwt beam="1">  1       21 0.72329039E-03 0.56290883E+01</pdfrwt>
<pdfrwt beam="2">  1       21 0.14614244E-02 0.56290883E+01</pdfrwt>
<totfact> 0.27442491E+09</totfact>
</mgrwt>
</event>
<event>
 4    1  0.4144004E+006  0.5638457E+01  0.7546771E-02  0.2464997E+00
         21   -1    0    0  501  502  0.00000000000E+00  0.00000000000E+00  0.29797919719E+00  0.29797919719E+00  0.00000000000E+00 0. -1.
         21   -1    0    0  502  503 -0.00000000000E+00 -0.00000000000E+00 -0.13060286452E+03  0.13060286452E+03  0.00000000000E+00 0.  1.
          5    1    1    2  501    0  0.26663333012E+01  0.16102372934E+01 -0.37147956072E+02  0.37573432605E+02  0.47000000000E+01 0. -1.
         -5    1    1    2    0  503 -0.26663333012E+01 -0.16102372934E+01 -0.93156929246E+02  0.93327411108E+02  0.47000000000E+01 0.  1.
<mgrwt>
<rscale>  2 0.56384570E+01</rscale>
<asrwt>0</asrwt>
<pdfrwt beam="1">  1       21 0.45842835E-04 0.56384570E+01</pdfrwt>
<pdfrwt beam="2">  1       21 0.20092800E-01 0.56384570E+01</pdfrwt>
<totfact> 0.23295945E+09</totfact>
</mgrwt>
</event>
<event>
 4    1  0.4144004E+006  0.7639231E+01  0.7546771E-02  0.2241000E+00
         21   -1    0    0  503  502  0.00000000000E+00  0.00000000000E+00  0.62874070808E+01  0.62874070808E+01  0.00000000000E+00 0.  1.
         21   -1    0    0  501  503 -0.00000000000E+00 -0.00000000000E+00 -0.98884851839E+01  0.98884851839E+01  0.00000000000E+00 0. -1.
          5    1    1    2  501    0 -0.51865801955E+01  0.30605930771E+01 -0.38040413133E+01  0.85339659257E+01  0.47000000000E+01 0. -1.
         -5    1    1    2    0  502  0.51865801955E+01 -0.30605930771E+01  0.20296321014E+00  0.76419263391E+01  0.47000000000E+01 0.  1.
<mgrwt>
<rscale>  2 0.76392306E+01</rscale>
<asrwt>0</asrwt>
<pdfrwt beam="1">  1       21 0.96729340E-03 0.76392306E+01</pdfrwt>
<pdfrwt beam="2">  1       21 0.15213054E-02 0.76392306E+01</pdfrwt>
<totfact> 0.22118235E+09</totfact>
</mgrwt>
</event>
<event>
 4    1  0.4144004E+006  0.1005422E+02  0.7546771E-02  0.2071915E+00
         21   -1    0    0  503  502  0.00000000000E+00  0.00000000000E+00  0.32724991549E+03  0.32724991549E+03  0.00000000000E+00 0.  1.
         21   -1    0    0  501  503 -0.00000000000E+00 -0.00000000000E+00 -0.55972560194E+00  0.55972560194E+00  0.00000000000E+00 0. -1.
          5    1    1    2  501    0  0.56419147297E+01 -0.68677658240E+01  0.53623955419E+02  0.54558372446E+02  0.47000000000E+01 0. -1.
         -5    1    1    2    0  502 -0.56419147297E+01  0.68677658240E+01  0.27306623447E+03  0.27325126864E+03  0.47000000000E+01 0.  1.
<mgrwt>
<rscale>  2 0.10054223E+02</rscale>
<asrwt>0</asrwt>
<pdfrwt beam="1">  1       21 0.50345988E-01 0.10054223E+02</pdfrwt>
<pdfrwt beam="2">  1       21 0.86111892E-04 0.10054223E+02</pdfrwt>
<totfact> 0.29509337E+08</totfact>
</mgrwt>
</event>
<event>
 4    1  0.4144004E+006  0.4747749E+01  0.7546771E-02  0.2613947E+00
         21   -1    0    0  501  502  0.00000000000E+00  0.00000000000E+00  0.53556705313E+01  0.53556705313E+01  0.00000000000E+00 0.  1.
         21   -1    0    0  502  503 -0.00000000000E+00 -0.00000000000E+00 -0.25475685826E+02  0.25475685826E+02  0.00000000000E+00 0.  1.
          5    1    1    2  501    0  0.52071042001E+00  0.42423862744E+00  0.40248128220E+01  0.62241654867E+01  0.47000000000E+01 0.  1.
         -5    1    1    2    0  503 -0.52071042001E+00 -0.42423862744E+00 -0.24144828116E+02  0.24607190870E+02  0.47000000000E+01 0.  1.
<mgrwt>
<rscale>  2 0.47477487E+01</rscale>
<asrwt>0</asrwt>
<pdfrwt beam="1">  1       21 0.82394932E-03 0.47477487E+01</pdfrwt>
<pdfrwt beam="2">  1       21 0.39193362E-02 0.47477487E+01</pdfrwt>
<totfact> 0.47694904E+08</totfact>
</mgrwt>
</event>
<event>
 4    1  0.4144004E+006  0.7089420E+01  0.7546771E-02  0.2292072E+00
         21   -1    0    0  503  502  0.00000000000E+00  0.00000000000E+00  0.25605685721E+02  0.25605685721E+02  0.00000000000E+00 0. -1.
         21   -1    0    0  501  503 -0.00000000000E+00 -0.00000000000E+00 -0.24146382072E+01  0.24146382072E+01  0.00000000000E+00 0. -1.
          5    1    1    2  501    0 -0.52258686695E+01  0.92745649374E+00  0.55352938990E+01  0.89944070092E+01  0.47000000000E+01 0.  1.
         -5    1    1    2    0  502  0.52258686695E+01 -0.92745649374E+00  0.17655753615E+02  0.19025916919E+02  0.47000000000E+01 0.  1.
<mgrwt>
<rscale>  2 0.70894202E+01</rscale>
<asrwt>0</asrwt>
<pdfrwt beam="1">  1       21 0.39393361E-02 0.70894202E+01</pdfrwt>
<pdfrwt beam="2">  1       21 0.37148282E-03 0.70894202E+01</pdfrwt>
<totfact> 0.20029745E+09</totfact>
</mgrwt>
</event>
<event>
 4    1  0.4144004E+006  0.5496311E+01  0.7546771E-02  0.2485985E+00
         21   -1    0    0  503  502  0.00000000000E+00  0.00000000000E+00  0.69466461466E+00  0.69466461466E+00  0.00000000000E+00 0.  1.
         21   -1    0    0  501  503 -0.00000000000E+00 -0.00000000000E+00 -0.65852420168E+02  0.65852420168E+02  0.00000000000E+00 0.  1.
          5    1    1    2  501    0 -0.25078154988E+01 -0.13528827543E+01 -0.51969601095E+02  0.52259438078E+02  0.47000000000E+01 0.  1.
         -5    1    1    2    0  502  0.25078154988E+01  0.13528827543E+01 -0.13188154459E+02  0.14287646705E+02  0.47000000000E+01 0.  1.
<mgrwt>
<rscale>  2 0.54963106E+01</rscale>
<asrwt>0</asrwt>
<pdfrwt beam="1">  1       21 0.10687148E-03 0.54963106E+01</pdfrwt>
<pdfrwt beam="2">  1       21 0.10131141E-01 0.54963106E+01</pdfrwt>
<totfact> 0.21493187E+09</totfact>
</mgrwt>
</event>
<event>
 4    1  0.4144004E+006  0.7048275E+01  0.7546771E-02  0.2296154E+00
         21   -1    0    0  503  502  0.00000000000E+00  0.00000000000E+00  0.31251509623E+02  0.31251509623E+02  0.00000000000E+00 0. -1.
         21   -1    0    0  501  503 -0.00000000000E+00 -0.00000000000E+00 -0.25478295438E+01  0.25478295438E+01  0.00000000000E+00 0.  1.
          5    1    1    2  501    0 -0.46595756780E+01  0.24241573705E+01  0.39879662224E+01  0.80982750662E+01  0.47000000000E+01 0.  1.
         -5    1    1    2    0  502  0.46595756780E+01 -0.24241573705E+01  0.24715713857E+02  0.25701064101E+02  0.47000000000E+01 0. -1.
<mgrwt>
<rscale>  2 0.70482753E+01</rscale>
<asrwt>0</asrwt>
<pdfrwt beam="1">  1       21 0.48079243E-02 0.70482753E+01</pdfrwt>
<pdfrwt beam="2">  1       21 0.39197380E-03 0.70482753E+01</pdfrwt>
<totfact> 0.13749955E+09</totfact>
</mgrwt>
</event>
<event>
 4    1  0.4144004E+006  0.7689824E+01  0.7546771E-02  0.2236600E+00
         21   -1    0    0  503  502  0.00000000000E+00  0.00000000000E+00  0.84593871087E+00  0.84593871087E+00  0.00000000000E+00 0.  1.
         21   -1    0    0  501  503 -0.00000000000E+00 -0.00000000000E+00 -0.71054554377E+02  0.71054554377E+02  0.00000000000E+00 0. -1.
          5    1    1    2  501    0  0.53866726219E+01  0.28332226025E+01 -0.39681576575E+02  0.40419808408E+02  0.47000000000E+01 0. -1.
         -5    1    1    2    0  502 -0.53866726219E+01 -0.28332226025E+01 -0.30527039091E+02  0.31480684679E+02  0.47000000000E+01 0. -1.
<mgrwt>
<rscale>  2 0.76898239E+01</rscale>
<asrwt>0</asrwt>
<pdfrwt beam="1">  1       21 0.13014443E-03 0.76898239E+01</pdfrwt>
<pdfrwt beam="2">  1       21 0.10931469E-01 0.76898239E+01</pdfrwt>
<totfact> 0.19083833E+09</totfact>
</mgrwt>
</event>
<event>
 4    1  0.4144004E+006  0.4950607E+01  0.7546771E-02  0.2575991E+00
         21   -1    0    0  501  502  0.00000000000E+00  0.00000000000E+00  0.46688593042E+01  0.46688593042E+01  0.00000000000E+00 0. -1.
         21   -1    0    0  502  503 -0.00000000000E+00 -0.00000000000E+00 -0.53394818812E+01  0.53394818812E+01  0.00000000000E+00 0.  1.
          5    1    1    2  501    0 -0.43644268276E+00  0.14926576771E+01  0.31482582572E+00  0.49606072670E+01  0.47000000000E+01 0. -1.
         -5    1    1    2    0  503  0.43644268276E+00 -0.14926576771E+01 -0.98544840276E+00  0.50477339184E+01  0.47000000000E+01 0.  1.
<mgrwt>
<rscale>  2 0.49506069E+01</rscale>
<asrwt>0</asrwt>
<pdfrwt beam="1">  1       21 0.71828604E-03 0.49506069E+01</pdfrwt>
<pdfrwt beam="2">  1       21 0.82145875E-03 0.49506069E+01</pdfrwt>
<totfact> 0.54642001E+09</totfact>
</mgrwt>
</event>
<event>
 4    1  0.4144004E+006  0.4718703E+01  0.7546771E-02  0.2619613E+00
         21   -1    0    0  503  502  0.00000000000E+00  0.00000000000E+00  0.10516453667E+01  0.10516453667E+01  0.00000000000E+00 0.  1.
         21   -1    0    0  501  503 -0.00000000000E+00 -0.00000000000E+00 -0.67461292352E+02  0.67461292352E+02  0.00000000000E+00 0.  1.
          5    1    1    2  501    0  0.20796655183E+00 -0.36457011143E+00 -0.61580896911E+02  0.61761420205E+02  0.47000000000E+01 0.  1.
         -5    1    1    2    0  502 -0.20796655183E+00  0.36457011143E+00 -0.48287500750E+01  0.67515175139E+01  0.47000000000E+01 0.  1.
<mgrwt>
<rscale>  2 0.47187034E+01</rscale>
<asrwt>0</asrwt>
<pdfrwt beam="1">  1       21 0.16179161E-03 0.47187034E+01</pdfrwt>
<pdfrwt beam="2">  1       21 0.10378660E-01 0.47187034E+01</pdfrwt>
<totfact> 0.10323990E+09</totfact>
</mgrwt>
</event>
<event>
 4    1  0.4144004E+006  0.5279962E+01  0.7546771E-02  0.2519763E+00
         21   -1    0    0  501  502  0.00000000000E+00  0.00000000000E+00  0.28228140085E+01  0.28228140085E+01  0.00000000000E+00 0.  1.
         21   -1    0    0  502  503 -0.00000000000E+00 -0.00000000000E+00 -0.77314867079E+02  0.77314867079E+02  0.00000000000E+00 0.  1.
          5    1    1    2  501    0 -0.18124175024E+01  0.15821326026E+01  0.17627791382E+00  0.52829040005E+01  0.47000000000E+01 0.  1.
         -5    1    1    2    0  503  0.18124175024E+01 -0.15821326026E+01 -0.74668330984E+02  0.74854777087E+02  0.47000000000E+01 0.  1.
<mgrwt>
<rscale>  2 0.52799622E+01</rscale>
<asrwt>0</asrwt>
<pdfrwt beam="1">  1       21 0.43427909E-03 0.52799622E+01</pdfrwt>
<pdfrwt beam="2">  1       21 0.11894595E-01 0.52799622E+01</pdfrwt>
<totfact> 0.24319629E+08</totfact>
</mgrwt>
</event>
<event>
 4    1  0.4144004E+006  0.6055260E+01  0.7546771E-02  0.2408286E+00
         21   -1    0    0  501  502  0.00000000000E+00  0.00000000000E+00  0.14777061933E+00  0.14777061933E+00  0.00000000000E+00 0.  1.
         21   -1    0    0  502  503 -0.00000000000E+00 -0.00000000000E+00 -0.27445241262E+03  0.27445241262E+03  0.00000000000E+00 0. -1.
          5    1    1    2  501    0  0.31287616689E+01  0.21879267787E+01 -0.94630823149E+02  0.94824357963E+02  0.47000000000E+01 0.  1.
         -5    1    1    2    0  503 -0.31287616689E+01 -0.21879267787E+01 -0.17967381885E+03  0.17977582528E+03  0.47000000000E+01 0. -1.
<mgrwt>
<rscale>  2 0.60552600E+01</rscale>
<asrwt>0</asrwt>
<pdfrwt beam="1">  1       21 0.22733950E-04 0.60552600E+01</pdfrwt>
<pdfrwt beam="2">  1       21 0.42223432E-01 0.60552600E+01</pdfrwt>
<totfact> 0.18094341E+09</totfact>
</mgrwt>
</event>
<event>
 4    1  0.4144004E+006  0.7863100E+01  0.7546771E-02  0.2221879E+00
         21   -1    0    0  501  502  0.00000000000E+00  0.00000000000E+00  0.78595496357E-01  0.78595496357E-01  0.00000000000E+00 0.  1.
         21   -1    0    0  502  503 -0.00000000000E+00 -0.00000000000E+00 -0.96754013626E+03  0.96754013626E+03  0.00000000000E+00 0.  1.
          5    1    1    2  501    0 -0.33925315516E+01  0.53131039600E+01 -0.27454654119E+03  0.27465911895E+03  0.47000000000E+01 0.  1.
         -5    1    1    2    0  503  0.33925315516E+01 -0.53131039600E+01 -0.69291499958E+03  0.69295961281E+03  0.47000000000E+01 0.  1.
<mgrwt>
<rscale>  2 0.78631002E+01</rscale>
<asrwt>0</asrwt>
<pdfrwt beam="1">  1       21 0.12091829E-04 0.78631002E+01</pdfrwt>
<pdfrwt beam="2">  1       21 0.14884970E+00 0.78631002E+01</pdfrwt>
<totfact> 0.41679663E+08</totfact>
</mgrwt>
</event>
<event>
 4    1  0.4144004E+006  0.9172778E+01  0.7546771E-02  0.2125367E+00
         21   -1    0    0  503  502  0.00000000000E+00  0.00000000000E+00  0.73815827635E+00  0.73815827635E+00  0.00000000000E+00 0.  1.
         21   -1    0    0  501  503 -0.00000000000E+00 -0.00000000000E+00 -0.12525434509E+03  0.12525434509E+03  0.00000000000E+00 0. -1.
          5    1    1    2  501    0 -0.50977084846E+00  0.78606609368E+01 -0.81152990489E+02  0.81669747900E+02  0.47000000000E+01 0. -1.
         -5    1    1    2    0  502  0.50977084846E+00 -0.78606609368E+01 -0.43363196329E+02  0.44322755471E+02  0.47000000000E+01 0.  1.
<mgrwt>
<rscale>  2 0.91727780E+01</rscale>
<asrwt>0</asrwt>
<pdfrwt beam="1">  1       21 0.11356292E-03 0.91727780E+01</pdfrwt>
<pdfrwt beam="2">  1       21 0.19269880E-01 0.91727780E+01</pdfrwt>
<totfact> 0.10329165E+09</totfact>
</mgrwt>
</event>
<event>
 4    1  0.4144004E+006  0.6988924E+01  0.7546771E-02  0.2302112E+00
         21   -1    0    0  501  502  0.00000000000E+00  0.00000000000E+00  0.43988343766E+01  0.43988343766E+01  0.00000000000E+00 0.  1.
         21   -1    0    0  502  503 -0.00000000000E+00 -0.00000000000E+00 -0.12333866172E+02  0.12333866172E+02  0.00000000000E+00 0. -1.
          5    1    1    2  501    0  0.40158417135E+01  0.32600726057E+01 -0.13257200477E+01  0.71135498668E+01  0.47000000000E+01 0.  1.
         -5    1    1    2    0  503 -0.40158417135E+01 -0.32600726057E+01 -0.66093117477E+01  0.96191506819E+01  0.47000000000E+01 0. -1.
<mgrwt>
<rscale>  2 0.69889240E+01</rscale>
<asrwt>0</asrwt>
<pdfrwt beam="1">  1       21 0.67674376E-03 0.69889240E+01</pdfrwt>
<pdfrwt beam="2">  1       21 0.18975178E-02 0.69889240E+01</pdfrwt>
<totfact> 0.24922078E+09</totfact>
</mgrwt>
</event>
<event>
 4    1  0.4144004E+006  0.5208549E+01  0.7546771E-02  0.2531436E+00
         21   -1    0    0  503  502  0.00000000000E+00  0.00000000000E+00  0.23128491771E-01  0.23128491771E-01  0.00000000000E+00 0. -1.
         21   -1    0    0  501  503 -0.00000000000E+00 -0.00000000000E+00 -0.14307755933E+04  0.14307755933E+04  0.00000000000E+00 0.  1.
          5    1    1    2  501    0 -0.22188846625E+01 -0.33990829993E+00 -0.10190521957E+04  0.10190655065E+04  0.47000000000E+01 0.  1.
         -5    1    1    2    0  502  0.22188846625E+01  0.33990829993E+00 -0.41170026912E+03  0.41173321530E+03  0.47000000000E+01 0. -1.
<mgrwt>
<rscale>  2 0.52085494E+01</rscale>
<asrwt>0</asrwt>
<pdfrwt beam="1">  1       21 0.35575707E-05 0.52085494E+01</pdfrwt>
<pdfrwt beam="2">  1       21 0.22016009E+00 0.52085494E+01</pdfrwt>
<totfact> 0.72176330E+08</totfact>
</mgrwt>
</event>
<event>
 4    1  0.4144004E+006  0.5285028E+01  0.7546771E-02  0.2518945E+00
         21   -1    0    0  503  502  0.00000000000E+00  0.00000000000E+00  0.26887131550E+00  0.26887131550E+00  0.00000000000E+00 0.  1.
         21   -1    0    0  501  503 -0.00000000000E+00 -0.00000000000E+00 -0.15140050484E+03  0.15140050484E+03  0.00000000000E+00 0. -1.
          5    1    1    2  501    0 -0.14184710578E+01 -0.19569014376E+01 -0.11804976407E+03  0.11816800887E+03  0.47000000000E+01 0. -1.
         -5    1    1    2    0  502  0.14184710578E+01  0.19569014376E+01 -0.33081869457E+02  0.33501367288E+02  0.47000000000E+01 0.  1.
<mgrwt>
<rscale>  2 0.52850282E+01</rscale>
<asrwt>0</asrwt>
<pdfrwt beam="1">  1       21 0.41364731E-04 0.52850282E+01</pdfrwt>
<pdfrwt beam="2">  1       21 0.23292434E-01 0.52850282E+01</pdfrwt>
<totfact> 0.19885157E+09</totfact>
</mgrwt>
</event>
<event>
 4    1  0.4144004E+006  0.9030027E+01  0.7546771E-02  0.2134793E+00
         21   -1    0    0  501  502  0.00000000000E+00  0.00000000000E+00  0.26590549414E+01  0.26590549414E+01  0.00000000000E+00 0. -1.
         21   -1    0    0  502  503 -0.00000000000E+00 -0.00000000000E+00 -0.30742164945E+02  0.30742164945E+02  0.00000000000E+00 0.  1.
          5    1    1    2  501    0  0.39603962675E-01  0.77103711267E+01 -0.13207850540E+02  0.15999647098E+02  0.47000000000E+01 0.  1.
         -5    1    1    2    0  503 -0.39603962675E-01 -0.77103711267E+01 -0.14875259464E+02  0.17401572788E+02  0.47000000000E+01 0.  1.
<mgrwt>
<rscale>  2 0.90300272E+01</rscale>
<asrwt>0</asrwt>
<pdfrwt beam="1">  1       21 0.40908539E-03 0.90300272E+01</pdfrwt>
<pdfrwt beam="2">  1       21 0.47295637E-02 0.90300272E+01</pdfrwt>
<totfact> 0.15743217E+09</totfact>
</mgrwt>
</event>
<event>
 4    1  0.4144004E+006  0.6329643E+01  0.7546771E-02  0.2374398E+00
         21   -1    0    0  503  502  0.00000000000E+00  0.00000000000E+00  0.13051751730E+02  0.13051751730E+02  0.00000000000E+00 0. -1.
         21   -1    0    0  501  503 -0.00000000000E+00 -0.00000000000E+00 -0.31749639808E+01  0.31749639808E+01  0.00000000000E+00 0.  1.
          5    1    1    2  501    0  0.12165873230E+01 -0.40613166034E+01  0.34607711199E+01  0.72139665935E+01  0.47000000000E+01 0.  1.
         -5    1    1    2    0  502 -0.12165873230E+01  0.40613166034E+01  0.64160166298E+01  0.90127491178E+01  0.47000000000E+01 0. -1.
<mgrwt>
<rscale>  2 0.63296427E+01</rscale>
<asrwt>0</asrwt>
<pdfrwt beam="1">  1       21 0.20079618E-02 0.63296427E+01</pdfrwt>
<pdfrwt beam="2">  1       21 0.48845601E-03 0.63296427E+01</pdfrwt>
<totfact> 0.33436277E+09</totfact>
</mgrwt>
</event>
<event>
 4    1  0.4144004E+006  0.6441553E+01  0.7546771E-02  0.2361269E+00
         21   -1    0    0  501  502  0.00000000000E+00  0.00000000000E+00  0.75354266561E+02  0.75354266561E+02  0.00000000000E+00 0.  1.
         21   -1    0    0  502  503 -0.00000000000E+00 -0.00000000000E+00 -0.30635327609E+01  0.30635327609E+01  0.00000000000E+00 0. -1.
          5    1    1    2  501    0 -0.44027215451E+01 -0.14014951665E+00  0.71656110379E+02  0.71945060661E+02  0.47000000000E+01 0.  1.
         -5    1    1    2    0  503  0.44027215451E+01  0.14014951665E+00  0.63462342167E+00  0.64727386613E+01  0.47000000000E+01 0. -1.
<mgrwt>
<rscale>  2 0.64415525E+01</rscale>
<asrwt>0</asrwt>
<pdfrwt beam="1">  1       21 0.11592963E-01 0.64415525E+01</pdfrwt>
<pdfrwt beam="2">  1       21 0.47131279E-03 0.64415525E+01</pdfrwt>
<totfact> 0.26098217E+08</totfact>
</mgrwt>
</event>
<event>
 4    1  0.4144004E+006  0.5652027E+01  0.7546771E-02  0.2463040E+00
         21   -1    0    0  503  502  0.00000000000E+00  0.00000000000E+00  0.55217030051E+03  0.55217030051E+03  0.00000000000E+00 0. -1.
         21   -1    0    0  501  503 -0.00000000000E+00 -0.00000000000E+00 -0.59373413541E-01  0.59373413541E-01  0.00000000000E+00 0. -1.
          5    1    1    2  501    0  0.60019466531E-01 -0.31387590591E+01  0.23188897707E+03  0.23195784768E+03  0.47000000000E+01 0. -1.
         -5    1    1    2    0  502 -0.60019466531E-01  0.31387590591E+01  0.32022195002E+03  0.32027182624E+03  0.47000000000E+01 0. -1.
<mgrwt>
<rscale>  2 0.56520271E+01</rscale>
<asrwt>0</asrwt>
<pdfrwt beam="1">  1       21 0.84945165E-01 0.56520271E+01</pdfrwt>
<pdfrwt beam="2">  1       21 0.91348135E-05 0.56520271E+01</pdfrwt>
<totfact> 0.15846266E+09</totfact>
</mgrwt>
</event>
<event>
 4    1  0.4144004E+006  0.4896491E+01  0.7546771E-02  0.2585850E+00
         21   -1    0    0  501  502  0.00000000000E+00  0.00000000000E+00  0.30540267699E-01  0.30540267699E-01  0.00000000000E+00 0. -1.
         21   -1    0    0  502  503 -0.00000000000E+00 -0.00000000000E+00 -0.79987990485E+03  0.79987990485E+03  0.00000000000E+00 0.  1.
          5    1    1    2  501    0 -0.37336347330E+00  0.13214470789E+01 -0.34546499928E+03  0.34549969804E+03  0.47000000000E+01 0. -1.
         -5    1    1    2    0  503  0.37336347330E+00 -0.13214470789E+01 -0.45438436530E+03  0.45441074707E+03  0.47000000000E+01 0.  1.
<mgrwt>
<rscale>  2 0.48964909E+01</rscale>
<asrwt>0</asrwt>
<pdfrwt beam="1">  1       21 0.46990953E-05 0.48964909E+01</pdfrwt>
<pdfrwt beam="2">  1       21 0.12304293E+00 0.48964909E+01</pdfrwt>
<totfact> 0.16441950E+09</totfact>
</mgrwt>
</event>
<event>
 4    1  0.4144004E+006  0.1009461E+02  0.7546771E-02  0.2069643E+00
         21   -1    0    0  503  502  0.00000000000E+00  0.00000000000E+00  0.13282262677E+01  0.13282262677E+01  0.00000000000E+00 0. -1.
         21   -1    0    0  501  503 -0.00000000000E+00 -0.00000000000E+00 -0.77970838705E+02  0.77970838705E+02  0.00000000000E+00 0.  1.
          5    1    1    2  501    0 -0.88061311557E+01  0.15044260513E+01 -0.33298936962E+02  0.34795408411E+02  0.47000000000E+01 0.  1.
         -5    1    1    2    0  502  0.88061311557E+01 -0.15044260513E+01 -0.43343675475E+02  0.44503656562E+02  0.47000000000E+01 0.  1.
<mgrwt>
<rscale>  2 0.10094615E+02</rscale>
<asrwt>0</asrwt>
<pdfrwt beam="1">  1       21 0.20434245E-03 0.10094615E+02</pdfrwt>
<pdfrwt beam="2">  1       21 0.11995517E-01 0.10094615E+02</pdfrwt>
<totfact> 0.10465826E+09</totfact>
</mgrwt>
</event>
<event>
 4    1  0.4144004E+006  0.5287273E+01  0.7546771E-02  0.2518583E+00
         21   -1    0    0  503  502  0.00000000000E+00  0.00000000000E+00  0.14929635813E+03  0.14929635813E+03  0.00000000000E+00 0.  1.
         21   -1    0    0  501  503 -0.00000000000E+00 -0.00000000000E+00 -0.24695953793E+00  0.24695953793E+00  0.00000000000E+00 0.  1.
          5    1    1    2  501    0  0.19644255915E+01 -0.14164362202E+01  0.37757737111E+02  0.38126132393E+02  0.47000000000E+01 0.  1.
         -5    1    1    2    0  502 -0.19644255915E+01  0.14164362202E+01  0.11129166148E+03  0.11141718527E+03  0.47000000000E+01 0.  1.
<mgrwt>
<rscale>  2 0.52872733E+01</rscale>
<asrwt>0</asrwt>
<pdfrwt beam="1">  1       21 0.22968598E-01 0.52872733E+01</pdfrwt>
<pdfrwt beam="2">  1       21 0.37993894E-04 0.52872733E+01</pdfrwt>
<totfact> 0.22781390E+09</totfact>
</mgrwt>
</event>
<event>
 4    1  0.4144004E+006  0.4926573E+01  0.7546771E-02  0.2580347E+00
         21   -1    0    0  503  502  0.00000000000E+00  0.00000000000E+00  0.12188246858E+02  0.12188246858E+02  0.00000000000E+00 0.  1.
         21   -1    0    0  501  503 -0.00000000000E+00 -0.00000000000E+00 -0.62133316436E+01  0.62133316436E+01  0.00000000000E+00 0.  1.
          5    1    1    2  501    0  0.85325031170E+00 -0.12054416602E+01 -0.45969336921E+01  0.67381692662E+01  0.47000000000E+01 0.  1.
         -5    1    1    2    0  502 -0.85325031170E+00  0.12054416602E+01  0.10571848906E+02  0.11663409235E+02  0.47000000000E+01 0.  1.
<mgrwt>
<rscale>  2 0.49265734E+01</rscale>
<asrwt>0</asrwt>
<pdfrwt beam="1">  1       21 0.18751149E-02 0.49265734E+01</pdfrwt>
<pdfrwt beam="2">  1       21 0.95589718E-03 0.49265734E+01</pdfrwt>
<totfact> 0.11512365E+09</totfact>
</mgrwt>
</event>
