<event>
12    1  0.1026879E-001  0.1804885E+03  0.7546771E-02  0.1168022E+00
         21   -1    0    0  503  502  0.00000000000E+00  0.00000000000E+00  0.71672409611E+03  0.71672409611E+03  0.00000000000E+00 0.  1.
         21   -1    0    0  501  503 -0.00000000000E+00 -0.00000000000E+00 -0.54214896829E+02  0.54214896829E+02  0.00000000000E+00 0.  1.
          6    2    1    2  501    0 -0.50010292878E+01 -0.25351453167E+02  0.16793345030E+03  0.24445891458E+03  0.17575781836E+03 0.  0.
         24    2    3    3    0    0 -0.20748413023E+02 -0.70886989722E+02  0.59847055428E+02  0.12602655439E+03  0.82737901908E+02 0.  0.
         -6    2    1    2    0  502  0.50010292878E+01  0.25351453167E+02  0.49457574898E+03  0.52648007836E+03  0.17862921083E+03 0.  0.
        -24    2    5    5    0    0  0.33797211420E+02  0.24403140101E+02  0.11610790456E+03  0.14688803594E+03  0.79732583407E+02 0.  0.
          5    1    3    3  501    0  0.15747383735E+02  0.45535536555E+02  0.10808639488E+03  0.11843236019E+03  0.47000000000E+01 0. -1.
        -13    1    4    4    0    0 -0.38057729918E+02 -0.73888878340E+02  0.67298279267E+02  0.10694398319E+03  0.00000000000E+00 0.  1.
         14    1    4    4    0    0  0.17309316895E+02  0.30018886173E+01 -0.74512238391E+01  0.19082571193E+02  0.00000000000E+00 0. -1.
         -5    1    5    5    0  502 -0.28796182132E+02  0.94831306582E+00  0.37846784443E+03  0.37959204242E+03  0.47000000000E+01 0.  1.
         11    1    6    6    0    0  0.23160036373E+02 -0.18146651837E+02  0.84085463765E+01  0.30600521399E+02  0.00000000000E+00 0. -1.
        -12    1    6    6    0    0  0.10637175047E+02  0.42549791939E+02  0.10769935818E+03  0.11628751455E+03  0.00000000000E+00 0.  1.
<mgrwt>
<rscale>  2 0.17977394E+03</rscale>
<asrwt>0</asrwt>
<pdfrwt beam="1">  1       21 0.11026524E+00 0.18048851E+03</pdfrwt>
<pdfrwt beam="2">  1       21 0.83407539E-02 0.18048851E+03</pdfrwt>
<totfact> 0.72862308E+04</totfact>
</mgrwt>
</event>
<event>
12    1  0.1026879E-001  0.2174106E+03  0.7546771E-02  0.1135866E+00
         21   -1    0    0  503  502  0.00000000000E+00  0.00000000000E+00  0.94619724940E+02  0.94619724940E+02  0.00000000000E+00 0. -1.
         21   -1    0    0  501  503 -0.00000000000E+00 -0.00000000000E+00 -0.87237889351E+03  0.87237889351E+03  0.00000000000E+00 0. -1.
          6    2    1    2  501    0  0.12961985349E+03  0.18665048816E+02 -0.70525797833E+03  0.73800825346E+03  0.17354444883E+03 0.  0.
         24    2    3    3    0    0  0.10960734347E+02 -0.28614756043E+02 -0.21257755318E+03  0.22901762700E+03  0.79504184796E+02 0.  0.
         -6    2    1    2    0  502 -0.12961985349E+03 -0.18665048816E+02 -0.72501190245E+02  0.22899036499E+03  0.17329302988E+03 0.  0.
        -24    2    5    5    0    0 -0.15290520058E+03 -0.91375032771E+01 -0.93140903742E+02  0.19611074689E+03  0.79502847521E+02 0.  0.
          5    1    3    3  501    0  0.11865911914E+03  0.47279804859E+02 -0.49268042514E+03  0.50899062646E+03  0.47000000000E+01 0. -1.
        -13    1    4    4    0    0  0.38379432577E+02 -0.37522968417E+02 -0.16365828501E+03  0.17223527007E+03  0.00000000000E+00 0.  1.
         14    1    4    4    0    0 -0.27418698230E+02  0.89082123739E+01 -0.48919268175E+02  0.56782356935E+02  0.00000000000E+00 0. -1.
         -5    1    5    5    0  502  0.23285347092E+02 -0.95275455392E+01  0.20639713498E+02  0.32879618101E+02  0.47000000000E+01 0.  1.
         11    1    6    6    0    0 -0.83022512807E+02 -0.40068176604E+02 -0.29893783657E+02  0.96911478734E+02  0.00000000000E+00 0. -1.
        -12    1    6    6    0    0 -0.69882687777E+02  0.30930673327E+02 -0.63247120085E+02  0.99199268155E+02  0.00000000000E+00 0.  1.
<mgrwt>
<rscale>  2 0.21736042E+03</rscale>
<asrwt>0</asrwt>
<pdfrwt beam="1">  1       21 0.14556880E-01 0.21741059E+03</pdfrwt>
<pdfrwt beam="2">  1       21 0.13421214E+00 0.21741059E+03</pdfrwt>
<totfact> 0.16250259E+04</totfact>
</mgrwt>
</event>
<event>
12    1  0.1026879E-001  0.2012551E+03  0.7546771E-02  0.1150484E+00
         21   -1    0    0  503  502  0.00000000000E+00  0.00000000000E+00  0.15319387349E+04  0.15319387349E+04  0.00000000000E+00 0.  1.
         21   -1    0    0  501  503 -0.00000000000E+00 -0.00000000000E+00 -0.26767799478E+02  0.26767799478E+02  0.00000000000E+00 0.  1.
          6    2    1    2  501    0  0.74214831788E+01  0.85571844769E+02  0.58823683003E+03  0.62171229417E+03  0.18200546556E+03 0.  0.
         24    2    3    3    0    0  0.60503164275E+02  0.91420100849E+02  0.31511499510E+03  0.34337887238E+03  0.81199274247E+02 0.  0.
         -6    2    1    2    0  502 -0.74214831788E+01 -0.85571844769E+02  0.91693410543E+03  0.93699424024E+03  0.17266277398E+03 0.  0.
        -24    2    5    5    0    0 -0.33487365875E+02 -0.64255996241E+02  0.88124538924E+03  0.88770357071E+03  0.78574529456E+02 0.  0.
          5    1    3    3  501    0 -0.53081681097E+02 -0.58482560803E+01  0.27312183493E+03  0.27833342179E+03  0.47000000000E+01 0. -1.
        -13    1    4    4    0    0  0.22525897762E+02  0.34795338192E+02  0.32546623800E+02  0.52701179785E+02  0.00000000000E+00 0.  1.
         14    1    4    4    0    0  0.37977266513E+02  0.56624762657E+02  0.28256837130E+03  0.29067769260E+03  0.00000000000E+00 0. -1.
         -5    1    5    5    0  502  0.26065882696E+02 -0.21315848527E+02  0.35688716192E+02  0.49290669529E+02  0.47000000000E+01 0.  1.
         13    1    6    6    0    0 -0.58655271928E+02 -0.49546468025E+02  0.68813817497E+03  0.69240843530E+03  0.00000000000E+00 0. -1.
        -14    1    6    6    0    0  0.25167906053E+02 -0.14709528217E+02  0.19310721427E+03  0.19529513542E+03  0.00000000000E+00 0.  1.
<mgrwt>
<rscale>  2 0.19911936E+03</rscale>
<asrwt>0</asrwt>
<pdfrwt beam="1">  1       21 0.23568281E+00 0.20125508E+03</pdfrwt>
<pdfrwt beam="2">  1       21 0.41181242E-02 0.20125508E+03</pdfrwt>
<totfact> 0.29964414E+04</totfact>
</mgrwt>
</event>
<event>
12    1  0.1026879E-001  0.3051939E+03  0.7546771E-02  0.1083036E+00
         21   -1    0    0  503  502  0.00000000000E+00  0.00000000000E+00  0.53675483317E+03  0.53675483317E+03  0.00000000000E+00 0.  1.
         21   -1    0    0  501  503 -0.00000000000E+00 -0.00000000000E+00 -0.17449749894E+03  0.17449749894E+03  0.00000000000E+00 0. -1.
          6    2    1    2  501    0 -0.43744768580E+02 -0.24432106320E+03  0.13822085670E+03  0.33503477268E+03  0.17758633668E+03 0.  0.
         24    2    3    3    0    0 -0.23480635566E+02 -0.29777170173E+02  0.37568796787E+02  0.97142687297E+02  0.81161980589E+02 0.  0.
         -6    2    1    2    0  502  0.43744768580E+02  0.24432106320E+03  0.22403647754E+03  0.37621755942E+03  0.17245556543E+03 0.  0.
        -24    2    5    5    0    0 -0.32236933366E+02  0.15186921186E+03  0.86108051324E+02  0.19355145801E+03  0.77097944280E+02 0.  0.
          5    1    3    3  501    0 -0.20264133014E+02 -0.21454389303E+03  0.10065205991E+03  0.23789208538E+03  0.47000000000E+01 0. -1.
        -11    1    4    4    0    0 -0.12111098936E+02 -0.18097114972E+02 -0.24611178260E+02  0.32861746501E+02  0.00000000000E+00 0.  1.
         12    1    4    4    0    0 -0.11369536630E+02 -0.11680055202E+02  0.62179975048E+02  0.64280940796E+02  0.00000000000E+00 0. -1.
         -5    1    5    5    0  502  0.75981701946E+02  0.92451851344E+02  0.13792842621E+03  0.18266610141E+03  0.47000000000E+01 0.  1.
         11    1    6    6    0    0  0.15011845736E+02  0.10108124181E+03  0.37521010013E+02  0.10886045724E+03  0.00000000000E+00 0. -1.
        -12    1    6    6    0    0 -0.47248779102E+02  0.50787970050E+02  0.48587041311E+02  0.84691000772E+02  0.00000000000E+00 0.  1.
<mgrwt>
<rscale>  2 0.30445199E+03</rscale>
<asrwt>0</asrwt>
<pdfrwt beam="1">  1       21 0.82577666E-01 0.30519386E+03</pdfrwt>
<pdfrwt beam="2">  1       21 0.26845769E-01 0.30519386E+03</pdfrwt>
<totfact> 0.15956898E+04</totfact>
</mgrwt>
</event>
<event>
12    1  0.1026879E-001  0.1740068E+03  0.7546771E-02  0.1174062E+00
         21   -1    0    0  503  502  0.00000000000E+00  0.00000000000E+00  0.25954176222E+03  0.25954176222E+03  0.00000000000E+00 0. -1.
         21   -1    0    0  501  503 -0.00000000000E+00 -0.00000000000E+00 -0.31436431030E+03  0.31436431030E+03  0.00000000000E+00 0. -1.
          6    2    1    2  501    0 -0.16564441076E+01 -0.97848989192E+01 -0.25543423326E+03  0.30834362402E+03  0.17242579535E+03 0.  0.
         24    2    3    3    0    0 -0.39031439368E+02 -0.49224834423E+02 -0.22069110807E+03  0.24367853660E+03  0.82025157334E+02 0.  0.
         -6    2    1    2    0  502  0.16564441076E+01  0.97848989192E+01  0.20061168518E+03  0.26556244850E+03  0.17372356711E+03 0.  0.
        -24    2    5    5    0    0  0.40329275204E+02 -0.10752328653E+02  0.20285736629E+03  0.22146597852E+03  0.78447470147E+02 0.  0.
          5    1    3    3  501    0  0.37374995260E+02  0.39439935503E+02 -0.34743125188E+02  0.64665087420E+02  0.47000000000E+01 0. -1.
        -11    1    4    4    0    0 -0.22215253023E+01 -0.33893590385E+02 -0.20756407715E+02  0.39806269671E+02  0.00000000000E+00 0.  1.
         12    1    4    4    0    0 -0.36809914066E+02 -0.15331244038E+02 -0.19993470036E+03  0.20387226693E+03  0.00000000000E+00 0. -1.
         -5    1    5    5    0  502 -0.38672831096E+02  0.20537227572E+02 -0.22456811079E+01  0.44096469984E+02  0.47000000000E+01 0.  1.
         11    1    6    6    0    0  0.39526268248E+02 -0.24030076455E+02  0.50325343631E+02  0.68355033959E+02  0.00000000000E+00 0. -1.
        -12    1    6    6    0    0  0.80300695617E+00  0.13277747802E+02  0.15253202266E+03  0.15311094456E+03  0.00000000000E+00 0.  1.
<mgrwt>
<rscale>  2 0.17368198E+03</rscale>
<asrwt>0</asrwt>
<pdfrwt beam="1">  1       21 0.39929502E-01 0.17400680E+03</pdfrwt>
<pdfrwt beam="2">  1       21 0.48363740E-01 0.17400680E+03</pdfrwt>
<totfact> 0.24949991E+04</totfact>
</mgrwt>
</event>
<event>
12    1  0.1026879E-001  0.2615059E+03  0.7546771E-02  0.1106340E+00
         21   -1    0    0  501  502  0.00000000000E+00  0.00000000000E+00  0.36921177565E+03  0.36921177565E+03  0.00000000000E+00 0.  1.
         21   -1    0    0  502  503 -0.00000000000E+00 -0.00000000000E+00 -0.41407563137E+03  0.41407563137E+03  0.00000000000E+00 0. -1.
         -6    2    1    2    0  503 -0.12151767624E+03  0.15166577511E+03 -0.31387486996E+03  0.40811773964E+03  0.17399311034E+03 0.  0.
        -24    2    3    3    0    0 -0.12628047237E+03  0.77137160466E+02 -0.27535073347E+03  0.32395481598E+03  0.85039973820E+02 0.  0.
          6    2    1    2  501    0  0.12151767624E+03 -0.15166577511E+03  0.26901101424E+03  0.37516966737E+03  0.17497514268E+03 0.  0.
         24    2    5    5    0    0  0.10581644850E+03 -0.10171078219E+03  0.27513792840E+03  0.32223896790E+03  0.81208797559E+02 0.  0.
          5    1    5    5  501    0  0.15701227735E+02 -0.49954992915E+02 -0.61269141596E+01  0.52930699473E+02  0.47000000000E+01 0. -1.
        -11    1    6    6    0    0  0.33300196909E+02 -0.83132786759E+02  0.11756691156E+03  0.14779019603E+03  0.00000000000E+00 0.  1.
         12    1    6    6    0    0  0.72516251592E+02 -0.18577995436E+02  0.15757101684E+03  0.17444877187E+03  0.00000000000E+00 0. -1.
         -5    1    3    3    0  503  0.47627961324E+01  0.74528614644E+02 -0.38524136485E+02  0.84162923664E+02  0.47000000000E+01 0.  1.
         11    1    4    4    0    0 -0.12105651729E+02 -0.62532765296E+01 -0.89012512345E+02  0.90049306633E+02  0.00000000000E+00 0. -1.
        -12    1    4    4    0    0 -0.11417482064E+03  0.83390436996E+02 -0.18633822113E+03  0.23390550935E+03  0.00000000000E+00 0.  1.
<mgrwt>
<rscale>  2 0.26134176E+03</rscale>
<asrwt>0</asrwt>
<pdfrwt beam="1">  1       21 0.56801811E-01 0.26150593E+03</pdfrwt>
<pdfrwt beam="2">  1       21 0.63703944E-01 0.26150593E+03</pdfrwt>
<totfact> 0.63392354E+03</totfact>
</mgrwt>
</event>
<event>
12    1  0.1026879E-001  0.1950735E+03  0.7546771E-02  0.1154232E+00
         21   -1    0    0  501  502  0.00000000000E+00  0.00000000000E+00  0.66875928972E+03  0.66875928972E+03  0.00000000000E+00 0.  1.
         21   -1    0    0  502  503 -0.00000000000E+00 -0.00000000000E+00 -0.74318146615E+02  0.74318146615E+02  0.00000000000E+00 0.  1.
         -6    2    1    2    0  503 -0.62320242578E+02  0.62862322228E+02  0.11623877563E+03  0.22707956310E+03  0.17383380232E+03 0.  0.
        -24    2    3    3    0    0 -0.70315326251E+02 -0.25562361910E+00  0.16541730265E+02  0.10871830548E+03  0.81251034808E+02 0.  0.
          6    2    1    2  501    0  0.62320242578E+02 -0.62862322228E+02  0.47820236748E+03  0.51599787323E+03  0.17245526009E+03 0.  0.
         24    2    5    5    0    0  0.64554366984E+01 -0.24676534806E+02  0.41513039986E+03  0.42337393467E+03  0.79130497492E+02 0.  0.
          5    1    5    5  501    0  0.55864805879E+02 -0.38185787423E+02  0.63071967617E+02  0.92623938569E+02  0.47000000000E+01 0. -1.
        -13    1    6    6    0    0 -0.40037539769E+01  0.23445899944E+02  0.55424493923E+02  0.60312642097E+02  0.00000000000E+00 0.  1.
         14    1    6    6    0    0  0.10459190675E+02 -0.48122434749E+02  0.35970590594E+03  0.36306129257E+03  0.00000000000E+00 0. -1.
         -5    1    3    3    0  503  0.79950836734E+01  0.63117945847E+02  0.99697045368E+02  0.11836125762E+03  0.47000000000E+01 0.  1.
         13    1    4    4    0    0 -0.44309047497E+02  0.28098223117E+02  0.37889869546E+02  0.64718189458E+02  0.00000000000E+00 0. -1.
        -14    1    4    4    0    0 -0.26006278754E+02 -0.28353846736E+02 -0.21348139281E+02  0.44000116024E+02  0.00000000000E+00 0.  1.
<mgrwt>
<rscale>  2 0.19476593E+03</rscale>
<asrwt>0</asrwt>
<pdfrwt beam="1">  1       21 0.10288604E+00 0.19507351E+03</pdfrwt>
<pdfrwt beam="2">  1       21 0.11433561E-01 0.19507351E+03</pdfrwt>
<totfact> 0.49015738E+04</totfact>
</mgrwt>
</event>
<event>
12    1  0.1026879E-001  0.1865747E+03  0.7546771E-02  0.1162133E+00
         21   -1    0    0  501  502  0.00000000000E+00  0.00000000000E+00  0.22103083374E+03  0.22103083374E+03  0.00000000000E+00 0. -1.
         21   -1    0    0  502  503 -0.00000000000E+00 -0.00000000000E+00 -0.16096091150E+03  0.16096091150E+03  0.00000000000E+00 0. -1.
         -6    2    1    2    0  503  0.25682283637E+02 -0.62038686810E+02  0.65351450247E+02  0.19768899728E+03  0.17407397635E+03 0.  0.
        -24    2    3    3    0    0  0.72285173335E+02  0.21838726018E+01  0.36350358054E+02  0.11307505154E+03  0.78960136563E+02 0.  0.
          6    2    1    2  501    0 -0.25682283637E+02  0.62038686810E+02 -0.52815280007E+01  0.18430274796E+03  0.17155532640E+03 0.  0.
         24    2    5    5    0    0 -0.37778187188E+02 -0.27774533937E+02 -0.14222778863E+02  0.93117434065E+02  0.79183034330E+02 0.  0.
          5    1    5    5  501    0  0.12095903551E+02  0.89813220747E+02  0.89412508622E+01  0.91185313898E+02  0.47000000000E+01 0. -1.
        -13    1    6    6    0    0  0.18585879767E+02 -0.27528763871E+02 -0.15687706045E+02  0.36733797625E+02  0.00000000000E+00 0.  1.
         14    1    6    6    0    0 -0.56364066955E+02 -0.24577006651E+00  0.14649271824E+01  0.56383636441E+02  0.00000000000E+00 0. -1.
         -5    1    3    3    0  503 -0.46602889698E+02 -0.64222559412E+02  0.29001092193E+02  0.84613945742E+02  0.47000000000E+01 0.  1.
         11    1    4    4    0    0  0.49592764452E+02 -0.36452121001E+02  0.14544432321E+02  0.63243497081E+02  0.00000000000E+00 0. -1.
        -12    1    4    4    0    0  0.22692408883E+02  0.38635993602E+02  0.21805925733E+02  0.49831554458E+02  0.00000000000E+00 0.  1.
<mgrwt>
<rscale>  2 0.18598502E+03</rscale>
<asrwt>0</asrwt>
<pdfrwt beam="1">  1       21 0.34004744E-01 0.18657472E+03</pdfrwt>
<pdfrwt beam="2">  1       21 0.24763217E-01 0.18657472E+03</pdfrwt>
<totfact> 0.12878658E+05</totfact>
</mgrwt>
</event>
<event>
12    1  0.1026879E-001  0.1994076E+03  0.7546771E-02  0.1150356E+00
         21   -1    0    0  503  502  0.00000000000E+00  0.00000000000E+00  0.16206359240E+03  0.16206359240E+03  0.00000000000E+00 0.  1.
         21   -1    0    0  501  503 -0.00000000000E+00 -0.00000000000E+00 -0.61288769714E+03  0.61288769714E+03  0.00000000000E+00 0.  1.
          6    2    1    2  501    0 -0.98432923558E+02 -0.55395039609E+01 -0.52561804784E+03  0.56197818199E+03  0.17270037138E+03 0.  0.
         24    2    3    3    0    0 -0.17569483755E+02  0.34902863902E+02 -0.38072653326E+03  0.39112701280E+03  0.80627230818E+02 0.  0.
         -6    2    1    2    0  502  0.98432923558E+02  0.55395039609E+01  0.74793943095E+02  0.21297310755E+03  0.17333113994E+03 0.  0.
        -24    2    5    5    0    0  0.81056176396E+02 -0.50343645450E+02  0.10873615364E+02  0.12618154099E+03  0.81847171031E+02 0.  0.
          5    1    3    3  501    0 -0.80863439803E+02 -0.40442367863E+02 -0.14489151458E+03  0.17085116919E+03  0.47000000000E+01 0. -1.
        -13    1    4    4    0    0 -0.35169446055E+02  0.35234278532E+02 -0.12149938775E+03  0.13130287713E+03  0.00000000000E+00 0.  1.
         14    1    4    4    0    0  0.17599962300E+02 -0.33141463037E+00 -0.25922714551E+03  0.25982413568E+03  0.00000000000E+00 0. -1.
         -5    1    5    5    0  502  0.17376747162E+02  0.55883149411E+02  0.63920327731E+02  0.86791566568E+02  0.47000000000E+01 0.  1.
         11    1    6    6    0    0  0.65127258653E+01  0.20985612399E+02 -0.26266426178E+01  0.22129409785E+02  0.00000000000E+00 0. -1.
        -12    1    6    6    0    0  0.74543450530E+02 -0.71329257849E+02  0.13500257981E+02  0.10405213120E+03  0.00000000000E+00 0.  1.
<mgrwt>
<rscale>  2 0.19927050E+03</rscale>
<asrwt>0</asrwt>
<pdfrwt beam="1">  1       21 0.24932860E-01 0.19940765E+03</pdfrwt>
<pdfrwt beam="2">  1       21 0.94290415E-01 0.19940765E+03</pdfrwt>
<totfact> 0.14289086E+04</totfact>
</mgrwt>
</event>
<event>
12    1  0.1026879E-001  0.2266639E+03  0.7546771E-02  0.1129569E+00
         21   -1    0    0  501  502  0.00000000000E+00  0.00000000000E+00  0.75859950904E+02  0.75859950904E+02  0.00000000000E+00 0. -1.
         21   -1    0    0  502  503 -0.00000000000E+00 -0.00000000000E+00 -0.98472895648E+03  0.98472895648E+03  0.00000000000E+00 0. -1.
         -6    2    1    2    0  503  0.12852777184E+03  0.68322721107E+02 -0.75303931164E+03  0.78552632783E+03  0.16969391411E+03 0.  0.
        -24    2    3    3    0    0  0.15130337556E+03  0.88248595041E+02 -0.67260937169E+03  0.69946336357E+03  0.78518176922E+02 0.  0.
          6    2    1    2  501    0 -0.12852777184E+03 -0.68322721107E+02 -0.15582969393E+03  0.27506257955E+03  0.17375024261E+03 0.  0.
         24    2    5    5    0    0 -0.30858929623E+02  0.11214362382E+02 -0.11189078435E+03  0.14157824278E+03  0.80292065261E+02 0.  0.
          5    1    5    5  501    0 -0.97668842214E+02 -0.79537083488E+02 -0.43938909584E+02  0.13348433678E+03  0.47000000000E+01 0. -1.
        -13    1    6    6    0    0  0.27754845466E+00 -0.29239883404E+02 -0.16990945191E+02  0.33819225791E+02  0.00000000000E+00 0.  1.
         14    1    6    6    0    0 -0.31136478078E+02  0.40454245785E+02 -0.94899839159E+02  0.10775901698E+03  0.00000000000E+00 0. -1.
         -5    1    3    3    0  503 -0.22775603726E+02 -0.19925873934E+02 -0.80429939956E+02  0.86062964267E+02  0.47000000000E+01 0.  1.
         13    1    4    4    0    0  0.69061846332E+02  0.57412510427E+02 -0.20701331118E+03  0.22565514835E+03  0.00000000000E+00 0. -1.
        -14    1    4    4    0    0  0.82241529231E+02  0.30836084614E+02 -0.46559606051E+03  0.47380821521E+03  0.00000000000E+00 0.  1.
<mgrwt>
<rscale>  2 0.22588637E+03</rscale>
<asrwt>0</asrwt>
<pdfrwt beam="1">  1       21 0.11670762E-01 0.22666391E+03</pdfrwt>
<pdfrwt beam="2">  1       21 0.15149676E+00 0.22666391E+03</pdfrwt>
<totfact> 0.17559074E+04</totfact>
</mgrwt>
</event>
<event>
12    1  0.1026879E-001  0.1791798E+03  0.7546771E-02  0.1169080E+00
         21   -1    0    0  501  502  0.00000000000E+00  0.00000000000E+00  0.11346147918E+03  0.11346147918E+03  0.00000000000E+00 0. -1.
         21   -1    0    0  502  503 -0.00000000000E+00 -0.00000000000E+00 -0.48965245853E+03  0.48965245853E+03  0.00000000000E+00 0.  1.
         -6    2    1    2    0  503  0.34306868215E+02 -0.33383427788E+02  0.86933542939E+01  0.17939054437E+03  0.17266724803E+03 0.  0.
        -24    2    3    3    0    0  0.84274182048E+02 -0.40555850491E+02  0.23998227011E+02  0.12643296486E+03  0.81623923785E+02 0.  0.
          6    2    1    2  501    0 -0.34306868215E+02  0.33383427788E+02 -0.38488433364E+03  0.42372339335E+03  0.17062868846E+03 0.  0.
         24    2    5    5    0    0  0.37326560785E+02  0.24182754286E+02 -0.28464932940E+03  0.30009028039E+03  0.83969386758E+02 0.  0.
          5    1    5    5  501    0 -0.71633429000E+02  0.92006735017E+01 -0.10023500425E+03  0.12363311296E+03  0.47000000000E+01 0. -1.
        -11    1    6    6    0    0  0.27668485981E+01  0.22004891274E+02 -0.25041869497E+03  0.25139887327E+03  0.00000000000E+00 0.  1.
         12    1    6    6    0    0  0.34559712187E+02  0.21778630120E+01 -0.34230634423E+02  0.48691407114E+02  0.00000000000E+00 0. -1.
         -5    1    3    3    0  503 -0.49967313833E+02  0.71724227032E+01 -0.15304872717E+02  0.52957579514E+02  0.47000000000E+01 0.  1.
         13    1    4    4    0    0  0.26986186684E+02  0.24223925116E+02  0.15838184101E+02  0.39571465671E+02  0.00000000000E+00 0. -1.
        -14    1    4    4    0    0  0.57287995364E+02 -0.64779775607E+02  0.81600429105E+01  0.86861499186E+02  0.00000000000E+00 0.  1.
<mgrwt>
<rscale>  2 0.17868684E+03</rscale>
<asrwt>0</asrwt>
<pdfrwt beam="1">  1       21 0.17455612E-01 0.17917978E+03</pdfrwt>
<pdfrwt beam="2">  1       21 0.75331148E-01 0.17917978E+03</pdfrwt>
<totfact> 0.47089752E+04</totfact>
</mgrwt>
</event>
<event>
12    1  0.1026879E-001  0.1991650E+03  0.7546771E-02  0.1150628E+00
         21   -1    0    0  503  502  0.00000000000E+00  0.00000000000E+00  0.10025688774E+03  0.10025688774E+03  0.00000000000E+00 0. -1.
         21   -1    0    0  501  503 -0.00000000000E+00 -0.00000000000E+00 -0.39409116517E+03  0.39409116517E+03  0.00000000000E+00 0.  1.
          6    2    1    2  501    0  0.44396815761E+02  0.89204006784E+02 -0.15190285210E+03  0.25048187501E+03  0.17244785054E+03 0.  0.
         24    2    3    3    0    0  0.42258575240E+02 -0.97307022222E+01 -0.46925824147E+02  0.10613882836E+03  0.84752251686E+02 0.  0.
         -6    2    1    2    0  502 -0.44396815761E+02 -0.89204006784E+02 -0.14193142532E+03  0.24386617790E+03  0.17145772410E+03 0.  0.
        -24    2    5    5    0    0 -0.54586317354E+02 -0.99550619966E+02 -0.45316248377E+02  0.14605278024E+03  0.79924090675E+02 0.  0.
          5    1    3    3  501    0  0.21382405210E+01  0.98934709006E+02 -0.10497702796E+03  0.14434304665E+03  0.47000000000E+01 0. -1.
        -13    1    4    4    0    0  0.28583479324E+02  0.10716849723E+01 -0.70927388587E+02  0.76477828491E+02  0.00000000000E+00 0.  1.
         14    1    4    4    0    0  0.13675095916E+02 -0.10802387194E+02  0.24001564440E+02  0.29660999865E+02  0.00000000000E+00 0. -1.
         -5    1    5    5    0  502  0.10189501594E+02  0.10346613182E+02 -0.96615176941E+02  0.97813397663E+02  0.47000000000E+01 0.  1.
         11    1    6    6    0    0 -0.60314592046E+02 -0.60159693020E+02 -0.59374223035E+02  0.10383803272E+03  0.00000000000E+00 0. -1.
        -12    1    6    6    0    0  0.57282746919E+01 -0.39390926945E+02  0.14057974658E+02  0.42214747518E+02  0.00000000000E+00 0.  1.
<mgrwt>
<rscale>  2 0.19895047E+03</rscale>
<asrwt>0</asrwt>
<pdfrwt beam="1">  1       21 0.15424137E-01 0.19916499E+03</pdfrwt>
<pdfrwt beam="2">  1       21 0.60629409E-01 0.19916499E+03</pdfrwt>
<totfact> 0.94213157E+04</totfact>
</mgrwt>
</event>
<event>
12    1  0.1026879E-001  0.2286332E+03  0.7546771E-02  0.1127760E+00
         21   -1    0    0  501  502  0.00000000000E+00  0.00000000000E+00  0.37944301843E+03  0.37944301843E+03  0.00000000000E+00 0. -1.
         21   -1    0    0  502  503 -0.00000000000E+00 -0.00000000000E+00 -0.16182609777E+03  0.16182609777E+03  0.00000000000E+00 0. -1.
         -6    2    1    2    0  503 -0.84597880770E+02  0.12160101399E+03  0.34955624534E+01  0.22865992968E+03  0.17415377243E+03 0.  0.
        -24    2    3    3    0    0 -0.37959073025E+02  0.78173696188E+01 -0.40228293089E+02  0.98062220443E+02  0.80597028610E+02 0.  0.
          6    2    1    2  501    0  0.84597880770E+02 -0.12160101399E+03  0.21412135821E+03  0.31260918652E+03  0.17301138524E+03 0.  0.
         24    2    5    5    0    0  0.37455944465E+02 -0.21239456861E+02  0.17106268438E+03  0.19356741360E+03  0.79698427320E+02 0.  0.
          5    1    5    5  501    0  0.47141936305E+02 -0.10036155713E+03  0.43058673831E+02  0.11904177292E+03  0.47000000000E+01 0. -1.
        -11    1    6    6    0    0  0.39063159999E+02 -0.29222056240E+02  0.17692917116E+03  0.18353144321E+03  0.00000000000E+00 0.  1.
         12    1    6    6    0    0 -0.16072155334E+01  0.79825993785E+01 -0.58664867771E+01  0.10035970392E+02  0.00000000000E+00 0. -1.
         -5    1    3    3    0  503 -0.46638807746E+02  0.11378364437E+03  0.43723855542E+02  0.13059770924E+03  0.47000000000E+01 0.  1.
         11    1    4    4    0    0 -0.13936322147E+02  0.42499535024E+02 -0.32210845300E+02  0.55117783946E+02  0.00000000000E+00 0. -1.
        -12    1    4    4    0    0 -0.24022750878E+02 -0.34682165405E+02 -0.80174477892E+01  0.42944436497E+02  0.00000000000E+00 0.  1.
<mgrwt>
<rscale>  2 0.22841566E+03</rscale>
<asrwt>0</asrwt>
<pdfrwt beam="1">  1       21 0.58375849E-01 0.22863321E+03</pdfrwt>
<pdfrwt beam="2">  1       21 0.24896323E-01 0.22863321E+03</pdfrwt>
<totfact> 0.41223411E+04</totfact>
</mgrwt>
</event>
<event>
12    1  0.1026879E-001  0.2183911E+03  0.7546771E-02  0.1135552E+00
         21   -1    0    0  503  502  0.00000000000E+00  0.00000000000E+00  0.44457059675E+03  0.44457059675E+03  0.00000000000E+00 0. -1.
         21   -1    0    0  501  503 -0.00000000000E+00 -0.00000000000E+00 -0.10624006792E+03  0.10624006792E+03  0.00000000000E+00 0.  1.
          6    2    1    2  501    0 -0.21781779257E+02  0.12775417634E+03  0.15948704654E+03  0.27042708835E+03  0.17578144561E+03 0.  0.
         24    2    3    3    0    0 -0.94173943628E+01  0.14792873536E+03  0.17369598781E+03  0.24242932313E+03  0.81425318351E+02 0.  0.
         -6    2    1    2    0  502  0.21781779257E+02 -0.12775417634E+03  0.17884348229E+03  0.28038357632E+03  0.17272632466E+03 0.  0.
        -24    2    5    5    0    0 -0.82100237890E+01  0.76871297365E+00  0.91574624676E+02  0.12209401621E+03  0.80330825345E+02 0.  0.
          5    1    3    3  501    0 -0.12364384894E+02 -0.20174559019E+02 -0.14208941274E+02  0.27997765224E+02  0.47000000000E+01 0. -1.
        -13    1    4    4    0    0 -0.10093028256E+02  0.10155960355E+03  0.57094556622E+02  0.11694447694E+03  0.00000000000E+00 0.  1.
         14    1    4    4    0    0  0.67563389324E+00  0.46369131814E+02  0.11660143119E+03  0.12548484618E+03  0.00000000000E+00 0. -1.
         -5    1    5    5    0  502  0.29991803046E+02 -0.12852288931E+03  0.87268857617E+02  0.15828956010E+03  0.47000000000E+01 0.  1.
         11    1    6    6    0    0  0.74561072563E+01 -0.32201054313E+02  0.13117021868E+02  0.35560620031E+02  0.00000000000E+00 0. -1.
        -12    1    6    6    0    0 -0.15666131045E+02  0.32969767286E+02  0.78457602807E+02  0.86533396184E+02  0.00000000000E+00 0.  1.
<mgrwt>
<rscale>  2 0.21777569E+03</rscale>
<asrwt>0</asrwt>
<pdfrwt beam="1">  1       21 0.68395475E-01 0.21839114E+03</pdfrwt>
<pdfrwt beam="2">  1       21 0.16344626E-01 0.21839114E+03</pdfrwt>
<totfact> 0.64629609E+04</totfact>
</mgrwt>
</event>
<event>
12    1  0.1026879E-001  0.2205540E+03  0.7546771E-02  0.1133753E+00
         21   -1    0    0  501  502  0.00000000000E+00  0.00000000000E+00  0.57671506342E+03  0.57671506342E+03  0.00000000000E+00 0. -1.
         21   -1    0    0  502  503 -0.00000000000E+00 -0.00000000000E+00 -0.13331087004E+03  0.13331087004E+03  0.00000000000E+00 0. -1.
         -6    2    1    2    0  503  0.13232831410E+03  0.28121584170E+02  0.43860000578E+03  0.49093178879E+03  0.17419084352E+03 0.  0.
        -24    2    3    3    0    0  0.19010187909E+02  0.54129138292E+02  0.14915797772E+03  0.17897639422E+03  0.80579752506E+02 0.  0.
          6    2    1    2  501    0 -0.13232831410E+03 -0.28121584170E+02  0.48041876015E+01  0.21909414468E+03  0.17227175568E+03 0.  0.
         24    2    5    5    0    0 -0.29388748785E+01 -0.72742406193E+01 -0.26107734490E+02  0.84357825732E+02  0.79831556417E+02 0.  0.
          5    1    5    5  501    0 -0.12938943922E+03 -0.20847343551E+02  0.30911922092E+02  0.13473631895E+03  0.47000000000E+01 0. -1.
        -11    1    6    6    0    0  0.38078800861E+02 -0.89371052397E+01 -0.14245882015E+02  0.41627059463E+02  0.00000000000E+00 0.  1.
         12    1    6    6    0    0 -0.41017675740E+02  0.16628646205E+01 -0.11861852475E+02  0.42730766270E+02  0.00000000000E+00 0. -1.
         -5    1    3    3    0  503  0.11331812619E+03 -0.26007554121E+02  0.28944202806E+03  0.31195539457E+03  0.47000000000E+01 0.  1.
         11    1    4    4    0    0  0.15809922284E+02  0.71016757768E+02  0.14348436349E+03  0.16087602710E+03  0.00000000000E+00 0. -1.
        -12    1    4    4    0    0  0.32002656250E+01 -0.16887619476E+02  0.56736142246E+01  0.18100367124E+02  0.00000000000E+00 0.  1.
<mgrwt>
<rscale>  2 0.22017487E+03</rscale>
<asrwt>0</asrwt>
<pdfrwt beam="1">  1       21 0.88725393E-01 0.22055398E+03</pdfrwt>
<pdfrwt beam="2">  1       21 0.20509365E-01 0.22055398E+03</pdfrwt>
<totfact> 0.23530965E+04</totfact>
</mgrwt>
</event>
<event>
12    1  0.1026879E-001  0.1772234E+03  0.7546771E-02  0.1171200E+00
         21   -1    0    0  501  502  0.00000000000E+00  0.00000000000E+00  0.21282215811E+03  0.21282215811E+03  0.00000000000E+00 0. -1.
         21   -1    0    0  502  503 -0.00000000000E+00 -0.00000000000E+00 -0.15117329666E+03  0.15117329666E+03  0.00000000000E+00 0. -1.
         -6    2    1    2    0  503 -0.24403130364E+02 -0.13750497143E+02 -0.52636225849E+01  0.17456100310E+03  0.17221860857E+03 0.  0.
        -24    2    3    3    0    0 -0.48824803920E+02  0.58713406566E+01  0.51968411318E+02  0.10914670526E+03  0.82425441309E+02 0.  0.
          6    2    1    2  501    0  0.24403130364E+02  0.13750497143E+02  0.66912484033E+02  0.18943445166E+03  0.17499583428E+03 0.  0.
         24    2    5    5    0    0 -0.21820782632E+02 -0.40311257562E+02  0.25671574682E+00  0.91841394018E+02  0.79584117205E+02 0.  0.
          5    1    5    5  501    0  0.46223912996E+02  0.54061754705E+02  0.66655768286E+02  0.97593057643E+02  0.47000000000E+01 0. -1.
        -13    1    6    6    0    0  0.55302940006E+01  0.21401556141E+02 -0.86849327888E+01  0.23749501353E+02  0.00000000000E+00 0.  1.
         14    1    6    6    0    0 -0.27351076632E+02 -0.61712813703E+02  0.89416485356E+01  0.68091892665E+02  0.00000000000E+00 0. -1.
         -5    1    3    3    0  503  0.24421673556E+02 -0.19621837799E+02 -0.57232033903E+02  0.65414297845E+02  0.47000000000E+01 0.  1.
         11    1    4    4    0    0 -0.17932336973E+02  0.41269536875E+02  0.41057768229E+02  0.60913739953E+02  0.00000000000E+00 0. -1.
        -12    1    4    4    0    0 -0.30892466946E+02 -0.35398196218E+02  0.10910643089E+02  0.48232965305E+02  0.00000000000E+00 0.  1.
<mgrwt>
<rscale>  2 0.17653394E+03</rscale>
<asrwt>0</asrwt>
<pdfrwt beam="1">  1       21 0.32741871E-01 0.17722339E+03</pdfrwt>
<pdfrwt beam="2">  1       21 0.23257430E-01 0.17722339E+03</pdfrwt>
<totfact> 0.15679223E+05</totfact>
</mgrwt>
</event>
<event>
12    1  0.1026879E-001  0.2005156E+03  0.7546771E-02  0.1149403E+00
         21   -1    0    0  501  502  0.00000000000E+00  0.00000000000E+00  0.16716709526E+03  0.16716709526E+03  0.00000000000E+00 0. -1.
         21   -1    0    0  502  503 -0.00000000000E+00 -0.00000000000E+00 -0.43056867550E+03  0.43056867550E+03  0.00000000000E+00 0. -1.
         -6    2    1    2    0  503 -0.37898098077E+02 -0.92728092870E+02 -0.33046756425E+03  0.38630174933E+03  0.17316311810E+03 0.  0.
        -24    2    3    3    0    0 -0.83640456286E+02 -0.25074849185E+02 -0.17759428878E+03  0.21291878284E+03  0.78550637750E+02 0.  0.
          6    2    1    2  501    0  0.37898098077E+02  0.92728092870E+02  0.67065984007E+02  0.21143402143E+03  0.17370012712E+03 0.  0.
         24    2    5    5    0    0 -0.27783574297E+02  0.99846908049E+02  0.33829083106E+02  0.13732908774E+03  0.83507720773E+02 0.  0.
          5    1    5    5  501    0  0.65681672374E+02 -0.71188151784E+01  0.33236900901E+02  0.74104933689E+02  0.47000000000E+01 0. -1.
        -11    1    6    6    0    0 -0.40031176771E+02  0.65949948181E+02 -0.13000069960E+02  0.78236133581E+02  0.00000000000E+00 0.  1.
         12    1    6    6    0    0  0.12247602474E+02  0.33896959868E+02  0.46829153065E+02  0.59092954161E+02  0.00000000000E+00 0. -1.
         -5    1    3    3    0  503  0.45742358208E+02 -0.67653243685E+02 -0.15287327547E+03  0.17338296649E+03  0.47000000000E+01 0.  1.
         11    1    4    4    0    0 -0.35166604271E+02  0.20968957617E+02 -0.29596038271E+02  0.50520418850E+02  0.00000000000E+00 0. -1.
        -12    1    4    4    0    0 -0.48473852015E+02 -0.46043806802E+02 -0.14799825051E+03  0.16239836399E+03  0.00000000000E+00 0.  1.
<mgrwt>
<rscale>  2 0.20039923E+03</rscale>
<asrwt>0</asrwt>
<pdfrwt beam="1">  1       21 0.25718015E-01 0.20051558E+03</pdfrwt>
<pdfrwt beam="2">  1       21 0.66241334E-01 0.20051558E+03</pdfrwt>
<totfact> 0.29878157E+04</totfact>
</mgrwt>
</event>
<event>
12    1  0.1026879E-001  0.1731044E+03  0.7546771E-02  0.1177359E+00
         21   -1    0    0  503  502  0.00000000000E+00  0.00000000000E+00  0.39571550395E+03  0.39571550395E+03  0.00000000000E+00 0. -1.
         21   -1    0    0  501  503 -0.00000000000E+00 -0.00000000000E+00 -0.71760979983E+02  0.71760979983E+02  0.00000000000E+00 0. -1.
          6    2    1    2  501    0 -0.25319662161E+01  0.14145606433E+02  0.18593314492E+03  0.25403988329E+03  0.17250686621E+03 0.  0.
         24    2    3    3    0    0  0.85180171241E+01  0.75479658678E+02  0.12180887986E+03  0.16449671233E+03  0.80324527169E+02 0.  0.
         -6    2    1    2    0  502  0.25319662161E+01 -0.14145606433E+02  0.13802137905E+03  0.21343660064E+03  0.16216896246E+03 0.  0.
        -24    2    5    5    0    0  0.61458085747E+02  0.20816399260E+01  0.85430965675E+02  0.13266870686E+03  0.80753367452E+02 0.  0.
          5    1    3    3  501    0 -0.11049983340E+02 -0.61334052245E+02  0.64124265058E+02  0.89543170962E+02  0.47000000000E+01 0. -1.
        -11    1    4    4    0    0  0.17424676549E+02  0.49644676570E+02  0.15672021174E+02  0.54898319759E+02  0.00000000000E+00 0.  1.
         12    1    4    4    0    0 -0.89066594254E+01  0.25834982107E+02  0.10613685869E+03  0.10959839257E+03  0.00000000000E+00 0. -1.
         -5    1    5    5    0  502 -0.58926119531E+02 -0.16227246359E+02  0.52590413377E+02  0.80767893786E+02  0.47000000000E+01 0.  1.
         13    1    6    6    0    0  0.48902658455E+02  0.92114064607E+01  0.39508844730E+01  0.49919229772E+02  0.00000000000E+00 0. -1.
        -14    1    6    6    0    0  0.12555427292E+02 -0.71297665347E+01  0.81480081202E+02  0.82749477086E+02  0.00000000000E+00 0.  1.
<mgrwt>
<rscale>  2 0.17046986E+03</rscale>
<asrwt>0</asrwt>
<pdfrwt beam="1">  1       21 0.60879308E-01 0.17310438E+03</pdfrwt>
<pdfrwt beam="2">  1       21 0.11040151E-01 0.17310438E+03</pdfrwt>
<totfact> 0.17206652E+05</totfact>
</mgrwt>
</event>
<event>
12    1  0.1026879E-001  0.1897366E+03  0.7546771E-02  0.1158998E+00
         21   -1    0    0  501  502  0.00000000000E+00  0.00000000000E+00  0.29166260904E+02  0.29166260904E+02  0.00000000000E+00 0. -1.
         21   -1    0    0  502  503 -0.00000000000E+00 -0.00000000000E+00 -0.12728786486E+04  0.12728786486E+04  0.00000000000E+00 0. -1.
         -6    2    1    2    0  503 -0.76057383008E+02  0.12313772077E+02 -0.49447092176E+03  0.52915245301E+03  0.17194322192E+03 0.  0.
        -24    2    3    3    0    0 -0.78690883558E+02 -0.28172712230E+02 -0.19604240336E+03  0.22794195962E+03  0.80863812474E+02 0.  0.
          6    2    1    2  501    0  0.76057383008E+02 -0.12313772077E+02 -0.74924146593E+03  0.77289245649E+03  0.17338864016E+03 0.  0.
         24    2    5    5    0    0  0.65662563930E+02 -0.56936451041E+02 -0.67578740475E+03  0.68619283224E+03  0.81355115620E+02 0.  0.
          5    1    5    5  501    0  0.10394819078E+02  0.44622678963E+02 -0.73454061176E+02  0.86699624248E+02  0.47000000000E+01 0. -1.
        -13    1    6    6    0    0 -0.17204932738E+02  0.20190510153E+01 -0.10328452562E+03  0.10472716701E+03  0.00000000000E+00 0.  1.
         14    1    6    6    0    0  0.82867496667E+02 -0.58955502056E+02 -0.57250287913E+03  0.58146566522E+03  0.00000000000E+00 0. -1.
         -5    1    3    3    0  503  0.26335005500E+01  0.40486484307E+02 -0.29842851840E+03  0.30121049339E+03  0.47000000000E+01 0.  1.
         11    1    4    4    0    0 -0.52652164177E+02  0.10610050327E+02 -0.16048845872E+03  0.16923761090E+03  0.00000000000E+00 0. -1.
        -12    1    4    4    0    0 -0.26038719381E+02 -0.38782762557E+02 -0.35553944640E+02  0.58704348714E+02  0.00000000000E+00 0.  1.
<mgrwt>
<rscale>  2 0.18940574E+03</rscale>
<asrwt>0</asrwt>
<pdfrwt beam="1">  1       21 0.44871177E-02 0.18973659E+03</pdfrwt>
<pdfrwt beam="2">  1       21 0.19582746E+00 0.18973659E+03</pdfrwt>
<totfact> 0.46232955E+04</totfact>
</mgrwt>
</event>
<event>
12    1  0.1026879E-001  0.2589018E+03  0.7546771E-02  0.1107968E+00
         21   -1    0    0  501  502  0.00000000000E+00  0.00000000000E+00  0.73482186005E+03  0.73482186005E+03  0.00000000000E+00 0.  1.
         21   -1    0    0  502  503 -0.00000000000E+00 -0.00000000000E+00 -0.38535896839E+03  0.38535896839E+03  0.00000000000E+00 0.  1.
         -6    2    1    2    0  503 -0.16175252978E+03 -0.10487531446E+03 -0.31482851776E+03  0.40761149012E+03  0.17282192802E+03 0.  0.
        -24    2    3    3    0    0 -0.11108094489E+03 -0.75292130266E+02 -0.31089151677E+03  0.34861687783E+03  0.82899403583E+02 0.  0.
          6    2    1    2  501    0  0.16175252978E+03  0.10487531446E+03  0.66429140942E+03  0.71256933833E+03  0.17119951176E+03 0.  0.
         24    2    5    5    0    0  0.88181525372E+02  0.11758488885E+03  0.33075037375E+03  0.37074198652E+03  0.80321997795E+02 0.  0.
          5    1    5    5  501    0  0.73571004403E+02 -0.12709574388E+02  0.33354103567E+03  0.34182735181E+03  0.47000000000E+01 0. -1.
        -13    1    6    6    0    0  0.65358843408E+02  0.36181411943E+02  0.21348578480E+03  0.22617925036E+03  0.00000000000E+00 0.  1.
         14    1    6    6    0    0  0.22822681964E+02  0.81403476905E+02  0.11726458896E+03  0.14456273616E+03  0.00000000000E+00 0. -1.
         -5    1    3    3    0  503 -0.50671584885E+02 -0.29583184193E+02 -0.39370009978E+01  0.58994612285E+02  0.47000000000E+01 0.  1.
         11    1    4    4    0    0 -0.53689120911E+02  0.89877951344E+01 -0.87439663141E+02  0.10299998474E+03  0.00000000000E+00 0. -1.
        -12    1    4    4    0    0 -0.57391823979E+02 -0.84279925401E+02 -0.22345185362E+03  0.24561689309E+03  0.00000000000E+00 0.  1.
<mgrwt>
<rscale>  2 0.25863131E+03</rscale>
<asrwt>0</asrwt>
<pdfrwt beam="1">  1       21 0.11304952E+00 0.25890178E+03</pdfrwt>
<pdfrwt beam="2">  1       21 0.59285995E-01 0.25890178E+03</pdfrwt>
<totfact> 0.15373351E+03</totfact>
</mgrwt>
</event>
<event>
11    1  0.1026879E-001  0.1815510E+03  0.7546771E-02  0.1167404E+00
         21   -1    0    0  503  502  0.00000000000E+00  0.00000000000E+00  0.73998296480E+02  0.73998296480E+02  0.00000000000E+00 0.  1.
         21   -1    0    0  501  503 -0.00000000000E+00 -0.00000000000E+00 -0.43513241091E+03  0.43513241091E+03  0.00000000000E+00 0.  1.
          6    2    1    2  501    0  0.26838148930E+02  0.22391103772E+02 -0.18854393710E+03  0.25863492627E+03  0.17355564268E+03 0.  0.
         -6    2    1    2    0  502 -0.26838148930E+02 -0.22391103772E+02 -0.17259017733E+03  0.25049578112E+03  0.17815476216E+03 0.  0.
        -24    2    4    4    0    0 -0.57611123228E+01  0.21189983140E+02 -0.11011429777E+02  0.81755346518E+02  0.77977428130E+02 0.  0.
          5    1    3    3  501    0  0.11390127210E+02 -0.37391770737E+02 -0.24740442507E+02  0.46497946322E+02  0.47000000000E+01 0. -1.
        -13    1    3    3    0    0  0.64508189221E+02  0.19141430909E+02 -0.59009351031E+02  0.89497510373E+02  0.00000000000E+00 0.  1.
         14    1    3    3    0    0 -0.49060167502E+02  0.40641443601E+02 -0.10479414356E+03  0.12263946958E+03  0.00000000000E+00 0. -1.
         -5    1    4    4    0  502 -0.21077036607E+02 -0.43581086913E+02 -0.16157874755E+03  0.16874043460E+03  0.47000000000E+01 0.  1.
         11    1    5    5    0    0  0.27312166071E+02 -0.85102685480E+01  0.12785789584E+02  0.31334573582E+02  0.00000000000E+00 0. -1.
        -12    1    5    5    0    0 -0.33073278394E+02  0.29700251688E+02 -0.23797219361E+02  0.50420772936E+02  0.00000000000E+00 0.  1.
<mgrwt>
<rscale>  2 0.18041262E+03</rscale>
<asrwt>0</asrwt>
<pdfrwt beam="1">  1       21 0.11384353E-01 0.18155100E+03</pdfrwt>
<pdfrwt beam="2">  1       21 0.66943448E-01 0.18155100E+03</pdfrwt>
<totfact> 0.13227290E+05</totfact>
</mgrwt>
</event>
<event>
12    1  0.1026879E-001  0.3943305E+03  0.7546771E-02  0.1046020E+00
         21   -1    0    0  503  502  0.00000000000E+00  0.00000000000E+00  0.12185120044E+04  0.12185120044E+04  0.00000000000E+00 0.  1.
         21   -1    0    0  501  503 -0.00000000000E+00 -0.00000000000E+00 -0.14500110523E+03  0.14500110523E+03  0.00000000000E+00 0. -1.
          6    2    1    2  501    0  0.19156574267E+03 -0.29384952046E+03  0.29256722160E+03  0.48865906622E+03  0.17362928731E+03 0.  0.
         24    2    3    3    0    0  0.18820045408E+03 -0.17138919724E+03  0.17767092910E+03  0.32063792482E+03  0.80299762989E+02 0.  0.
         -6    2    1    2    0  502 -0.19156574267E+03  0.29384952046E+03  0.78094367760E+03  0.87485404345E+03  0.18014326329E+03 0.  0.
        -24    2    5    5    0    0 -0.21381733135E+02  0.51062689524E+02  0.17498575260E+03  0.20023182379E+03  0.80051189079E+02 0.  0.
          5    1    3    3  501    0  0.33652885911E+01 -0.12246032322E+03  0.11489629250E+03  0.16802114141E+03  0.47000000000E+01 0. -1.
        -11    1    4    4    0    0  0.17123537181E+03 -0.14919908708E+03  0.18364448211E+03  0.29207399055E+03  0.00000000000E+00 0.  1.
         12    1    4    4    0    0  0.16965082271E+02 -0.22190110159E+02 -0.59735530100E+01  0.28563934268E+02  0.00000000000E+00 0. -1.
         -5    1    5    5    0  502 -0.17018400954E+03  0.24278683093E+03  0.60595792500E+03  0.67462221965E+03  0.47000000000E+01 0.  1.
         13    1    6    6    0    0 -0.13213132024E+02  0.60449543324E+02  0.17711051655E+03  0.18760828664E+03  0.00000000000E+00 0. -1.
        -14    1    6    6    0    0 -0.81686011115E+01 -0.93868538002E+01 -0.21247639438E+01  0.12623537151E+02  0.00000000000E+00 0.  1.
<mgrwt>
<rscale>  2 0.39359525E+03</rscale>
<asrwt>0</asrwt>
<pdfrwt beam="1">  1       21 0.18746338E+00 0.39433053E+03</pdfrwt>
<pdfrwt beam="2">  1       21 0.22307863E-01 0.39433053E+03</pdfrwt>
<totfact> 0.26631199E+03</totfact>
</mgrwt>
</event>
<event>
12    1  0.1026879E-001  0.1878295E+03  0.7546771E-02  0.1160804E+00
         21   -1    0    0  503  502  0.00000000000E+00  0.00000000000E+00  0.27944340143E+02  0.27944340143E+02  0.00000000000E+00 0.  1.
         21   -1    0    0  501  503 -0.00000000000E+00 -0.00000000000E+00 -0.14927942565E+04  0.14927942565E+04  0.00000000000E+00 0.  1.
          6    2    1    2  501    0 -0.71646293732E+02  0.13385664578E+02 -0.10353533554E+04  0.10519665821E+04  0.17136146574E+03 0.  0.
         24    2    3    3    0    0 -0.49089477284E+00 -0.23169679339E+02 -0.77482529799E+03  0.77939302752E+03  0.81007246123E+02 0.  0.
         -6    2    1    2    0  502  0.71646293732E+02 -0.13385664578E+02 -0.42949656098E+03  0.46877201455E+03  0.17311134655E+03 0.  0.
        -24    2    5    5    0    0  0.40835596256E+02  0.48495189894E+02 -0.34165749148E+03  0.35689560345E+03  0.81395951449E+02 0.  0.
          5    1    3    3  501    0 -0.71155398960E+02  0.36555343917E+02 -0.26052805743E+03  0.27257355462E+03  0.47000000000E+01 0. -1.
        -11    1    4    4    0    0  0.65146180887E+01 -0.45799264291E+02 -0.26426363979E+03  0.26828209813E+03  0.00000000000E+00 0.  1.
         12    1    4    4    0    0 -0.70055128616E+01  0.22629584953E+02 -0.51056165820E+03  0.51111092939E+03  0.00000000000E+00 0. -1.
         -5    1    5    5    0  502  0.30810697477E+02 -0.61880854472E+02 -0.87839069503E+02  0.11187641110E+03  0.47000000000E+01 0.  1.
         11    1    6    6    0    0 -0.43069009632E+01 -0.18642986733E+02 -0.10663006196E+03  0.10833319189E+03  0.00000000000E+00 0. -1.
        -12    1    6    6    0    0  0.45142497219E+02  0.67138176628E+02 -0.23502742952E+03  0.24856241156E+03  0.00000000000E+00 0.  1.
<mgrwt>
<rscale>  2 0.18742528E+03</rscale>
<asrwt>0</asrwt>
<pdfrwt beam="1">  1       21 0.42991278E-02 0.18782946E+03</pdfrwt>
<pdfrwt beam="2">  1       21 0.22966073E+00 0.18782946E+03</pdfrwt>
<totfact> 0.30618603E+04</totfact>
</mgrwt>
</event>
<event>
12    1  0.1026879E-001  0.1808038E+03  0.7546771E-02  0.1167974E+00
         21   -1    0    0  503  502  0.00000000000E+00  0.00000000000E+00  0.18771404829E+04  0.18771404829E+04  0.00000000000E+00 0. -1.
         21   -1    0    0  501  503 -0.00000000000E+00 -0.00000000000E+00 -0.22219799427E+02  0.22219799427E+02  0.00000000000E+00 0. -1.
          6    2    1    2  501    0 -0.59241795047E+01 -0.38095796424E+02  0.47678173069E+03  0.50991255810E+03  0.17664544311E+03 0.  0.
         24    2    3    3    0    0  0.21161736193E+02 -0.71777020125E+02  0.43845419135E+03  0.45195428059E+03  0.80130107546E+02 0.  0.
         -6    2    1    2    0  502  0.59241795047E+01  0.38095796424E+02  0.13781389527E+04  0.13894477242E+04  0.17266041699E+03 0.  0.
        -24    2    5    5    0    0  0.56071715482E+02  0.47732307718E+02  0.11031312373E+04  0.11096996746E+04  0.95459051750E+02 0.  0.
          5    1    3    3  501    0 -0.27085915698E+02  0.33681223701E+02  0.38327539344E+02  0.57958277505E+02  0.47000000000E+01 0. -1.
        -11    1    4    4    0    0 -0.43424345585E+01  0.60820512944E+01  0.19384240907E+03  0.19398641097E+03  0.00000000000E+00 0.  1.
         12    1    4    4    0    0  0.25504170752E+02 -0.77859071420E+02  0.24461178228E+03  0.25796786962E+03  0.00000000000E+00 0. -1.
         -5    1    5    5    0  502 -0.50147535977E+02 -0.96365112935E+01  0.27500771544E+03  0.27974804962E+03  0.47000000000E+01 0.  1.
         13    1    6    6    0    0  0.35965183361E+02  0.24188098511E+01  0.89576788363E+03  0.89649285909E+03  0.00000000000E+00 0. -1.
        -14    1    6    6    0    0  0.20106532121E+02  0.45313497867E+02  0.20736335366E+03  0.21320681547E+03  0.00000000000E+00 0.  1.
<mgrwt>
<rscale>  2 0.17982297E+03</rscale>
<asrwt>0</asrwt>
<pdfrwt beam="1">  1       21 0.28879072E+00 0.18080376E+03</pdfrwt>
<pdfrwt beam="2">  1       21 0.34184322E-02 0.18080376E+03</pdfrwt>
<totfact> 0.20414956E+04</totfact>
</mgrwt>
</event>
<event>
11    1  0.1026879E-001  0.1834357E+03  0.7546771E-02  0.1164801E+00
         21   -1    0    0  503  502  0.00000000000E+00  0.00000000000E+00  0.38902938599E+02  0.38902938599E+02  0.00000000000E+00 0. -1.
         21   -1    0    0  501  503 -0.00000000000E+00 -0.00000000000E+00 -0.10360641885E+04  0.10360641885E+04  0.00000000000E+00 0. -1.
          6    2    1    2  501    0 -0.53209607055E+02  0.26292520233E+02 -0.71922314527E+03  0.74195325539E+03  0.17230827486E+03 0.  0.
         -6    2    1    2    0  502  0.53209607055E+02 -0.26292520233E+02 -0.27793810466E+03  0.33301387174E+03  0.17356868913E+03 0.  0.
        -24    2    4    4    0    0  0.48597858322E+02 -0.82379510653E+02 -0.21430876419E+03  0.24793860102E+03  0.79982297133E+02 0.  0.
          5    1    3    3  501    0  0.83695178785E+01  0.29112632941E+02 -0.29526699334E+03  0.29685397350E+03  0.47000000000E+01 0. -1.
        -13    1    3    3    0    0  0.19695433245E+02 -0.14130260087E+02 -0.16168641605E+02  0.29137592766E+02  0.00000000000E+00 0.  1.
         14    1    3    3    0    0 -0.81274558179E+02  0.11310147378E+02 -0.40778751033E+03  0.41596168913E+03  0.00000000000E+00 0. -1.
         -5    1    4    4    0  502  0.46117487332E+01  0.56086990420E+02 -0.63629340470E+02  0.85075270728E+02  0.47000000000E+01 0.  1.
         11    1    5    5    0    0 -0.28899147451E+01 -0.14651216908E+02  0.24025782950E+01  0.15125546158E+02  0.00000000000E+00 0. -1.
        -12    1    5    5    0    0  0.51487773067E+02 -0.67728293745E+02 -0.21671134249E+03  0.23281305486E+03  0.00000000000E+00 0.  1.
<mgrwt>
<rscale>  2 0.18313691E+03</rscale>
<asrwt>0</asrwt>
<pdfrwt beam="1">  1       21 0.59850688E-02 0.18343568E+03</pdfrwt>
<pdfrwt beam="2">  1       21 0.15939446E+00 0.18343568E+03</pdfrwt>
<totfact> 0.50619819E+04</totfact>
</mgrwt>
</event>
<event>
12    1  0.1026879E-001  0.2342658E+03  0.7546771E-02  0.1124563E+00
         21   -1    0    0  501  502  0.00000000000E+00  0.00000000000E+00  0.54815234361E+03  0.54815234361E+03  0.00000000000E+00 0. -1.
         21   -1    0    0  502  503 -0.00000000000E+00 -0.00000000000E+00 -0.12534106270E+03  0.12534106270E+03  0.00000000000E+00 0. -1.
         -6    2    1    2    0  503 -0.15222761419E+03 -0.47436982153E+02  0.52149597263E+02  0.23500675582E+03  0.16457545683E+03 0.  0.
        -24    2    3    3    0    0 -0.85655098014E+02 -0.64675772088E+02  0.85410070442E+02  0.15847294065E+03  0.79366500966E+02 0.  0.
          6    2    1    2  501    0  0.15222761419E+03  0.47436982153E+02  0.37066168365E+03  0.43848665048E+03  0.17163025703E+03 0.  0.
         24    2    5    5    0    0  0.20549681394E+02 -0.18312043738E+02  0.11154031697E+03  0.14044640981E+03  0.80785712647E+02 0.  0.
          5    1    5    5  501    0  0.13167793280E+03  0.65749025891E+02  0.25912136668E+03  0.29804024067E+03  0.47000000000E+01 0. -1.
        -11    1    6    6    0    0 -0.19775945380E+02 -0.44588528304E+01 -0.79825499127E+00  0.20288089985E+02  0.00000000000E+00 0.  1.
         12    1    6    6    0    0  0.40325626773E+02 -0.13853190907E+02  0.11233857197E+03  0.12015831983E+03  0.00000000000E+00 0. -1.
         -5    1    3    3    0  503 -0.66572516176E+02  0.17238789935E+02 -0.33260473179E+02  0.76533815170E+02  0.47000000000E+01 0.  1.
         11    1    4    4    0    0 -0.15006527817E+02 -0.45041795963E+02  0.21461971851E+01  0.47524366625E+02  0.00000000000E+00 0. -1.
        -12    1    4    4    0    0 -0.70648570197E+02 -0.19633976124E+02  0.83263873256E+02  0.11094857403E+03  0.00000000000E+00 0.  1.
<mgrwt>
<rscale>  2 0.23297561E+03</rscale>
<asrwt>0</asrwt>
<pdfrwt beam="1">  1       21 0.84331128E-01 0.23426579E+03</pdfrwt>
<pdfrwt beam="2">  1       21 0.19283241E-01 0.23426579E+03</pdfrwt>
<totfact> 0.29487130E+04</totfact>
</mgrwt>
</event>
<event>
12    1  0.1026879E-001  0.2005614E+03  0.7546771E-02  0.1149483E+00
         21   -1    0    0  501  502  0.00000000000E+00  0.00000000000E+00  0.50081136120E+03  0.50081136120E+03  0.00000000000E+00 0.  1.
         21   -1    0    0  502  503 -0.00000000000E+00 -0.00000000000E+00 -0.80165707586E+02  0.80165707586E+02  0.00000000000E+00 0. -1.
         -6    2    1    2    0  503  0.94638711797E+02  0.38862685019E+02  0.22730477237E+03  0.30313745249E+03  0.17250525065E+03 0.  0.
        -24    2    3    3    0    0  0.49022634779E+02  0.74649359031E+02  0.21054024708E+03  0.24260108468E+03  0.80946557215E+02 0.  0.
          6    2    1    2  501    0 -0.94638711797E+02 -0.38862685019E+02  0.19334088124E+03  0.27783961629E+03  0.17131071760E+03 0.  0.
         24    2    5    5    0    0 -0.91872004493E+02 -0.20200817463E+02  0.50369207621E+02  0.13355202352E+03  0.80315301627E+02 0.  0.
          5    1    5    5  501    0 -0.27667073036E+01 -0.18661867556E+02  0.14297167362E+03  0.14428759277E+03  0.47000000000E+01 0. -1.
        -13    1    6    6    0    0 -0.44656723310E+02  0.15917237619E+02  0.56541145523E+02  0.73786736798E+02  0.00000000000E+00 0.  1.
         14    1    6    6    0    0 -0.47215281182E+02 -0.36118055082E+02 -0.61719379022E+01  0.59765286726E+02  0.00000000000E+00 0. -1.
         -5    1    3    3    0  503  0.45616077017E+02 -0.35786674012E+02  0.16764525296E+02  0.60536367810E+02  0.47000000000E+01 0.  1.
         11    1    4    4    0    0  0.21947285450E+02 -0.14278021298E+02  0.62926111555E+02  0.68156003010E+02  0.00000000000E+00 0. -1.
        -12    1    4    4    0    0  0.27075349329E+02  0.88927380329E+02  0.14761413552E+03  0.17444508167E+03  0.00000000000E+00 0.  1.
<mgrwt>
<rscale>  2 0.20030423E+03</rscale>
<asrwt>0</asrwt>
<pdfrwt beam="1">  1       21 0.77047900E-01 0.20056135E+03</pdfrwt>
<pdfrwt beam="2">  1       21 0.12333186E-01 0.20056135E+03</pdfrwt>
<totfact> 0.83346616E+04</totfact>
</mgrwt>
</event>
<event>
12    1  0.1026879E-001  0.2382400E+03  0.7546771E-02  0.1121297E+00
         21   -1    0    0  501  502  0.00000000000E+00  0.00000000000E+00  0.69345415555E+03  0.69345415555E+03  0.00000000000E+00 0.  1.
         21   -1    0    0  502  503 -0.00000000000E+00 -0.00000000000E+00 -0.10412808365E+03  0.10412808365E+03  0.00000000000E+00 0. -1.
         -6    2    1    2    0  503  0.15979012422E+03  0.45366742217E+02  0.10654725498E+03  0.25922021536E+03  0.16808265052E+03 0.  0.
        -24    2    3    3    0    0  0.11173907712E+03 -0.31043623444E+02  0.39721210546E+02  0.14681355487E+03  0.80790577500E+02 0.  0.
          6    2    1    2  501    0 -0.15979012422E+03 -0.45366742217E+02  0.48277881693E+03  0.53836202384E+03  0.17078424266E+03 0.  0.
         24    2    5    5    0    0 -0.12144299618E+03  0.83759088586E+01  0.42871565813E+03  0.45290039553E+03  0.80641773153E+02 0.  0.
          5    1    5    5  501    0 -0.38347128044E+02 -0.53742651075E+02  0.54063158795E+02  0.85461628306E+02  0.47000000000E+01 0. -1.
        -11    1    6    6    0    0 -0.23702843842E+02  0.17461681421E+02  0.22333556518E+03  0.22526764037E+03  0.00000000000E+00 0.  1.
         12    1    6    6    0    0 -0.97740152338E+02 -0.90857725623E+01  0.20538009295E+03  0.22763275516E+03  0.00000000000E+00 0. -1.
         -5    1    3    3    0  503  0.48051047103E+02  0.76410365661E+02  0.66826044430E+02  0.11240666049E+03  0.47000000000E+01 0.  1.
         13    1    4    4    0    0  0.11572307735E+03 -0.30005060024E+02  0.13543919725E+02  0.12031447136E+03  0.00000000000E+00 0. -1.
        -14    1    4    4    0    0 -0.39840002269E+01 -0.10385634202E+01  0.26177290820E+02  0.26499083503E+02  0.00000000000E+00 0.  1.
<mgrwt>
<rscale>  2 0.23775621E+03</rscale>
<asrwt>0</asrwt>
<pdfrwt beam="1">  1       21 0.10668525E+00 0.23823997E+03</pdfrwt>
<pdfrwt beam="2">  1       21 0.16019706E-01 0.23823997E+03</pdfrwt>
<totfact> 0.23841060E+04</totfact>
</mgrwt>
</event>
<event>
12    1  0.1026879E-001  0.2746920E+03  0.7546771E-02  0.1098673E+00
         21   -1    0    0  501  502  0.00000000000E+00  0.00000000000E+00  0.87825970513E+03  0.87825970513E+03  0.00000000000E+00 0.  1.
         21   -1    0    0  502  503 -0.00000000000E+00 -0.00000000000E+00 -0.21130322320E+03  0.21130322320E+03  0.00000000000E+00 0. -1.
         -6    2    1    2    0  503  0.63255630193E+01  0.21286452266E+03 -0.86278268835E+02  0.28792297054E+03  0.17350613687E+03 0.  0.
        -24    2    3    3    0    0 -0.19142642510E+02  0.30933766721E+02 -0.42949839803E+02  0.99119177637E+02  0.81587890956E+02 0.  0.
          6    2    1    2  501    0 -0.63255630193E+01 -0.21286452266E+03  0.75323475077E+03  0.80163995779E+03  0.17295292541E+03 0.  0.
         24    2    5    5    0    0 -0.73542201342E+01 -0.22683560391E+03  0.58588107304E+03  0.63363521769E+03  0.82027322275E+02 0.  0.
          5    1    5    5  501    0  0.10286571149E+01  0.13971081247E+02  0.16735367773E+03  0.16800474010E+03  0.47000000000E+01 0. -1.
        -13    1    6    6    0    0 -0.25473944025E+02 -0.12512274912E+03  0.23007679758E+03  0.26313486458E+03  0.00000000000E+00 0.  1.
         14    1    6    6    0    0  0.18119723891E+02 -0.10171285479E+03  0.35580427546E+03  0.37050035312E+03  0.00000000000E+00 0. -1.
         -5    1    3    3    0  503  0.25468205529E+02  0.18193075594E+03 -0.43328429033E+02  0.18880379290E+03  0.47000000000E+01 0.  1.
         11    1    4    4    0    0 -0.54167438767E+01  0.53570648538E+02 -0.67399250794E+01  0.54264003622E+02  0.00000000000E+00 0. -1.
        -12    1    4    4    0    0 -0.13725898633E+02 -0.22636881817E+02 -0.36209914723E+02  0.44855174015E+02  0.00000000000E+00 0.  1.
<mgrwt>
<rscale>  2 0.27460469E+03</rscale>
<asrwt>0</asrwt>
<pdfrwt beam="1">  1       21 0.13511688E+00 0.27469200E+03</pdfrwt>
<pdfrwt beam="2">  1       21 0.32508189E-01 0.27469200E+03</pdfrwt>
<totfact> 0.33579350E+03</totfact>
</mgrwt>
</event>
<event>
12    1  0.1026879E-001  0.2597836E+03  0.7546771E-02  0.1107277E+00
         21   -1    0    0  501  502  0.00000000000E+00  0.00000000000E+00  0.30985168841E+03  0.30985168841E+03  0.00000000000E+00 0.  1.
         21   -1    0    0  502  503 -0.00000000000E+00 -0.00000000000E+00 -0.35802308581E+03  0.35802308581E+03  0.00000000000E+00 0. -1.
         -6    2    1    2    0  503  0.18284452925E+03 -0.63755188833E+02 -0.23308231232E+03  0.34901986075E+03  0.17317809591E+03 0.  0.
        -24    2    3    3    0    0  0.60288416282E+02 -0.76958406071E+02 -0.16687447475E+03  0.20902024101E+03  0.79278505462E+02 0.  0.
          6    2    1    2  501    0 -0.18284452925E+03  0.63755188833E+02  0.18491091492E+03  0.31885491347E+03  0.17314607533E+03 0.  0.
         24    2    5    5    0    0 -0.14607801222E+03  0.10878252658E+03  0.15814422175E+03  0.25468495334E+03  0.81745989746E+02 0.  0.
          5    1    5    5  501    0 -0.36766517031E+02 -0.45027337750E+02  0.26766693172E+02  0.64169960128E+02  0.47000000000E+01 0. -1.
        -11    1    6    6    0    0 -0.11339965792E+03  0.62066544709E+02  0.14846290644E+03  0.19685774807E+03  0.00000000000E+00 0.  1.
         12    1    6    6    0    0 -0.32678354302E+02  0.46715981874E+02  0.96813153087E+01  0.57827205263E+02  0.00000000000E+00 0. -1.
         -5    1    3    3    0  503  0.12255611297E+03  0.13203217238E+02 -0.66207837574E+02  0.13999961974E+03  0.47000000000E+01 0.  1.
         11    1    4    4    0    0 -0.65342506839E+01 -0.73604309910E+01 -0.75487945014E+02  0.76126882367E+02  0.00000000000E+00 0. -1.
        -12    1    4    4    0    0  0.66822666966E+02 -0.69597975080E+02 -0.91386529732E+02  0.13289335865E+03  0.00000000000E+00 0.  1.
<mgrwt>
<rscale>  2 0.25977823E+03</rscale>
<asrwt>0</asrwt>
<pdfrwt beam="1">  1       21 0.47669490E-01 0.25978356E+03</pdfrwt>
<pdfrwt beam="2">  1       21 0.55080475E-01 0.25978356E+03</pdfrwt>
<totfact> 0.12580821E+04</totfact>
</mgrwt>
</event>
<event>
12    1  0.1026879E-001  0.3204868E+03  0.7546771E-02  0.1075471E+00
         21   -1    0    0  501  502  0.00000000000E+00  0.00000000000E+00  0.18742945423E+04  0.18742945423E+04  0.00000000000E+00 0.  1.
         21   -1    0    0  502  503 -0.00000000000E+00 -0.00000000000E+00 -0.55474106163E+02  0.55474106163E+02  0.00000000000E+00 0. -1.
         -6    2    1    2    0  503 -0.25692773927E+03 -0.84637158207E+02  0.79724309000E+03  0.85909967732E+03  0.17111516375E+03 0.  0.
        -24    2    3    3    0    0 -0.17547573857E+03 -0.11230666547E+03  0.66091206384E+03  0.69782888411E+03  0.82194120401E+02 0.  0.
          6    2    1    2  501    0  0.25692773927E+03  0.84637158207E+02  0.10215773461E+04  0.10706689711E+04  0.17186174637E+03 0.  0.
         24    2    5    5    0    0  0.20927693218E+03 -0.17470595171E+01  0.72662598453E+03  0.75962037654E+03  0.72373396375E+02 0.  0.
          5    1    5    5  501    0  0.47650807096E+02  0.86384217725E+02  0.29495136159E+03  0.31104859459E+03  0.47000000000E+01 0. -1.
        -11    1    6    6    0    0  0.12468592135E+03 -0.24931275782E+02  0.51653363966E+03  0.53195408485E+03  0.00000000000E+00 0.  1.
         12    1    6    6    0    0  0.84591010824E+02  0.23184216265E+02  0.21009234488E+03  0.22766629169E+03  0.00000000000E+00 0. -1.
         -5    1    3    3    0  503 -0.81452000703E+02  0.27669507259E+02  0.13633102616E+03  0.16127079321E+03  0.47000000000E+01 0.  1.
         11    1    4    4    0    0 -0.71508548929E+01 -0.39990033617E+02  0.11074260354E+03  0.11795872903E+03  0.00000000000E+00 0. -1.
        -12    1    4    4    0    0 -0.16832488368E+03 -0.72316631850E+02  0.55016946030E+03  0.57987015508E+03  0.00000000000E+00 0.  1.
<mgrwt>
<rscale>  2 0.32038679E+03</rscale>
<asrwt>0</asrwt>
<pdfrwt beam="1">  1       21 0.28835296E+00 0.32048677E+03</pdfrwt>
<pdfrwt beam="2">  1       21 0.85344793E-02 0.32048677E+03</pdfrwt>
<totfact> 0.38119711E+03</totfact>
</mgrwt>
</event>
<event>
12    1  0.1026879E-001  0.2054693E+03  0.7546771E-02  0.1145545E+00
         21   -1    0    0  503  502  0.00000000000E+00  0.00000000000E+00  0.19534246712E+03  0.19534246712E+03  0.00000000000E+00 0.  1.
         21   -1    0    0  501  503 -0.00000000000E+00 -0.00000000000E+00 -0.24263348909E+03  0.24263348909E+03  0.00000000000E+00 0.  1.
          6    2    1    2  501    0  0.99110586226E+02  0.45338407774E+02 -0.98460782529E+02  0.22784242458E+03  0.17418141468E+03 0.  0.
         24    2    3    3    0    0  0.40756748842E+02  0.90423684935E+02 -0.84089585670E+02  0.15256644000E+03  0.79799153027E+02 0.  0.
         -6    2    1    2    0  502 -0.99110586226E+02 -0.45338407774E+02  0.51169760557E+02  0.21013353163E+03  0.17221869004E+03 0.  0.
        -24    2    5    5    0    0 -0.30194306578E+02  0.29886341212E+02 -0.65769195515E+01  0.92809256550E+02  0.82252128785E+02 0.  0.
          5    1    3    3  501    0  0.58353837384E+02 -0.45085277161E+02 -0.14371196858E+02  0.75275984572E+02  0.47000000000E+01 0. -1.
        -11    1    4    4    0    0  0.63893254716E+02  0.68570560604E+02 -0.51190301106E+02  0.10679286824E+03  0.00000000000E+00 0.  1.
         12    1    4    4    0    0 -0.23136505874E+02  0.21853124331E+02 -0.32899284564E+02  0.45773571763E+02  0.00000000000E+00 0. -1.
         -5    1    5    5    0  502 -0.68916279648E+02 -0.75224748986E+02  0.57746680108E+02  0.11732427508E+03  0.47000000000E+01 0.  1.
         13    1    6    6    0    0 -0.52920488336E+02  0.32171266938E+02  0.12343201539E+02  0.63150004959E+02  0.00000000000E+00 0. -1.
        -14    1    6    6    0    0  0.22726181758E+02 -0.22849257255E+01 -0.18920121090E+02  0.29659251591E+02  0.00000000000E+00 0.  1.
<mgrwt>
<rscale>  2 0.20505277E+03</rscale>
<asrwt>0</asrwt>
<pdfrwt beam="1">  1       21 0.30052687E-01 0.20546933E+03</pdfrwt>
<pdfrwt beam="2">  1       21 0.37328229E-01 0.20546933E+03</pdfrwt>
<totfact> 0.73092247E+04</totfact>
</mgrwt>
</event>
<event>
12    1  0.1026879E-001  0.2163169E+03  0.7546771E-02  0.1136672E+00
         21   -1    0    0  501  502  0.00000000000E+00  0.00000000000E+00  0.23102773163E+04  0.23102773163E+04  0.00000000000E+00 0. -1.
         21   -1    0    0  502  503 -0.00000000000E+00 -0.00000000000E+00 -0.31761416290E+02  0.31761416290E+02  0.00000000000E+00 0. -1.
         -6    2    1    2    0  503  0.10427980562E+03 -0.78238427375E+02  0.43432706105E+03  0.48521439963E+03  0.17261948982E+03 0.  0.
        -24    2    3    3    0    0  0.67091608035E+02  0.20707497170E+02  0.24850823097E+03  0.27138272369E+03  0.83439544267E+02 0.  0.
          6    2    1    2  501    0 -0.10427980562E+03  0.78238427375E+02  0.18441888390E+04  0.18568243330E+04  0.17253579443E+03 0.  0.
         24    2    5    5    0    0 -0.30236269405E+02  0.10605848704E+03  0.12294984796E+04  0.12370479790E+04  0.80365144679E+02 0.  0.
          5    1    5    5  501    0 -0.74043536215E+02 -0.27820059669E+02  0.61469035943E+03  0.61977635398E+03  0.47000000000E+01 0. -1.
        -13    1    6    6    0    0 -0.33016765414E+02  0.60282504595E+02  0.10323623051E+04  0.10346477739E+04  0.00000000000E+00 0.  1.
         14    1    6    6    0    0  0.27804960086E+01  0.45775982449E+02  0.19713617449E+03  0.20240020508E+03  0.00000000000E+00 0. -1.
         -5    1    3    3    0  503  0.37188197586E+02 -0.98945924544E+02  0.18581883008E+03  0.21383167594E+03  0.47000000000E+01 0.  1.
         13    1    4    4    0    0  0.55516238716E+02 -0.21646166469E+02  0.98888782866E+02  0.11545388976E+03  0.00000000000E+00 0. -1.
        -14    1    4    4    0    0  0.11575369319E+02  0.42353663638E+02  0.14961944811E+03  0.15592883393E+03  0.00000000000E+00 0.  1.
<mgrwt>
<rscale>  2 0.21630024E+03</rscale>
<asrwt>0</asrwt>
<pdfrwt beam="1">  1       21 0.35542715E+00 0.21631694E+03</pdfrwt>
<pdfrwt beam="2">  1       21 0.48863736E-02 0.21631694E+03</pdfrwt>
<totfact> 0.44118893E+03</totfact>
</mgrwt>
</event>
<event>
12    1  0.1026879E-001  0.1886426E+03  0.7546771E-02  0.1159771E+00
         21   -1    0    0  501  502  0.00000000000E+00  0.00000000000E+00  0.74656796188E+03  0.74656796188E+03  0.00000000000E+00 0. -1.
         21   -1    0    0  502  503 -0.00000000000E+00 -0.00000000000E+00 -0.10315598727E+03  0.10315598727E+03  0.00000000000E+00 0. -1.
         -6    2    1    2    0  503  0.53984362533E+02 -0.45541008498E+02  0.97111310464E+01  0.18854107184E+03  0.17454264479E+03 0.  0.
        -24    2    3    3    0    0 -0.26800538446E+02 -0.60401575894E+02 -0.76078721105E+01  0.10446328310E+03  0.80548609957E+02 0.  0.
          6    2    1    2  501    0 -0.53984362533E+02  0.45541008498E+02  0.63370084357E+03  0.66118287731E+03  0.17492210626E+03 0.  0.
         24    2    5    5    0    0  0.31398130974E+02  0.91330068335E+01  0.40042725184E+03  0.41007658233E+03  0.82167906843E+02 0.  0.
          5    1    5    5  501    0 -0.85382493507E+02  0.36408001665E+02  0.23327359173E+03  0.25110629498E+03  0.47000000000E+01 0. -1.
        -13    1    6    6    0    0  0.47130598331E+02  0.17240997304E+02  0.37889401032E+03  0.38220310875E+03  0.00000000000E+00 0.  1.
         14    1    6    6    0    0 -0.15732467357E+02 -0.81079904706E+01  0.21533241526E+02  0.27873473577E+02  0.00000000000E+00 0. -1.
         -5    1    3    3    0  503  0.80784900979E+02  0.14860567395E+02  0.17319003157E+02  0.84077788742E+02  0.47000000000E+01 0.  1.
         11    1    4    4    0    0  0.27276033031E+02 -0.16965363487E+02  0.85598099200E+01  0.33242681632E+02  0.00000000000E+00 0. -1.
        -12    1    4    4    0    0 -0.54076571477E+02 -0.43436212406E+02 -0.16167682031E+02  0.71220601466E+02  0.00000000000E+00 0.  1.
<mgrwt>
<rscale>  2 0.18855461E+03</rscale>
<asrwt>0</asrwt>
<pdfrwt beam="1">  1       21 0.11485661E+00 0.18864262E+03</pdfrwt>
<pdfrwt beam="2">  1       21 0.15870152E-01 0.18864262E+03</pdfrwt>
<totfact> 0.20864201E+04</totfact>
</mgrwt>
</event>
<event>
12    1  0.1026879E-001  0.2073518E+03  0.7546771E-02  0.1144831E+00
         21   -1    0    0  501  502  0.00000000000E+00  0.00000000000E+00  0.36634534242E+03  0.36634534242E+03  0.00000000000E+00 0.  1.
         21   -1    0    0  502  503 -0.00000000000E+00 -0.00000000000E+00 -0.38172621038E+03  0.38172621038E+03  0.00000000000E+00 0.  1.
         -6    2    1    2    0  503  0.86664623361E+01 -0.11505578896E+03 -0.32084293166E+03  0.38201435942E+03  0.17228418925E+03 0.  0.
        -24    2    3    3    0    0 -0.13469855975E+02 -0.14225510813E+03 -0.22045053169E+03  0.27556933359E+03  0.83198965642E+02 0.  0.
          6    2    1    2  501    0 -0.86664623361E+01  0.11505578896E+03  0.30546206369E+03  0.36605719338E+03  0.16546254660E+03 0.  0.
         24    2    5    5    0    0 -0.34670884336E+02  0.11337948205E+03  0.14662154580E+03  0.20502477400E+03  0.80500329746E+02 0.  0.
          5    1    5    5  501    0  0.26004422000E+02  0.16763069104E+01  0.15884051789E+03  0.16103241938E+03  0.47000000000E+01 0. -1.
        -11    1    6    6    0    0  0.52157334590E+01  0.75236831492E+01  0.64727095370E+02  0.65371297667E+02  0.00000000000E+00 0.  1.
         12    1    6    6    0    0 -0.39886617795E+02  0.10585579890E+03  0.81894450434E+02  0.13965347633E+03  0.00000000000E+00 0. -1.
         -5    1    3    3    0  503  0.22136318311E+02  0.27199319175E+02 -0.10039239997E+03  0.10644502583E+03  0.47000000000E+01 0.  1.
         11    1    4    4    0    0  0.17406547842E+02 -0.58569518147E+02 -0.36605436875E+02  0.71227342872E+02  0.00000000000E+00 0. -1.
        -12    1    4    4    0    0 -0.30876403817E+02 -0.83685589987E+02 -0.18384509481E+03  0.20434199072E+03  0.00000000000E+00 0.  1.
<mgrwt>
<rscale>  2 0.20592920E+03</rscale>
<asrwt>0</asrwt>
<pdfrwt beam="1">  1       21 0.56360822E-01 0.20735184E+03</pdfrwt>
<pdfrwt beam="2">  1       21 0.58727109E-01 0.20735184E+03</pdfrwt>
<totfact> 0.79516177E+03</totfact>
</mgrwt>
</event>
<event>
12    1  0.1026879E-001  0.2376618E+03  0.7546771E-02  0.1122551E+00
         21   -1    0    0  501  502  0.00000000000E+00  0.00000000000E+00  0.34222211478E+03  0.34222211478E+03  0.00000000000E+00 0.  1.
         21   -1    0    0  502  503 -0.00000000000E+00 -0.00000000000E+00 -0.16756330301E+03  0.16756330301E+03  0.00000000000E+00 0. -1.
         -6    2    1    2    0  503 -0.58763898853E+02 -0.14245439607E+03  0.35348406357E+02  0.24027617239E+03  0.18093280083E+03 0.  0.
        -24    2    3    3    0    0 -0.70937721152E+01  0.28912301612E+01  0.86309617415E+01  0.83652212189E+02  0.82852388552E+02 0.  0.
          6    2    1    2  501    0  0.58763898853E+02  0.14245439607E+03  0.13931040541E+03  0.26950924540E+03  0.17170146631E+03 0.  0.
         24    2    5    5    0    0 -0.23068140424E+02  0.66384450948E+02  0.11050955089E+03  0.15403328070E+03  0.81085487578E+02 0.  0.
          5    1    5    5  501    0  0.81832039277E+02  0.76069945121E+02  0.28800854525E+02  0.11547596470E+03  0.47000000000E+01 0. -1.
        -13    1    6    6    0    0  0.17259108165E+02  0.12991502474E+02  0.75473863875E+02  0.78504522668E+02  0.00000000000E+00 0.  1.
         14    1    6    6    0    0 -0.40327248588E+02  0.53392948475E+02  0.35035687012E+02  0.75528758032E+02  0.00000000000E+00 0. -1.
         -5    1    3    3    0  503 -0.51670126738E+02 -0.14534562623E+03  0.26717444616E+02  0.15662396020E+03  0.47000000000E+01 0.  1.
         11    1    4    4    0    0  0.99203529430E+01 -0.37615701268E+02  0.79821745159E+01  0.39712334285E+02  0.00000000000E+00 0. -1.
        -12    1    4    4    0    0 -0.17014125058E+02  0.40506931429E+02  0.64878722555E+00  0.43939877903E+02  0.00000000000E+00 0.  1.
<mgrwt>
<rscale>  2 0.23590486E+03</rscale>
<asrwt>0</asrwt>
<pdfrwt beam="1">  1       21 0.52649556E-01 0.23766180E+03</pdfrwt>
<pdfrwt beam="2">  1       21 0.25778970E-01 0.23766180E+03</pdfrwt>
<totfact> 0.47844723E+04</totfact>
</mgrwt>
</event>
<event>
12    1  0.1026879E-001  0.1924603E+03  0.7546771E-02  0.1156503E+00
         21   -1    0    0  501  502  0.00000000000E+00  0.00000000000E+00  0.41250933551E+03  0.41250933551E+03  0.00000000000E+00 0. -1.
         21   -1    0    0  502  503 -0.00000000000E+00 -0.00000000000E+00 -0.10009225836E+03  0.10009225836E+03  0.00000000000E+00 0.  1.
         -6    2    1    2    0  503  0.17210913303E+01  0.83891872179E+02  0.24002382574E+03  0.30697629580E+03  0.17199476993E+03 0.  0.
        -24    2    3    3    0    0  0.28701995439E+02  0.10289441765E+03  0.23868032516E+03  0.27361522695E+03  0.80535266032E+02 0.  0.
          6    2    1    2  501    0 -0.17210913303E+01 -0.83891872179E+02  0.72393251411E+02  0.20562529807E+03  0.17320557723E+03 0.  0.
         24    2    5    5    0    0  0.60108638910E+02 -0.36237791384E+02  0.14567920825E+02  0.10836438189E+03  0.81267391677E+02 0.  0.
          5    1    5    5  501    0 -0.61829730241E+02 -0.47654080796E+02  0.57825330586E+02  0.97260916176E+02  0.47000000000E+01 0. -1.
        -13    1    6    6    0    0  0.15252595572E+02 -0.39262344809E+02 -0.24564946515E+02  0.48760742292E+02  0.00000000000E+00 0.  1.
         14    1    6    6    0    0  0.44856043339E+02  0.30245534258E+01  0.39132867340E+02  0.59603639601E+02  0.00000000000E+00 0. -1.
         -5    1    3    3    0  503 -0.26980904109E+02 -0.19002545468E+02  0.13435005799E+01  0.33361068847E+02  0.47000000000E+01 0.  1.
         13    1    4    4    0    0  0.32959212883E+02  0.69267231026E+02  0.78003281508E+02  0.10940187811E+03  0.00000000000E+00 0. -1.
        -14    1    4    4    0    0 -0.42572174438E+01  0.33627186621E+02  0.16067704365E+03  0.16421334884E+03  0.00000000000E+00 0.  1.
<mgrwt>
<rscale>  2 0.19218752E+03</rscale>
<asrwt>0</asrwt>
<pdfrwt beam="1">  1       21 0.63462974E-01 0.19246033E+03</pdfrwt>
<pdfrwt beam="2">  1       21 0.15398809E-01 0.19246033E+03</pdfrwt>
<totfact> 0.85864731E+04</totfact>
</mgrwt>
</event>
<event>
12    1  0.1026879E-001  0.1784735E+03  0.7546771E-02  0.1170502E+00
         21   -1    0    0  501  502  0.00000000000E+00  0.00000000000E+00  0.52234695115E+02  0.52234695115E+02  0.00000000000E+00 0.  1.
         21   -1    0    0  502  503 -0.00000000000E+00 -0.00000000000E+00 -0.81853863573E+03  0.81853863573E+03  0.00000000000E+00 0.  1.
         -6    2    1    2    0  503  0.36333661916E+02  0.44867840020E+01 -0.61542369265E+03  0.64078009441E+03  0.17467839508E+03 0.  0.
        -24    2    3    3    0    0  0.13362047032E+02 -0.11432535581E+01 -0.61098900503E+03  0.61626175704E+03  0.79316691775E+02 0.  0.
          6    2    1    2  501    0 -0.36333661916E+02 -0.44867840020E+01 -0.15088024797E+03  0.22999323643E+03  0.16968138778E+03 0.  0.
         24    2    5    5    0    0  0.96029664591E+01  0.15880555331E+02 -0.15374457701E+03  0.17944329361E+03  0.90653690818E+02 0.  0.
          5    1    5    5  501    0 -0.45936628375E+02 -0.20367339333E+02  0.28643290476E+01  0.50549942818E+02  0.47000000000E+01 0. -1.
        -11    1    6    6    0    0 -0.20526900474E+02  0.63964056552E+01  0.98447918509E+00  0.21522937709E+02  0.00000000000E+00 0.  1.
         12    1    6    6    0    0  0.30129866933E+02  0.94841496761E+01 -0.15472905620E+03  0.15792035590E+03  0.00000000000E+00 0. -1.
         -5    1    3    3    0  503  0.22971614884E+02  0.56300375602E+01 -0.44346876179E+01  0.24518337374E+02  0.47000000000E+01 0.  1.
         13    1    4    4    0    0  0.65061419866E+01  0.16028562197E+02 -0.27555690875E+02  0.32535531182E+02  0.00000000000E+00 0. -1.
        -14    1    4    4    0    0  0.68559050456E+01 -0.17171815756E+02 -0.58343331415E+03  0.58372622586E+03  0.00000000000E+00 0.  1.
<mgrwt>
<rscale>  2 0.17723887E+03</rscale>
<asrwt>0</asrwt>
<pdfrwt beam="1">  1       21 0.80361071E-02 0.17847355E+03</pdfrwt>
<pdfrwt beam="2">  1       21 0.12592902E+00 0.17847355E+03</pdfrwt>
<totfact> 0.56161247E+04</totfact>
</mgrwt>
</event>
<event>
12    1  0.1026879E-001  0.1947976E+03  0.7546771E-02  0.1154456E+00
         21   -1    0    0  503  502  0.00000000000E+00  0.00000000000E+00  0.44378198972E+03  0.44378198972E+03  0.00000000000E+00 0. -1.
         21   -1    0    0  501  503 -0.00000000000E+00 -0.00000000000E+00 -0.19694090624E+03  0.19694090624E+03  0.00000000000E+00 0.  1.
          6    2    1    2  501    0  0.90911983257E+02  0.83624948115E+01 -0.11826222444E+03  0.22690347182E+03  0.17077561821E+03 0.  0.
         24    2    3    3    0    0  0.10233298443E+03  0.58226484637E+02 -0.94056052502E+02  0.17011539641E+03  0.78932527306E+02 0.  0.
         -6    2    1    2    0  502 -0.90911983257E+02 -0.83624948115E+01  0.36510330792E+03  0.41381942415E+03  0.17207896539E+03 0.  0.
        -24    2    5    5    0    0 -0.30754986245E+02  0.49647437995E+02  0.26811040819E+03  0.28570334713E+03  0.79576845264E+02 0.  0.
          5    1    3    3  501    0 -0.11421001171E+02 -0.49863989826E+02 -0.24206171938E+02  0.56788075412E+02  0.47000000000E+01 0. -1.
        -13    1    4    4    0    0  0.93256289428E+02  0.21356774439E+02 -0.90974986065E+02  0.13202005689E+03  0.00000000000E+00 0.  1.
         14    1    4    4    0    0  0.90766949997E+01  0.36869710198E+02 -0.30810664364E+01  0.38095339513E+02  0.00000000000E+00 0. -1.
         -5    1    5    5    0  502 -0.60156997011E+02 -0.58009932806E+02  0.96992899733E+02  0.12811607702E+03  0.47000000000E+01 0.  1.
         13    1    6    6    0    0 -0.35703575423E+02 -0.10927743571E+02  0.87235819593E+02  0.94890721873E+02  0.00000000000E+00 0. -1.
        -14    1    6    6    0    0  0.49485891780E+01  0.60575181566E+02  0.18087458859E+03  0.19081262525E+03  0.00000000000E+00 0.  1.
<mgrwt>
<rscale>  2 0.19450933E+03</rscale>
<asrwt>0</asrwt>
<pdfrwt beam="1">  1       21 0.68274152E-01 0.19479756E+03</pdfrwt>
<pdfrwt beam="2">  1       21 0.30298601E-01 0.19479756E+03</pdfrwt>
<totfact> 0.20435133E+04</totfact>
</mgrwt>
</event>
<event>
12    1  0.1026879E-001  0.2079048E+03  0.7546771E-02  0.1144768E+00
         21   -1    0    0  503  502  0.00000000000E+00  0.00000000000E+00  0.38239452272E+03  0.38239452272E+03  0.00000000000E+00 0.  1.
         21   -1    0    0  501  503 -0.00000000000E+00 -0.00000000000E+00 -0.71628700912E+03  0.71628700912E+03  0.00000000000E+00 0.  1.
          6    2    1    2  501    0  0.52280714895E+02 -0.10327017744E+03 -0.67228638059E+03  0.70152306711E+03  0.16360817051E+03 0.  0.
         24    2    3    3    0    0 -0.80778186415E+01 -0.41908683417E+02 -0.50656527095E+03  0.51472381202E+03  0.80688537174E+02 0.  0.
         -6    2    1    2    0  502 -0.52280714895E+02  0.10327017744E+03  0.33839389420E+03  0.39715846474E+03  0.17270325933E+03 0.  0.
        -24    2    5    5    0    0  0.77822267233E+01  0.11917824801E+03  0.24910004532E+03  0.28827272135E+03  0.82379071657E+02 0.  0.
          5    1    3    3  501    0  0.60358533536E+02 -0.61361494027E+02 -0.16572110964E+03  0.18679925509E+03  0.47000000000E+01 0. -1.
        -11    1    4    4    0    0  0.27206704441E+02 -0.18788540946E+02 -0.37737481279E+03  0.37882048964E+03  0.00000000000E+00 0.  1.
         12    1    4    4    0    0 -0.35284523083E+02 -0.23120142471E+02 -0.12919045816E+03  0.13590332239E+03  0.00000000000E+00 0. -1.
         -5    1    5    5    0  502 -0.60062941618E+02 -0.15908070567E+02  0.89293848880E+02  0.10888574339E+03  0.47000000000E+01 0.  1.
         13    1    6    6    0    0 -0.10090861918E+02 -0.92824375020E+01  0.39265352295E+02  0.41590347811E+02  0.00000000000E+00 0. -1.
        -14    1    6    6    0    0  0.17873088641E+02  0.12846068551E+03  0.20983469302E+03  0.24668237354E+03  0.00000000000E+00 0.  1.
<mgrwt>
<rscale>  2 0.20600619E+03</rscale>
<asrwt>0</asrwt>
<pdfrwt beam="1">  1       21 0.58829927E-01 0.20790483E+03</pdfrwt>
<pdfrwt beam="2">  1       21 0.11019800E+00 0.20790483E+03</pdfrwt>
<totfact> 0.17331124E+03</totfact>
</mgrwt>
</event>
<event>
12    1  0.1026879E-001  0.1911174E+03  0.7546771E-02  0.1157617E+00
         21   -1    0    0  501  502  0.00000000000E+00  0.00000000000E+00  0.34343602366E+03  0.34343602366E+03  0.00000000000E+00 0.  1.
         21   -1    0    0  502  503 -0.00000000000E+00 -0.00000000000E+00 -0.30404192713E+03  0.30404192713E+03  0.00000000000E+00 0. -1.
         -6    2    1    2    0  503 -0.33300001712E+02  0.71566513377E+02 -0.24162333972E+03  0.30762992941E+03  0.17327342330E+03 0.  0.
        -24    2    3    3    0    0 -0.23573386299E+02  0.83925486071E+02 -0.25788084537E+03  0.28452694814E+03  0.82788055021E+02 0.  0.
          6    2    1    2  501    0  0.33300001712E+02 -0.71566513377E+02  0.28101743625E+03  0.33984802139E+03  0.17405522748E+03 0.  0.
         24    2    5    5    0    0  0.68389562427E+02 -0.99505020308E+02  0.20264819717E+03  0.24942863699E+03  0.81055362684E+02 0.  0.
          5    1    5    5  501    0 -0.35089560715E+02  0.27938506932E+02  0.78369239076E+02  0.90419384394E+02  0.47000000000E+01 0. -1.
        -13    1    6    6    0    0  0.45339145468E+02 -0.10867833885E+03  0.18373872687E+03  0.21823505493E+03  0.00000000000E+00 0.  1.
         14    1    6    6    0    0  0.23050416959E+02  0.91733185419E+01  0.18909470302E+02  0.31193582067E+02  0.00000000000E+00 0. -1.
         -5    1    3    3    0  503 -0.97266154127E+01 -0.12358972694E+02  0.16257505655E+02  0.23102981270E+02  0.47000000000E+01 0.  1.
         13    1    4    4    0    0 -0.37813253974E+02  0.94755247547E+02 -0.21165871617E+03  0.23496342534E+03  0.00000000000E+00 0. -1.
        -14    1    4    4    0    0  0.14239867674E+02 -0.10829761476E+02 -0.46222129199E+02  0.49563522804E+02  0.00000000000E+00 0.  1.
<mgrwt>
<rscale>  2 0.19093926E+03</rscale>
<asrwt>0</asrwt>
<pdfrwt beam="1">  1       21 0.52836312E-01 0.19111745E+03</pdfrwt>
<pdfrwt beam="2">  1       21 0.46775681E-01 0.19111745E+03</pdfrwt>
<totfact> 0.14869025E+04</totfact>
</mgrwt>
</event>
<event>
12    1  0.1026879E-001  0.1770948E+03  0.7546771E-02  0.1170753E+00
         21   -1    0    0  503  502  0.00000000000E+00  0.00000000000E+00  0.32786362647E+02  0.32786362647E+02  0.00000000000E+00 0. -1.
         21   -1    0    0  501  503 -0.00000000000E+00 -0.00000000000E+00 -0.95972633117E+03  0.95972633117E+03  0.00000000000E+00 0. -1.
          6    2    1    2  501    0  0.34725626090E+02  0.64853681544E+01 -0.50163530746E+03  0.53197795817E+03  0.17353569428E+03 0.  0.
         24    2    3    3    0    0  0.21942927948E+02 -0.51644613275E+02 -0.41476586085E+03  0.42656978550E+03  0.82355354459E+02 0.  0.
         -6    2    1    2    0  502 -0.34725626090E+02 -0.64853681544E+01 -0.42530466107E+03  0.46053473565E+03  0.17309032007E+03 0.  0.
        -24    2    5    5    0    0 -0.36075910604E+01  0.32244975868E+02 -0.38964484540E+03  0.39919890512E+03  0.80522711858E+02 0.  0.
          5    1    3    3  501    0  0.12782698142E+02  0.58129981429E+02 -0.86869446612E+02  0.10540817268E+03  0.47000000000E+01 0. -1.
        -11    1    4    4    0    0  0.84843904759E+00 -0.26179817777E+02 -0.36994480369E+03  0.37087094856E+03  0.00000000000E+00 0.  1.
         12    1    4    4    0    0  0.21094488900E+02 -0.25464795498E+02 -0.44821057158E+02  0.55698836940E+02  0.00000000000E+00 0. -1.
         -5    1    5    5    0  502 -0.31118035030E+02 -0.38730344022E+02 -0.35659815674E+02  0.61335830524E+02  0.47000000000E+01 0.  1.
         11    1    6    6    0    0 -0.32978847320E+02  0.13774007537E+02 -0.80051471000E+02  0.87667358027E+02  0.00000000000E+00 0. -1.
        -12    1    6    6    0    0  0.29371256260E+02  0.18470968331E+02 -0.30959337440E+03  0.31153154710E+03  0.00000000000E+00 0.  1.
<mgrwt>
<rscale>  2 0.17698559E+03</rscale>
<asrwt>0</asrwt>
<pdfrwt beam="1">  1       21 0.50440558E-02 0.17709479E+03</pdfrwt>
<pdfrwt beam="2">  1       21 0.14765020E+00 0.17709479E+03</pdfrwt>
<totfact> 0.83210775E+04</totfact>
</mgrwt>
</event>
<event>
12    1  0.1026879E-001  0.3442650E+03  0.7546771E-02  0.1065091E+00
         21   -1    0    0  503  502  0.00000000000E+00  0.00000000000E+00  0.38179259612E+03  0.38179259612E+03  0.00000000000E+00 0. -1.
         21   -1    0    0  501  503 -0.00000000000E+00 -0.00000000000E+00 -0.32682462877E+03  0.32682462877E+03  0.00000000000E+00 0.  1.
          6    2    1    2  501    0  0.17875414665E+03  0.23703193817E+03  0.10888354536E+03  0.36107341384E+03  0.17430203404E+03 0.  0.
         24    2    3    3    0    0  0.11691669414E+03  0.10087902939E+03  0.11958034646E+03  0.21108009180E+03  0.80057816310E+02 0.  0.
         -6    2    1    2    0  502 -0.17875414665E+03 -0.23703193817E+03 -0.53915578004E+02  0.34754381106E+03  0.17246050676E+03 0.  0.
        -24    2    5    5    0    0 -0.67382193568E+02 -0.13462059960E+03  0.32590058789E+02  0.17319614288E+03  0.79194230400E+02 0.  0.
          5    1    3    3  501    0  0.61837452509E+02  0.13615290879E+03 -0.10696801105E+02  0.14999332204E+03  0.47000000000E+01 0. -1.
        -11    1    4    4    0    0  0.97924069812E+02  0.11060285231E+03  0.84958711076E+02  0.17041155177E+03  0.00000000000E+00 0.  1.
         12    1    4    4    0    0  0.18992624331E+02 -0.97238229223E+01  0.34621635386E+02  0.40668540028E+02  0.00000000000E+00 0. -1.
         -5    1    5    5    0  502 -0.11137195308E+03 -0.10241133857E+03 -0.86505636793E+02  0.17434766818E+03  0.47000000000E+01 0.  1.
         11    1    6    6    0    0 -0.46461843995E+02 -0.91050160136E+02 -0.17368099703E+02  0.10368454801E+03  0.00000000000E+00 0. -1.
        -12    1    6    6    0    0 -0.20920349573E+02 -0.43570439465E+02  0.49958158492E+02  0.69511594870E+02  0.00000000000E+00 0.  1.
<mgrwt>
<rscale>  2 0.34403258E+03</rscale>
<asrwt>0</asrwt>
<pdfrwt beam="1">  1       21 0.58737322E-01 0.34426499E+03</pdfrwt>
<pdfrwt beam="2">  1       21 0.50280713E-01 0.34426499E+03</pdfrwt>
<totfact> 0.94333859E+03</totfact>
</mgrwt>
</event>
<event>
12    1  0.1026879E-001  0.2194853E+03  0.7546771E-02  0.1134665E+00
         21   -1    0    0  501  502  0.00000000000E+00  0.00000000000E+00  0.16009304900E+04  0.16009304900E+04  0.00000000000E+00 0. -1.
         21   -1    0    0  502  503 -0.00000000000E+00 -0.00000000000E+00 -0.53816115423E+02  0.53816115423E+02  0.00000000000E+00 0.  1.
         -6    2    1    2    0  503 -0.11517251171E+03  0.64300989475E+02  0.22294534446E+03  0.31285527832E+03  0.17542654833E+03 0.  0.
        -24    2    3    3    0    0 -0.44789501463E+02  0.28427520242E+02  0.21287317400E+03  0.23307926349E+03  0.78719321072E+02 0.  0.
          6    2    1    2  501    0  0.11517251171E+03 -0.64300989475E+02  0.13241690301E+04  0.13418913271E+04  0.17276975637E+03 0.  0.
         24    2    5    5    0    0  0.80656842466E+00 -0.58406133448E+01  0.36153417103E+03  0.37071413086E+03  0.81775587311E+02 0.  0.
          5    1    5    5  501    0  0.11436594328E+03 -0.58460376130E+02  0.96263485909E+03  0.97117719624E+03  0.47000000000E+01 0. -1.
        -11    1    6    6    0    0  0.40326773626E+02 -0.68855002676E+01  0.14795270596E+03  0.15350459924E+03  0.00000000000E+00 0.  1.
         12    1    6    6    0    0 -0.39520205202E+02  0.10448869228E+01  0.21358146507E+03  0.21720953163E+03  0.00000000000E+00 0. -1.
         -5    1    3    3    0  503 -0.70383010242E+02  0.35873469234E+02  0.10072170457E+02  0.79776014837E+02  0.47000000000E+01 0.  1.
         11    1    4    4    0    0  0.16798759776E+02  0.26878325695E+02  0.93831078166E+02  0.99039961389E+02  0.00000000000E+00 0. -1.
        -12    1    4    4    0    0 -0.61588261239E+02  0.15491945470E+01  0.11904209583E+03  0.13403930210E+03  0.00000000000E+00 0.  1.
<mgrwt>
<rscale>  2 0.21895397E+03</rscale>
<asrwt>0</asrwt>
<pdfrwt beam="1">  1       21 0.24629696E+00 0.21948530E+03</pdfrwt>
<pdfrwt beam="2">  1       21 0.82794036E-02 0.21948530E+03</pdfrwt>
<totfact> 0.77080579E+03</totfact>
</mgrwt>
</event>
<event>
12    1  0.1026879E-001  0.1863433E+03  0.7546771E-02  0.1162120E+00
         21   -1    0    0  501  502  0.00000000000E+00  0.00000000000E+00  0.37985408843E+03  0.37985408843E+03  0.00000000000E+00 0.  1.
         21   -1    0    0  502  503 -0.00000000000E+00 -0.00000000000E+00 -0.12913756821E+03  0.12913756821E+03  0.00000000000E+00 0.  1.
         -6    2    1    2    0  503  0.14822237431E+02  0.62528578879E+02 -0.13085964557E+02  0.18680225456E+03  0.17491231501E+03 0.  0.
        -24    2    3    3    0    0 -0.37433165933E+02 -0.17216256744E+02 -0.23563804985E+02  0.90772357498E+02  0.77373939879E+02 0.  0.
          6    2    1    2  501    0 -0.14822237431E+02 -0.62528578879E+02  0.26380248478E+03  0.32218940208E+03  0.17344952561E+03 0.  0.
         24    2    5    5    0    0 -0.64567616958E+02 -0.72105058697E+02  0.22694217642E+03  0.25936357870E+03  0.79991236212E+02 0.  0.
          5    1    5    5  501    0  0.49745379526E+02  0.95764798173E+01  0.36860308361E+02  0.62825823372E+02  0.47000000000E+01 0. -1.
        -11    1    6    6    0    0 -0.15001222859E+02 -0.74437629770E+02  0.13563418049E+03  0.15544332836E+03  0.00000000000E+00 0.  1.
         12    1    6    6    0    0 -0.49566394098E+02  0.23325710736E+01  0.91307995926E+02  0.10392025035E+03  0.00000000000E+00 0. -1.
         -5    1    3    3    0  503  0.52255403364E+02  0.79744835623E+02  0.10477840428E+02  0.96029897060E+02  0.47000000000E+01 0.  1.
         13    1    4    4    0    0  0.16518819393E+02 -0.16252084374E+02 -0.28331457771E+02  0.36601545597E+02  0.00000000000E+00 0. -1.
        -14    1    4    4    0    0 -0.53951985326E+02 -0.96417237008E+00  0.47676527865E+01  0.54170811901E+02  0.00000000000E+00 0.  1.
<mgrwt>
<rscale>  2 0.18599929E+03</rscale>
<asrwt>0</asrwt>
<pdfrwt beam="1">  1       21 0.58439090E-01 0.18634334E+03</pdfrwt>
<pdfrwt beam="2">  1       21 0.19867318E-01 0.18634334E+03</pdfrwt>
<totfact> 0.64257069E+04</totfact>
</mgrwt>
</event>
<event>
12    1  0.1026879E-001  0.2049461E+03  0.7546771E-02  0.1145891E+00
         21   -1    0    0  501  502  0.00000000000E+00  0.00000000000E+00  0.15969040332E+03  0.15969040332E+03  0.00000000000E+00 0.  1.
         21   -1    0    0  502  503 -0.00000000000E+00 -0.00000000000E+00 -0.12488701408E+04  0.12488701408E+04  0.00000000000E+00 0.  1.
         -6    2    1    2    0  503 -0.10652534709E+03 -0.11872279360E+02 -0.11711902942E+04  0.11889867967E+04  0.17468341868E+03 0.  0.
        -24    2    3    3    0    0 -0.91401038832E+02 -0.62587160614E+02 -0.64880224871E+03  0.66390384704E+03  0.86906027512E+02 0.  0.
          6    2    1    2  501    0  0.10652534709E+03  0.11872279360E+02  0.82010556709E+02  0.21957374750E+03  0.17320016914E+03 0.  0.
         24    2    5    5    0    0  0.37399110622E+02  0.42073266354E+01  0.11301993337E+03  0.14327918996E+03  0.79617999630E+02 0.  0.
          5    1    5    5  501    0  0.69126236469E+02  0.76649527247E+01 -0.31009376661E+02  0.76294557536E+02  0.47000000000E+01 0. -1.
        -13    1    6    6    0    0 -0.42759646663E+01  0.34922052625E+02  0.34858090244E+02  0.49526963251E+02  0.00000000000E+00 0.  1.
         14    1    6    6    0    0  0.41675075288E+02 -0.30714725990E+02  0.78161843125E+02  0.93752226713E+02  0.00000000000E+00 0. -1.
         -5    1    3    3    0  503 -0.15124308259E+02  0.50714881254E+02 -0.52238804553E+03  0.52508294963E+03  0.47000000000E+01 0.  1.
         11    1    4    4    0    0 -0.41461740150E+02  0.16311115470E+02 -0.15168688545E+03  0.15809503345E+03  0.00000000000E+00 0. -1.
        -12    1    4    4    0    0 -0.49939298682E+02 -0.78898276085E+02 -0.49711536325E+03  0.50580881359E+03  0.00000000000E+00 0.  1.
<mgrwt>
<rscale>  2 0.20462966E+03</rscale>
<asrwt>0</asrwt>
<pdfrwt beam="1">  1       21 0.24567754E-01 0.20494608E+03</pdfrwt>
<pdfrwt beam="2">  1       21 0.19213387E+00 0.20494608E+03</pdfrwt>
<totfact> 0.23361660E+03</totfact>
</mgrwt>
</event>
<event>
12    1  0.1026879E-001  0.3968455E+03  0.7546771E-02  0.1044921E+00
         21   -1    0    0  501  502  0.00000000000E+00  0.00000000000E+00  0.61027186888E+03  0.61027186888E+03  0.00000000000E+00 0. -1.
         21   -1    0    0  502  503 -0.00000000000E+00 -0.00000000000E+00 -0.28938340284E+03  0.28938340284E+03  0.00000000000E+00 0.  1.
         -6    2    1    2    0  503  0.16829783221E+03  0.31430468440E+03  0.11770227282E+02  0.39702004242E+03  0.17428362192E+03 0.  0.
        -24    2    3    3    0    0  0.15689912159E+03  0.24221562182E+03  0.64850913139E+02  0.30665183585E+03  0.80894781574E+02 0.  0.
          6    2    1    2  501    0 -0.16829783221E+03 -0.31430468440E+03  0.30911823875E+03  0.50263522930E+03  0.17313720927E+03 0.  0.
         24    2    5    5    0    0 -0.34041225472E+02 -0.10578997530E+03  0.16966641293E+03  0.21807922060E+03  0.80134454956E+02 0.  0.
          5    1    5    5  501    0 -0.13425660674E+03 -0.20851470910E+03  0.13945182582E+03  0.28455600870E+03  0.47000000000E+01 0. -1.
        -11    1    6    6    0    0 -0.51154639675E+02 -0.10687865558E+03  0.15731366055E+03  0.19694525121E+03  0.00000000000E+00 0.  1.
         12    1    6    6    0    0  0.17113414203E+02  0.10886802788E+01  0.12352752387E+02  0.21133969385E+02  0.00000000000E+00 0. -1.
         -5    1    3    3    0  503  0.11398710622E+02  0.72089062580E+02 -0.53080685857E+02  0.90368206570E+02  0.47000000000E+01 0.  1.
         11    1    4    4    0    0  0.19605808208E+02  0.32493637954E+02 -0.18860492873E+02  0.42378560787E+02  0.00000000000E+00 0. -1.
        -12    1    4    4    0    0  0.13729331338E+03  0.20972198387E+03  0.83711406012E+02  0.26427327506E+03  0.00000000000E+00 0.  1.
<mgrwt>
<rscale>  2 0.39671994E+03</rscale>
<asrwt>0</asrwt>
<pdfrwt beam="1">  1       21 0.93887980E-01 0.39684553E+03</pdfrwt>
<pdfrwt beam="2">  1       21 0.44520524E-01 0.39684553E+03</pdfrwt>
<totfact> 0.41152017E+03</totfact>
</mgrwt>
</event>
<event>
12    1  0.1026879E-001  0.1828444E+03  0.7546771E-02  0.1166505E+00
         21   -1    0    0  503  502  0.00000000000E+00  0.00000000000E+00  0.22168694404E+03  0.22168694404E+03  0.00000000000E+00 0.  1.
         21   -1    0    0  501  503 -0.00000000000E+00 -0.00000000000E+00 -0.74084102928E+03  0.74084102928E+03  0.00000000000E+00 0.  1.
          6    2    1    2  501    0  0.26901204994E+02 -0.24330765788E+02 -0.68997826866E+03  0.71230210838E+03  0.17317223042E+03 0.  0.
         24    2    3    3    0    0 -0.27594939897E+02  0.46761355344E+01 -0.18891452831E+03  0.20742767644E+03  0.80957982908E+02 0.  0.
         -6    2    1    2    0  502 -0.26901204994E+02  0.24330765788E+02  0.17082418341E+03  0.25022586494E+03  0.17921054894E+03 0.  0.
        -24    2    5    5    0    0  0.50344540792E+02 -0.16727914788E+02  0.83342271347E+02  0.12641998692E+03  0.78877645625E+02 0.  0.
          5    1    3    3  501    0  0.54496144891E+02 -0.29006901322E+02 -0.50106374035E+03  0.50487443194E+03  0.47000000000E+01 0. -1.
        -11    1    4    4    0    0  0.11781321410E+02 -0.29277144070E+02 -0.50274600493E+02  0.59358960181E+02  0.00000000000E+00 0.  1.
         12    1    4    4    0    0 -0.39376261307E+02  0.33953279604E+02 -0.13863992782E+03  0.14806871626E+03  0.00000000000E+00 0. -1.
         -5    1    5    5    0  502 -0.77245745786E+02  0.41058680576E+02  0.87481912064E+02  0.12380587802E+03  0.47000000000E+01 0.  1.
         13    1    6    6    0    0  0.47511059997E+01 -0.42168857009E+02  0.43248326741E+02  0.60590455318E+02  0.00000000000E+00 0. -1.
        -14    1    6    6    0    0  0.45593434792E+02  0.25440942221E+02  0.40093944606E+02  0.65829531605E+02  0.00000000000E+00 0.  1.
<mgrwt>
<rscale>  2 0.18134757E+03</rscale>
<asrwt>0</asrwt>
<pdfrwt beam="1">  1       21 0.34105683E-01 0.18284442E+03</pdfrwt>
<pdfrwt beam="2">  1       21 0.11397554E+00 0.18284442E+03</pdfrwt>
<totfact> 0.50030879E+03</totfact>
</mgrwt>
</event>
<event>
12    1  0.1026879E-001  0.2102860E+03  0.7546771E-02  0.1141597E+00
         21   -1    0    0  503  502  0.00000000000E+00  0.00000000000E+00  0.74494705993E+03  0.74494705993E+03  0.00000000000E+00 0. -1.
         21   -1    0    0  501  503 -0.00000000000E+00 -0.00000000000E+00 -0.86056511731E+02  0.86056511731E+02  0.00000000000E+00 0.  1.
          6    2    1    2  501    0  0.82763624920E+02  0.84830103120E+02  0.97143729814E+02  0.23164004446E+03  0.17370734569E+03 0.  0.
         24    2    3    3    0    0 -0.88121561269E+00  0.82276989719E+02  0.92896692014E+02  0.14771683512E+03  0.80126078223E+02 0.  0.
         -6    2    1    2    0  502 -0.82763624920E+02 -0.84830103120E+02  0.56174681839E+03  0.59936352721E+03  0.17213711330E+03 0.  0.
        -24    2    5    5    0    0 -0.53250949531E+02 -0.12554451033E+03  0.42058637980E+03  0.44944014549E+03  0.80662592368E+02 0.  0.
          5    1    3    3  501    0  0.83644840532E+02  0.25531134013E+01  0.42470378006E+01  0.83923209339E+02  0.47000000000E+01 0. -1.
        -11    1    4    4    0    0 -0.28403822292E+02  0.68289550166E+02  0.34392627619E+02  0.81566492000E+02  0.00000000000E+00 0.  1.
         12    1    4    4    0    0  0.27522606679E+02  0.13987439553E+02  0.58504064395E+02  0.66150343116E+02  0.00000000000E+00 0. -1.
         -5    1    5    5    0  502 -0.29512675389E+02  0.40714407209E+02  0.14116043859E+03  0.14992338172E+03  0.47000000000E+01 0.  1.
         13    1    6    6    0    0 -0.50339101895E+02 -0.68898508761E+02  0.14643211466E+03  0.16947977429E+03  0.00000000000E+00 0. -1.
        -14    1    6    6    0    0 -0.29118476367E+01 -0.56646001568E+02  0.27415426514E+03  0.27996037120E+03  0.00000000000E+00 0.  1.
<mgrwt>
<rscale>  2 0.20996145E+03</rscale>
<asrwt>0</asrwt>
<pdfrwt beam="1">  1       21 0.11460724E+00 0.21028601E+03</pdfrwt>
<pdfrwt beam="2">  1       21 0.13239464E-01 0.21028601E+03</pdfrwt>
<totfact> 0.28779730E+04</totfact>
</mgrwt>
</event>
<event>
12    1  0.1026879E-001  0.1905712E+03  0.7546771E-02  0.1158030E+00
         21   -1    0    0  501  502  0.00000000000E+00  0.00000000000E+00  0.51489197655E+03  0.51489197655E+03  0.00000000000E+00 0. -1.
         21   -1    0    0  502  503 -0.00000000000E+00 -0.00000000000E+00 -0.10736750125E+03  0.10736750125E+03  0.00000000000E+00 0. -1.
         -6    2    1    2    0  503 -0.75855540629E+02  0.12460755222E+02  0.21065477052E+02  0.19136745521E+03  0.17397820302E+03 0.  0.
        -24    2    3    3    0    0 -0.92398237800E+01 -0.50334281451E+02 -0.63598438377E+01  0.95685123572E+02  0.80599510089E+02 0.  0.
          6    2    1    2  501    0  0.75855540629E+02 -0.12460755222E+02  0.38645899825E+03  0.43089202259E+03  0.17437902493E+03 0.  0.
         24    2    5    5    0    0  0.13661347337E+02  0.24354732601E+02  0.72329459839E+02  0.10852118841E+03  0.75930969721E+02 0.  0.
          5    1    5    5  501    0  0.62194193292E+02 -0.36815487823E+02  0.31412953842E+03  0.32237083418E+03  0.47000000000E+01 0. -1.
        -11    1    6    6    0    0 -0.27561089638E+02  0.52993479496E+01  0.51298546105E+02  0.58474247179E+02  0.00000000000E+00 0.  1.
         12    1    6    6    0    0  0.41222436974E+02  0.19055384651E+02  0.21030913734E+02  0.50046941233E+02  0.00000000000E+00 0. -1.
         -5    1    3    3    0  503 -0.66615716849E+02  0.62795036673E+02  0.27425320890E+02  0.95682331640E+02  0.47000000000E+01 0.  1.
         13    1    4    4    0    0 -0.37792676252E+02 -0.10974939960E+02  0.15597297715E+02  0.42332155407E+02  0.00000000000E+00 0. -1.
        -14    1    4    4    0    0  0.28552852472E+02 -0.39359341491E+02 -0.21957141552E+02  0.53352968165E+02  0.00000000000E+00 0.  1.
<mgrwt>
<rscale>  2 0.19047945E+03</rscale>
<asrwt>0</asrwt>
<pdfrwt beam="1">  1       21 0.79214149E-01 0.19057119E+03</pdfrwt>
<pdfrwt beam="2">  1       21 0.16518077E-01 0.19057119E+03</pdfrwt>
<totfact> 0.46303568E+04</totfact>
</mgrwt>
</event>
<event>
12    1  0.1026879E-001  0.2036945E+03  0.7546771E-02  0.1147037E+00
         21   -1    0    0  501  502  0.00000000000E+00  0.00000000000E+00  0.13167633362E+04  0.13167633362E+04  0.00000000000E+00 0.  1.
         21   -1    0    0  502  503 -0.00000000000E+00 -0.00000000000E+00 -0.55510157321E+02  0.55510157321E+02  0.00000000000E+00 0.  1.
         -6    2    1    2    0  503  0.35330319614E+02 -0.10161548303E+03  0.17842608980E+03  0.27079019588E+03  0.17296682568E+03 0.  0.
        -24    2    3    3    0    0  0.12807369254E+02 -0.93984723048E+02  0.20241102901E+03  0.23668918271E+03  0.77809945847E+02 0.  0.
          6    2    1    2  501    0 -0.35330319614E+02  0.10161548303E+03  0.10828270891E+04  0.11014832976E+04  0.17081279890E+03 0.  0.
         24    2    5    5    0    0 -0.85328685472E+02  0.52548963288E+02  0.78193903775E+03  0.79251231295E+03  0.81269485761E+02 0.  0.
          5    1    5    5  501    0  0.49998365857E+02  0.49066519744E+02  0.30088805132E+03  0.30897098469E+03  0.47000000000E+01 0. -1.
        -13    1    6    6    0    0 -0.69127948141E+02  0.67609329951E+02  0.72513564543E+03  0.73155409847E+03  0.00000000000E+00 0.  1.
         14    1    6    6    0    0 -0.16200737331E+02 -0.15060366663E+02  0.56803392316E+02  0.60958214481E+02  0.00000000000E+00 0. -1.
         -5    1    3    3    0  503  0.22522950360E+02 -0.76307599838E+01 -0.23984939205E+02  0.34101013174E+02  0.47000000000E+01 0.  1.
         13    1    4    4    0    0 -0.38036498090E+01  0.11813123001E+02  0.42148092663E+02  0.43937220463E+02  0.00000000000E+00 0. -1.
        -14    1    4    4    0    0  0.16611019063E+02 -0.10579784605E+03  0.16026293635E+03  0.19275196224E+03  0.00000000000E+00 0.  1.
<mgrwt>
<rscale>  2 0.20323651E+03</rscale>
<asrwt>0</asrwt>
<pdfrwt beam="1">  1       21 0.20257895E+00 0.20369453E+03</pdfrwt>
<pdfrwt beam="2">  1       21 0.85400252E-02 0.20369453E+03</pdfrwt>
<totfact> 0.13719264E+04</totfact>
</mgrwt>
</event>
<event>
12    1  0.1026879E-001  0.2198651E+03  0.7546771E-02  0.1136824E+00
         21   -1    0    0  503  502  0.00000000000E+00  0.00000000000E+00  0.22847231115E+03  0.22847231115E+03  0.00000000000E+00 0. -1.
         21   -1    0    0  501  503 -0.00000000000E+00 -0.00000000000E+00 -0.21084440108E+03  0.21084440108E+03  0.00000000000E+00 0.  1.
          6    2    1    2  501    0  0.90096398503E+02  0.64824957490E+02 -0.45723933270E+02  0.22456924502E+03  0.18979207464E+03 0.  0.
         24    2    3    3    0    0  0.13433736399E+02  0.81867894407E+02 -0.78232081204E+02  0.13944289691E+03  0.80257370763E+02 0.  0.
         -6    2    1    2    0  502 -0.90096398503E+02 -0.64824957490E+02  0.63351843346E+02  0.21474746722E+03  0.17257862696E+03 0.  0.
        -24    2    5    5    0    0 -0.12101228251E+03 -0.66090050340E+02  0.12846276960E+02  0.15533118511E+03  0.70362511063E+02 0.  0.
          5    1    3    3  501    0  0.76662662104E+02 -0.17042936918E+02  0.32508147934E+02  0.85126348105E+02  0.47000000000E+01 0. -1.
        -11    1    4    4    0    0  0.37883884889E+02  0.25819696321E+02 -0.60240798245E+02  0.75702042413E+02  0.00000000000E+00 0.  1.
         12    1    4    4    0    0 -0.24450148490E+02  0.56048198087E+02 -0.17991282960E+02  0.63740854501E+02  0.00000000000E+00 0. -1.
         -5    1    5    5    0  502  0.30915884006E+02  0.12650928501E+01  0.50505566385E+02  0.59416282109E+02  0.47000000000E+01 0.  1.
         11    1    6    6    0    0 -0.77314221018E+02 -0.16527243053E+02  0.33842676243E+02  0.85999798080E+02  0.00000000000E+00 0. -1.
        -12    1    6    6    0    0 -0.43698061490E+02 -0.49562807287E+02 -0.20996399283E+02  0.69331387026E+02  0.00000000000E+00 0.  1.
<mgrwt>
<rscale>  2 0.21610081E+03</rscale>
<asrwt>0</asrwt>
<pdfrwt beam="1">  1       21 0.35149587E-01 0.21986511E+03</pdfrwt>
<pdfrwt beam="2">  1       21 0.32437600E-01 0.21986511E+03</pdfrwt>
<totfact> 0.70522875E+04</totfact>
</mgrwt>
</event>
<event>
12    1  0.1026879E-001  0.1816279E+03  0.7546771E-02  0.1167256E+00
         21   -1    0    0  503  502  0.00000000000E+00  0.00000000000E+00  0.72015388157E+02  0.72015388157E+02  0.00000000000E+00 0.  1.
         21   -1    0    0  501  503 -0.00000000000E+00 -0.00000000000E+00 -0.52984137864E+03  0.52984137864E+03  0.00000000000E+00 0.  1.
          6    2    1    2  501    0  0.53282569133E+02  0.11459116317E+02 -0.34525103079E+03  0.38817047122E+03  0.16884222500E+03 0.  0.
         24    2    3    3    0    0  0.98817878063E+02  0.37728820633E+01 -0.28398332833E+03  0.31130458853E+03  0.80528308106E+02 0.  0.
         -6    2    1    2    0  502 -0.53282569133E+02 -0.11459116317E+02 -0.11257495969E+03  0.21368629558E+03  0.17325809606E+03 0.  0.
        -24    2    5    5    0    0 -0.44442964504E+02 -0.43290439989E+02 -0.13807922389E+03  0.17168713762E+03  0.81002233712E+02 0.  0.
          5    1    3    3  501    0 -0.45535308930E+02  0.76862342534E+01 -0.61267702462E+02  0.76865882688E+02  0.47000000000E+01 0. -1.
        -11    1    4    4    0    0  0.81939647509E+02  0.37162271026E+02 -0.19369525913E+03  0.21357198700E+03  0.00000000000E+00 0.  1.
         12    1    4    4    0    0  0.16878230554E+02 -0.33389388962E+02 -0.90288069203E+02  0.97732601532E+02  0.00000000000E+00 0. -1.
         -5    1    5    5    0  502 -0.88396046287E+01  0.31831323672E+02  0.25504264200E+02  0.41999157957E+02  0.47000000000E+01 0.  1.
         13    1    6    6    0    0 -0.22357641250E+02  0.27778842211E+01 -0.11215859028E+03  0.11439899534E+03  0.00000000000E+00 0. -1.
        -14    1    6    6    0    0 -0.22085323254E+02 -0.46068324210E+02 -0.25920633616E+02  0.57288142279E+02  0.00000000000E+00 0.  1.
<mgrwt>
<rscale>  2 0.18056683E+03</rscale>
<asrwt>0</asrwt>
<pdfrwt beam="1">  1       21 0.11079291E-01 0.18162795E+03</pdfrwt>
<pdfrwt beam="2">  1       21 0.81514057E-01 0.18162795E+03</pdfrwt>
<totfact> 0.89595647E+04</totfact>
</mgrwt>
</event>
<event>
12    1  0.1026879E-001  0.2039692E+03  0.7546771E-02  0.1148532E+00
         21   -1    0    0  501  502  0.00000000000E+00  0.00000000000E+00  0.10443063416E+04  0.10443063416E+04  0.00000000000E+00 0. -1.
         21   -1    0    0  502  503 -0.00000000000E+00 -0.00000000000E+00 -0.89032645910E+02  0.89032645910E+02  0.00000000000E+00 0. -1.
         -6    2    1    2    0  503 -0.88758638827E+02  0.17574680587E+01  0.43256559429E+02  0.19879166701E+03  0.17252771452E+03 0.  0.
        -24    2    3    3    0    0 -0.40197022333E+02  0.66662206554E+02  0.36988198901E+02  0.11735311336E+03  0.79649080165E+02 0.  0.
          6    2    1    2  501    0  0.88758638827E+02 -0.17574680587E+01  0.91201713628E+03  0.93454732052E+03  0.18363619679E+03 0.  0.
         24    2    5    5    0    0  0.15658952705E+02  0.30302227460E+02  0.19934760845E+03  0.21740623672E+03  0.79765750667E+02 0.  0.
          5    1    5    5  501    0  0.73099686122E+02 -0.32059695519E+02  0.71266952783E+03  0.71714108380E+03  0.47000000000E+01 0. -1.
        -13    1    6    6    0    0 -0.27905098880E+02  0.32753750304E+01  0.11762523690E+03  0.12093435814E+03  0.00000000000E+00 0.  1.
         14    1    6    6    0    0  0.43564051585E+02  0.27026852430E+02  0.81722371558E+02  0.96471878575E+02  0.00000000000E+00 0. -1.
         -5    1    3    3    0  503 -0.48561616494E+02 -0.64904738495E+02  0.62683605283E+01  0.81438553642E+02  0.47000000000E+01 0.  1.
         11    1    4    4    0    0 -0.40622830471E+02  0.64224218278E+02 -0.41824016599E+01  0.76108193071E+02  0.00000000000E+00 0. -1.
        -12    1    4    4    0    0  0.42580813757E+00  0.24379882758E+01  0.41170600561E+02  0.41244920293E+02  0.00000000000E+00 0.  1.
<mgrwt>
<rscale>  2 0.20143723E+03</rscale>
<asrwt>0</asrwt>
<pdfrwt beam="1">  1       21 0.16066251E+00 0.20396921E+03</pdfrwt>
<pdfrwt beam="2">  1       21 0.13697331E-01 0.20396921E+03</pdfrwt>
<totfact> 0.11415980E+04</totfact>
</mgrwt>
</event>
<event>
12    1  0.1026879E-001  0.2110927E+03  0.7546771E-02  0.1141226E+00
         21   -1    0    0  501  502  0.00000000000E+00  0.00000000000E+00  0.11047684381E+03  0.11047684381E+03  0.00000000000E+00 0. -1.
         21   -1    0    0  502  503 -0.00000000000E+00 -0.00000000000E+00 -0.46571872128E+03  0.46571872128E+03  0.00000000000E+00 0.  1.
         -6    2    1    2    0  503 -0.96281568456E+02  0.70195113440E+02 -0.28626297227E+03  0.35411850407E+03  0.17104365307E+03 0.  0.
        -24    2    3    3    0    0 -0.16225303133E+02  0.92297053193E+02 -0.14259729497E+03  0.18810820863E+03  0.79175142123E+02 0.  0.
          6    2    1    2  501    0  0.96281568456E+02 -0.70195113440E+02 -0.68978905200E+02  0.22207706102E+03  0.17424877989E+03 0.  0.
         24    2    5    5    0    0  0.96422463416E+02 -0.10359646707E+03 -0.86285453728E+02  0.18416562610E+03  0.80263807984E+02 0.  0.
          5    1    5    5  501    0 -0.14089495997E+00  0.33401353628E+02  0.17306548528E+02  0.37911434917E+02  0.47000000000E+01 0. -1.
        -13    1    6    6    0    0  0.10195845632E+03 -0.11262610583E+03 -0.78380252409E+02  0.17094920444E+03  0.00000000000E+00 0.  1.
         14    1    6    6    0    0 -0.55359929054E+01  0.90296387650E+01 -0.79052013191E+01  0.13216421663E+02  0.00000000000E+00 0. -1.
         -5    1    3    3    0  503 -0.80056265323E+02 -0.22101939753E+02 -0.14366567730E+03  0.16601029544E+03  0.47000000000E+01 0.  1.
         11    1    4    4    0    0 -0.14634872541E+02  0.56443584967E+02 -0.14054488462E+03  0.15216084375E+03  0.00000000000E+00 0. -1.
        -12    1    4    4    0    0 -0.15904305919E+01  0.35853468226E+02 -0.20524103505E+01  0.35947364876E+02  0.00000000000E+00 0.  1.
<mgrwt>
<rscale>  2 0.21043013E+03</rscale>
<asrwt>0</asrwt>
<pdfrwt beam="1">  1       21 0.16996438E-01 0.21109271E+03</pdfrwt>
<pdfrwt beam="2">  1       21 0.71649034E-01 0.21109271E+03</pdfrwt>
<totfact> 0.54443806E+04</totfact>
</mgrwt>
</event>
<event>
12    1  0.1026879E-001  0.2366623E+03  0.7546771E-02  0.1122260E+00
         21   -1    0    0  503  502  0.00000000000E+00  0.00000000000E+00  0.78496665044E+03  0.78496665044E+03  0.00000000000E+00 0. -1.
         21   -1    0    0  501  503 -0.00000000000E+00 -0.00000000000E+00 -0.92638757011E+02  0.92638757011E+02  0.00000000000E+00 0. -1.
          6    2    1    2  501    0 -0.99588959223E+02 -0.12627448351E+03  0.13314315126E+03  0.27040146545E+03  0.17183319763E+03 0.  0.
         24    2    3    3    0    0  0.61707024559E+01 -0.55359340992E+02  0.26783282319E+02  0.10442383082E+03  0.84168034481E+02 0.  0.
         -6    2    1    2    0  502  0.99588959223E+02  0.12627448351E+03  0.55918474217E+03  0.60720394200E+03  0.17362558947E+03 0.  0.
        -24    2    5    5    0    0  0.97691761314E+01  0.19669451890E+01  0.22965988064E+03  0.24370885004E+03  0.80938477453E+02 0.  0.
          5    1    3    3  501    0 -0.10575966168E+03 -0.70915142515E+02  0.10635986894E+03  0.16597763463E+03  0.47000000000E+01 0. -1.
        -11    1    4    4    0    0  0.16478969134E+02 -0.67920638996E+02 -0.35833025744E+01  0.69982924222E+02  0.00000000000E+00 0.  1.
         12    1    4    4    0    0 -0.10308266678E+02  0.12561298004E+02  0.30366584894E+02  0.34440906602E+02  0.00000000000E+00 0. -1.
         -5    1    5    5    0  502  0.89819783092E+02  0.12430753832E+03  0.32952486153E+03  0.36349509196E+03  0.47000000000E+01 0.  1.
         11    1    6    6    0    0  0.12278212118E+01  0.17988090431E+02  0.22395254950E+03  0.22467715364E+03  0.00000000000E+00 0. -1.
        -12    1    6    6    0    0  0.85413549195E+01 -0.16021145242E+02  0.57073311448E+01  0.19031696391E+02  0.00000000000E+00 0.  1.
<mgrwt>
<rscale>  2 0.23633368E+03</rscale>
<asrwt>0</asrwt>
<pdfrwt beam="1">  1       21 0.12076410E+00 0.23666231E+03</pdfrwt>
<pdfrwt beam="2">  1       21 0.14252117E-01 0.23666231E+03</pdfrwt>
<totfact> 0.21806612E+04</totfact>
</mgrwt>
</event>
<event>
12    1  0.1026879E-001  0.1826199E+03  0.7546771E-02  0.1165422E+00
         21   -1    0    0  501  502  0.00000000000E+00  0.00000000000E+00  0.38019017400E+03  0.38019017400E+03  0.00000000000E+00 0.  1.
         21   -1    0    0  502  503 -0.00000000000E+00 -0.00000000000E+00 -0.13444215104E+03  0.13444215104E+03  0.00000000000E+00 0.  1.
         -6    2    1    2    0  503 -0.53779190481E+02 -0.22270224001E+02 -0.29125077326E+02  0.18492779506E+03  0.17309493075E+03 0.  0.
        -24    2    3    3    0    0 -0.90521899387E+02 -0.29758222060E+02 -0.58337841310E+02  0.13716198771E+03  0.79563440686E+02 0.  0.
          6    2    1    2  501    0  0.53779190481E+02  0.22270224001E+02  0.27487310029E+03  0.32970452997E+03  0.17251577209E+03 0.  0.
         24    2    5    5    0    0 -0.95560507398E+01 -0.20757665473E+02  0.46729237848E+02  0.89008738525E+02  0.72226969217E+02 0.  0.
          5    1    5    5  501    0  0.63335241221E+02  0.43027889474E+02  0.22814386244E+03  0.24069579145E+03  0.47000000000E+01 0. -1.
        -11    1    6    6    0    0 -0.65721438915E+01  0.27053909683E+02  0.16465982587E+02  0.32345566729E+02  0.00000000000E+00 0.  1.
         12    1    6    6    0    0 -0.29839068483E+01 -0.47811575156E+02  0.30263255261E+02  0.56663171796E+02  0.00000000000E+00 0. -1.
         -5    1    3    3    0  503  0.36742708906E+02  0.74879980597E+01  0.29212763984E+02  0.47765807355E+02  0.47000000000E+01 0.  1.
         13    1    4    4    0    0 -0.96225820121E+02 -0.37656356692E+02 -0.30606437375E+02  0.10776902925E+03  0.00000000000E+00 0. -1.
        -14    1    4    4    0    0  0.57039207339E+01  0.78981346319E+01 -0.27731403935E+02  0.29392958453E+02  0.00000000000E+00 0.  1.
<mgrwt>
<rscale>  2 0.18248251E+03</rscale>
<asrwt>0</asrwt>
<pdfrwt beam="1">  1       21 0.58490796E-01 0.18261988E+03</pdfrwt>
<pdfrwt beam="2">  1       21 0.20683408E-01 0.18261988E+03</pdfrwt>
<totfact> 0.59587679E+04</totfact>
</mgrwt>
</event>
<event>
12    1  0.1026879E-001  0.2885567E+03  0.7546771E-02  0.1091198E+00
         21   -1    0    0  501  502  0.00000000000E+00  0.00000000000E+00  0.16104401262E+03  0.16104401262E+03  0.00000000000E+00 0. -1.
         21   -1    0    0  502  503 -0.00000000000E+00 -0.00000000000E+00 -0.53159103638E+03  0.53159103638E+03  0.00000000000E+00 0.  1.
         -6    2    1    2    0  503 -0.12912711566E+02 -0.22916525619E+03 -0.24479478749E+03  0.37786754955E+03  0.17371224556E+03 0.  0.
        -24    2    3    3    0    0  0.64966551875E+01 -0.21172948754E+03 -0.26146177164E+03  0.34655288993E+03  0.82855688202E+02 0.  0.
          6    2    1    2  501    0  0.12912711566E+02  0.22916525619E+03 -0.12575223627E+03  0.31476749945E+03  0.17487567304E+03 0.  0.
         24    2    5    5    0    0  0.16450362727E+02  0.11673325603E+03 -0.14374631680E+03  0.20075282246E+03  0.75772189057E+02 0.  0.
          5    1    5    5  501    0 -0.35376511610E+01  0.11243200016E+03  0.17994080531E+02  0.11401467699E+03  0.47000000000E+01 0. -1.
        -13    1    6    6    0    0  0.24664335306E+01  0.55850764749E+02 -0.12269851199E+03  0.13483440236E+03  0.00000000000E+00 0.  1.
         14    1    6    6    0    0  0.13983929197E+02  0.60882491283E+02 -0.21047804817E+02  0.65918420098E+02  0.00000000000E+00 0. -1.
         -5    1    3    3    0  503 -0.19409366754E+02 -0.17435768650E+02  0.16666984156E+02  0.31314659619E+02  0.47000000000E+01 0.  1.
         11    1    4    4    0    0 -0.26005365031E+02 -0.36572670074E+02 -0.28035303569E+02  0.52913301286E+02  0.00000000000E+00 0. -1.
        -12    1    4    4    0    0  0.32502020219E+02 -0.17515681746E+03 -0.23342646808E+03  0.29363958865E+03  0.00000000000E+00 0.  1.
<mgrwt>
<rscale>  2 0.28838061E+03</rscale>
<asrwt>0</asrwt>
<pdfrwt beam="1">  1       21 0.24776002E-01 0.28855667E+03</pdfrwt>
<pdfrwt beam="2">  1       21 0.81783237E-01 0.28855667E+03</pdfrwt>
<totfact> 0.19187836E+04</totfact>
</mgrwt>
</event>
<event>
12    1  0.1026879E-001  0.2795032E+03  0.7546771E-02  0.1095962E+00
         21   -1    0    0  503  502  0.00000000000E+00  0.00000000000E+00  0.14858070818E+04  0.14858070818E+04  0.00000000000E+00 0.  1.
         21   -1    0    0  501  503 -0.00000000000E+00 -0.00000000000E+00 -0.84575529063E+02  0.84575529063E+02  0.00000000000E+00 0. -1.
          6    2    1    2  501    0 -0.21923843914E+03  0.10012667325E+02  0.21764176116E+03  0.35423836718E+03  0.17306397048E+03 0.  0.
         24    2    3    3    0    0 -0.94712820323E+02 -0.38954601419E+02  0.49106327645E+02  0.13899268081E+03  0.80122123034E+02 0.  0.
         -6    2    1    2    0  502  0.21923843914E+03 -0.10012667325E+02  0.11835897916E+04  0.12161442437E+04  0.17307882602E+03 0.  0.
        -24    2    5    5    0    0  0.22635887628E+03  0.11417462056E+02  0.11531799830E+04  0.11779762266E+04  0.80219810316E+02 0.  0.
          5    1    3    3  501    0 -0.12452561882E+03  0.48967268743E+02  0.16853543351E+03  0.21524568637E+03  0.47000000000E+01 0. -1.
        -11    1    4    4    0    0  0.88946544112E+01  0.85292929517E+01 -0.44027410411E+01  0.13086169953E+02  0.00000000000E+00 0.  1.
         12    1    4    4    0    0 -0.10360747473E+03 -0.47483894370E+02  0.53509068686E+02  0.12590651086E+03  0.00000000000E+00 0. -1.
         -5    1    5    5    0  502 -0.71204371437E+01 -0.21430129381E+02  0.30409808662E+02  0.38168017151E+02  0.47000000000E+01 0.  1.
         11    1    6    6    0    0  0.11578848157E+02 -0.44895251900E+01  0.14425216479E+02  0.19034506338E+02  0.00000000000E+00 0. -1.
        -12    1    6    6    0    0  0.21478002813E+03  0.15906987246E+02  0.11387547665E+04  0.11589417202E+04  0.00000000000E+00 0.  1.
<mgrwt>
<rscale>  2 0.27950088E+03</rscale>
<asrwt>0</asrwt>
<pdfrwt beam="1">  1       21 0.22858569E+00 0.27950318E+03</pdfrwt>
<pdfrwt beam="2">  1       21 0.13011621E-01 0.27950318E+03</pdfrwt>
<totfact> 0.42063479E+03</totfact>
</mgrwt>
</event>
<event>
12    1  0.1026879E-001  0.1733116E+03  0.7546771E-02  0.1174474E+00
         21   -1    0    0  503  502  0.00000000000E+00  0.00000000000E+00  0.43215823303E+03  0.43215823303E+03  0.00000000000E+00 0. -1.
         21   -1    0    0  501  503 -0.00000000000E+00 -0.00000000000E+00 -0.92766278626E+02  0.92766278626E+02  0.00000000000E+00 0. -1.
          6    2    1    2  501    0 -0.19512464963E+01  0.23191197091E+02  0.38158378371E+02  0.17746255436E+03  0.17174183351E+03 0.  0.
         24    2    3    3    0    0 -0.46529492082E+02  0.63969703736E+02  0.16984289094E+02  0.11327113250E+03  0.79276520820E+02 0.  0.
         -6    2    1    2    0  502  0.19512464963E+01 -0.23191197091E+02  0.30123357603E+03  0.34746195729E+03  0.17159984105E+03 0.  0.
        -24    2    5    5    0    0  0.49887389635E+01  0.19489115124E+02  0.29270681199E+03  0.30357994371E+03  0.77966603816E+02 0.  0.
          5    1    3    3  501    0  0.44578245586E+02 -0.40778506645E+02  0.21174089277E+02  0.64191421860E+02  0.47000000000E+01 0. -1.
        -13    1    4    4    0    0 -0.49333579685E+02  0.76978654673E+01  0.25867748107E+02  0.56233438535E+02  0.00000000000E+00 0.  1.
         14    1    4    4    0    0  0.28040876028E+01  0.56271838268E+02 -0.88834590128E+01  0.57037693970E+02  0.00000000000E+00 0. -1.
         -5    1    5    5    0  502 -0.30374924672E+01 -0.42680312215E+02  0.85267640435E+01  0.43882013585E+02  0.47000000000E+01 0.  1.
         13    1    6    6    0    0  0.22422160503E+02  0.39063366468E+02  0.10790053012E+03  0.11692401071E+03  0.00000000000E+00 0. -1.
        -14    1    6    6    0    0 -0.17433421540E+02 -0.19574251344E+02  0.18480628187E+03  0.18665593299E+03  0.00000000000E+00 0.  1.
<mgrwt>
<rscale>  2 0.17327637E+03</rscale>
<asrwt>0</asrwt>
<pdfrwt beam="1">  1       21 0.66485881E-01 0.17331156E+03</pdfrwt>
<pdfrwt beam="2">  1       21 0.14271735E-01 0.17331156E+03</pdfrwt>
<totfact> 0.89791610E+04</totfact>
</mgrwt>
</event>
<event>
12    1  0.1026879E-001  0.1870444E+03  0.7546771E-02  0.1161474E+00
         21   -1    0    0  501  502  0.00000000000E+00  0.00000000000E+00  0.42442961698E+03  0.42442961698E+03  0.00000000000E+00 0. -1.
         21   -1    0    0  502  503 -0.00000000000E+00 -0.00000000000E+00 -0.10199219478E+03  0.10199219478E+03  0.00000000000E+00 0. -1.
         -6    2    1    2    0  503 -0.66919742257E+02  0.19423723598E+02  0.44644513748E+02  0.19229855226E+03  0.17358014763E+03 0.  0.
        -24    2    3    3    0    0 -0.51600843894E+02 -0.54010339960E+02  0.29270883525E+02  0.11558043938E+03  0.83200297069E+02 0.  0.
          6    2    1    2  501    0  0.66919742257E+02 -0.19423723598E+02  0.27779290845E+03  0.33412325950E+03  0.17208695364E+03 0.  0.
         24    2    5    5    0    0  0.19578523557E+02 -0.49324817253E+02  0.25744524502E+03  0.27436220365E+03  0.78614937669E+02 0.  0.
          5    1    5    5  501    0  0.47341218701E+02  0.29901093655E+02  0.20347663427E+02  0.59761055854E+02  0.47000000000E+01 0. -1.
        -13    1    6    6    0    0  0.86210681726E+01  0.79406573169E+01  0.14486115660E+01  0.11809967423E+02  0.00000000000E+00 0.  1.
         14    1    6    6    0    0  0.10957455384E+02 -0.57265474570E+02  0.25599663346E+03  0.26255223623E+03  0.00000000000E+00 0. -1.
         -5    1    3    3    0  503 -0.15318898363E+02  0.73434063558E+02  0.15373630223E+02  0.76718112880E+02  0.47000000000E+01 0.  1.
         13    1    4    4    0    0  0.14455697104E+02  0.53471992381E+01 -0.10110033821E+02  0.18432918985E+02  0.00000000000E+00 0. -1.
        -14    1    4    4    0    0 -0.66056540999E+02 -0.59357539198E+02  0.39380917345E+02  0.97147520397E+02  0.00000000000E+00 0.  1.
<mgrwt>
<rscale>  2 0.18669720E+03</rscale>
<asrwt>0</asrwt>
<pdfrwt beam="1">  1       21 0.65296863E-01 0.18704438E+03</pdfrwt>
<pdfrwt beam="2">  1       21 0.15691107E-01 0.18704438E+03</pdfrwt>
<totfact> 0.78158141E+04</totfact>
</mgrwt>
</event>
<event>
12    1  0.1026879E-001  0.1773197E+03  0.7546771E-02  0.1170970E+00
         21   -1    0    0  501  502  0.00000000000E+00  0.00000000000E+00  0.41840577103E+02  0.41840577103E+02  0.00000000000E+00 0.  1.
         21   -1    0    0  502  503 -0.00000000000E+00 -0.00000000000E+00 -0.74273036721E+03  0.74273036721E+03  0.00000000000E+00 0.  1.
         -6    2    1    2    0  503  0.35909066079E+01 -0.39071603920E+02 -0.33748525516E+03  0.38021326331E+03  0.17066441722E+03 0.  0.
        -24    2    3    3    0    0  0.98690175989E+01 -0.25135640833E+02 -0.63371031909E+02  0.10563299611E+03  0.80082733685E+02 0.  0.
          6    2    1    2  501    0 -0.35909066079E+01  0.39071603920E+02 -0.36340453495E+03  0.40435768101E+03  0.17292424157E+03 0.  0.
         24    2    5    5    0    0 -0.30518556153E+02  0.87099196954E+02 -0.23888576266E+03  0.26812713137E+03  0.79423539291E+02 0.  0.
          5    1    5    5  501    0  0.26927649545E+02 -0.48027593034E+02 -0.12451877229E+03  0.13623054964E+03  0.47000000000E+01 0. -1.
        -13    1    6    6    0    0 -0.10820042548E+01  0.77509506565E+02 -0.21639700993E+03  0.22986204612E+03  0.00000000000E+00 0.  1.
         14    1    6    6    0    0 -0.29436551898E+02  0.95896903884E+01 -0.22488752733E+02  0.38265085246E+02  0.00000000000E+00 0. -1.
         -5    1    3    3    0  503 -0.62781109910E+01 -0.13935963086E+02 -0.27411422325E+03  0.27458026720E+03  0.47000000000E+01 0.  1.
         13    1    4    4    0    0  0.43379820959E+02 -0.18849207033E+01 -0.28186047766E+02  0.51766930382E+02  0.00000000000E+00 0. -1.
        -14    1    4    4    0    0 -0.33510803360E+02 -0.23250720130E+02 -0.35184984144E+02  0.53866065733E+02  0.00000000000E+00 0.  1.
<mgrwt>
<rscale>  2 0.17676635E+03</rscale>
<asrwt>0</asrwt>
<pdfrwt beam="1">  1       21 0.64370119E-02 0.17731971E+03</pdfrwt>
<pdfrwt beam="2">  1       21 0.11426621E+00 0.17731971E+03</pdfrwt>
<totfact> 0.10475219E+05</totfact>
</mgrwt>
</event>
<event>
12    1  0.1026879E-001  0.2101623E+03  0.7546771E-02  0.1141541E+00
         21   -1    0    0  501  502  0.00000000000E+00  0.00000000000E+00  0.44235786276E+03  0.44235786276E+03  0.00000000000E+00 0.  1.
         21   -1    0    0  502  503 -0.00000000000E+00 -0.00000000000E+00 -0.32413494965E+03  0.32413494965E+03  0.00000000000E+00 0. -1.
         -6    2    1    2    0  503  0.87824791832E+02  0.79876052773E+02 -0.25984200214E+03  0.33419465851E+03  0.17342094981E+03 0.  0.
        -24    2    3    3    0    0  0.92772010639E+01  0.63564480702E+02 -0.22334629478E+03  0.24593471258E+03  0.80459963925E+02 0.  0.
          6    2    1    2  501    0 -0.87824791832E+02 -0.79876052773E+02  0.37806491525E+03  0.43229815391E+03  0.17278667733E+03 0.  0.
         24    2    5    5    0    0 -0.61104222428E+02 -0.12139424316E+03  0.31147988664E+03  0.34927162202E+03  0.80626657496E+02 0.  0.
          5    1    5    5  501    0 -0.26720569404E+02  0.41518190385E+02  0.66585028612E+02  0.83026531889E+02  0.47000000000E+01 0. -1.
        -11    1    6    6    0    0 -0.11476677235E+02  0.66482042967E+01  0.72013349410E+02  0.73224553491E+02  0.00000000000E+00 0.  1.
         12    1    6    6    0    0 -0.49627545193E+02 -0.12804244745E+03  0.23946653723E+03  0.27604706853E+03  0.00000000000E+00 0. -1.
         -5    1    3    3    0  503  0.78547590768E+02  0.16311572070E+02 -0.36495707361E+02  0.88259945925E+02  0.47000000000E+01 0.  1.
         13    1    4    4    0    0  0.15182465196E+02  0.71910178524E+02 -0.11101227275E+03  0.13313641773E+03  0.00000000000E+00 0. -1.
        -14    1    4    4    0    0 -0.59052641318E+01 -0.83456978215E+01 -0.11233402202E+03  0.11279829485E+03  0.00000000000E+00 0.  1.
<mgrwt>
<rscale>  2 0.21003143E+03</rscale>
<asrwt>0</asrwt>
<pdfrwt beam="1">  1       21 0.68055056E-01 0.21016233E+03</pdfrwt>
<pdfrwt beam="2">  1       21 0.49866915E-01 0.21016233E+03</pdfrwt>
<totfact> 0.74593031E+03</totfact>
</mgrwt>
</event>
<event>
12    1  0.1026879E-001  0.2423356E+03  0.7546771E-02  0.1118416E+00
         21   -1    0    0  501  502  0.00000000000E+00  0.00000000000E+00  0.12788443240E+04  0.12788443240E+04  0.00000000000E+00 0.  1.
         21   -1    0    0  502  503 -0.00000000000E+00 -0.00000000000E+00 -0.61141118725E+02  0.61141118725E+02  0.00000000000E+00 0.  1.
         -6    2    1    2    0  503 -0.16036526051E+03 -0.54873088389E+02  0.94623092848E+03  0.97676993723E+03  0.17320065717E+03 0.  0.
        -24    2    3    3    0    0 -0.21502808561E+02  0.10752362303E+02  0.24188921260E+03  0.25586160527E+03  0.79854779521E+02 0.  0.
          6    2    1    2  501    0  0.16036526051E+03  0.54873088389E+02  0.27147227676E+03  0.36321550546E+03  0.17175632085E+03 0.  0.
         24    2    5    5    0    0  0.18478215760E+03  0.24854813181E+02  0.23227937313E+03  0.30793933153E+03  0.78171076604E+02 0.  0.
          5    1    5    5  501    0 -0.24416897087E+02  0.30018275208E+02  0.39192903628E+02  0.55276173932E+02  0.47000000000E+01 0. -1.
        -11    1    6    6    0    0  0.19108537876E+03  0.24453468469E+02  0.23208454590E+03  0.30162034172E+03  0.00000000000E+00 0.  1.
         12    1    6    6    0    0 -0.63032211596E+01  0.40134471201E+00  0.19482723091E+00  0.63189898097E+01  0.00000000000E+00 0. -1.
         -5    1    3    3    0  503 -0.13886245195E+03 -0.65625450692E+02  0.70434171589E+03  0.72090833195E+03  0.47000000000E+01 0.  1.
         13    1    4    4    0    0  0.28200360591E+02  0.95876978845E+01  0.13089890966E+03  0.13424495834E+03  0.00000000000E+00 0. -1.
        -14    1    4    4    0    0 -0.49703169153E+02  0.11646644186E+01  0.11099030293E+03  0.12161664694E+03  0.00000000000E+00 0.  1.
<mgrwt>
<rscale>  2 0.24207764E+03</rscale>
<asrwt>0</asrwt>
<pdfrwt beam="1">  1       21 0.19674526E+00 0.24233559E+03</pdfrwt>
<pdfrwt beam="2">  1       21 0.94063269E-02 0.24233559E+03</pdfrwt>
<totfact> 0.12275725E+04</totfact>
</mgrwt>
</event>
<event>
12    1  0.1026879E-001  0.1917356E+03  0.7546771E-02  0.1156978E+00
         21   -1    0    0  501  502  0.00000000000E+00  0.00000000000E+00  0.34598187491E+03  0.34598187491E+03  0.00000000000E+00 0. -1.
         21   -1    0    0  502  503 -0.00000000000E+00 -0.00000000000E+00 -0.10937562890E+03  0.10937562890E+03  0.00000000000E+00 0. -1.
         -6    2    1    2    0  503  0.82084926812E+02  0.25704792403E+01  0.78845826621E+02  0.20731430999E+03  0.17325708118E+03 0.  0.
        -24    2    3    3    0    0  0.80951679390E+02 -0.30774598814E+02 -0.14983897624E+01  0.12019105485E+03  0.83327031428E+02 0.  0.
          6    2    1    2  501    0 -0.82084926812E+02 -0.25704792403E+01  0.15776041939E+03  0.24804319381E+03  0.17289457337E+03 0.  0.
         24    2    5    5    0    0 -0.38779095742E+02  0.57952040804E+02  0.12683612711E+03  0.16731666602E+03  0.83935727125E+02 0.  0.
          5    1    5    5  501    0 -0.43305831070E+02 -0.60522520044E+02  0.30924292279E+02  0.80726527797E+02  0.47000000000E+01 0. -1.
        -11    1    6    6    0    0 -0.38882895388E+02  0.70992386679E+01  0.10459245491E+03  0.11181171838E+03  0.00000000000E+00 0.  1.
         12    1    6    6    0    0  0.10379964582E+00  0.50852802136E+02  0.22243672200E+02  0.55504947639E+02  0.00000000000E+00 0. -1.
         -5    1    3    3    0  503  0.11332474226E+01  0.33345078055E+02  0.80344216383E+02  0.87123255141E+02  0.47000000000E+01 0.  1.
         11    1    4    4    0    0  0.91159550703E+02 -0.19493966783E+02  0.18525270401E+02  0.95043485147E+02  0.00000000000E+00 0. -1.
        -12    1    4    4    0    0 -0.10207871314E+02 -0.11280632031E+02 -0.20023660164E+02  0.25147569707E+02  0.00000000000E+00 0.  1.
<mgrwt>
<rscale>  2 0.19165372E+03</rscale>
<asrwt>0</asrwt>
<pdfrwt beam="1">  1       21 0.53227980E-01 0.19173565E+03</pdfrwt>
<pdfrwt beam="2">  1       21 0.16827020E-01 0.19173565E+03</pdfrwt>
<totfact> 0.10629276E+05</totfact>
</mgrwt>
</event>
<event>
12    1  0.1026879E-001  0.1865022E+03  0.7546771E-02  0.1162646E+00
         21   -1    0    0  503  502  0.00000000000E+00  0.00000000000E+00  0.26599725410E+03  0.26599725410E+03  0.00000000000E+00 0.  1.
         21   -1    0    0  501  503 -0.00000000000E+00 -0.00000000000E+00 -0.16121239817E+03  0.16121239817E+03  0.00000000000E+00 0.  1.
          6    2    1    2  501    0  0.62453465766E+02 -0.38573134626E+02 -0.44356670447E+02  0.19170438688E+03  0.17144893010E+03 0.  0.
         24    2    3    3    0    0  0.89122297971E+02 -0.74019472983E+02 -0.29897685689E+02  0.14481279110E+03  0.81579448890E+02 0.  0.
         -6    2    1    2    0  502 -0.62453465766E+02  0.38573134626E+02  0.14914152637E+03  0.23550526539E+03  0.16682689543E+03 0.  0.
        -24    2    5    5    0    0  0.12001395593E+02 -0.22847652051E+02  0.76809228210E+02  0.11479863437E+03  0.81320478443E+02 0.  0.
          5    1    3    3  501    0 -0.26668832205E+02  0.35446338357E+02 -0.14458984758E+02  0.46891595775E+02  0.47000000000E+01 0. -1.
        -13    1    4    4    0    0  0.24303580837E+02 -0.21733595423E+02 -0.49486612592E+02  0.59261606773E+02  0.00000000000E+00 0.  1.
         14    1    4    4    0    0  0.64818717134E+02 -0.52285877560E+02  0.19588926902E+02  0.85551184330E+02  0.00000000000E+00 0. -1.
         -5    1    5    5    0  502 -0.74454861359E+02  0.61420786678E+02  0.72332298161E+02  0.12070663103E+03  0.47000000000E+01 0.  1.
         13    1    6    6    0    0 -0.26653485332E+02 -0.35590640864E+02  0.43513680462E+02  0.62213683260E+02  0.00000000000E+00 0. -1.
        -14    1    6    6    0    0  0.38654880925E+02  0.12742988812E+02  0.33295547748E+02  0.52584951108E+02  0.00000000000E+00 0.  1.
<mgrwt>
<rscale>  2 0.18543303E+03</rscale>
<asrwt>0</asrwt>
<pdfrwt beam="1">  1       21 0.40922654E-01 0.18650217E+03</pdfrwt>
<pdfrwt beam="2">  1       21 0.24801907E-01 0.18650217E+03</pdfrwt>
<totfact> 0.88667587E+04</totfact>
</mgrwt>
</event>
<event>
12    1  0.1026879E-001  0.1947184E+03  0.7546771E-02  0.1154327E+00
         21   -1    0    0  503  502  0.00000000000E+00  0.00000000000E+00  0.52110363745E+02  0.52110363745E+02  0.00000000000E+00 0. -1.
         21   -1    0    0  501  503 -0.00000000000E+00 -0.00000000000E+00 -0.75972380289E+03  0.75972380289E+03  0.00000000000E+00 0. -1.
          6    2    1    2  501    0  0.56552046564E+01  0.90899667091E+02 -0.26892120504E+03  0.33186945968E+03  0.17182547229E+03 0.  0.
         24    2    3    3    0    0  0.16353642580E+02 -0.16023168489E+02 -0.15633424371E+03  0.17616183878E+03  0.77900026531E+02 0.  0.
         -6    2    1    2    0  502 -0.56552046564E+01 -0.90899667091E+02 -0.43869223410E+03  0.47996470696E+03  0.17210610926E+03 0.  0.
        -24    2    5    5    0    0 -0.43217896010E+02 -0.86527948591E+02 -0.42022305903E+03  0.43761771022E+03  0.74612120579E+02 0.  0.
          5    1    3    3  501    0 -0.10698437924E+02  0.10692283558E+03 -0.11258696133E+03  0.15570762089E+03  0.47000000000E+01 0. -1.
        -13    1    4    4    0    0 -0.31298804698E+02 -0.10962568255E+02 -0.68512687598E+02  0.76116893264E+02  0.00000000000E+00 0.  1.
         14    1    4    4    0    0  0.47652447278E+02 -0.50606002344E+01 -0.87821556111E+02  0.10004494552E+03  0.00000000000E+00 0. -1.
         -5    1    5    5    0  502  0.37562691354E+02 -0.43717185002E+01 -0.18469175071E+02  0.42346996731E+02  0.47000000000E+01 0.  1.
         13    1    6    6    0    0 -0.62441334998E+01 -0.70303179573E+02 -0.16862280195E+03  0.18279818270E+03  0.00000000000E+00 0. -1.
        -14    1    6    6    0    0 -0.36973762510E+02 -0.16224769019E+02 -0.25160025708E+03  0.25481952753E+03  0.00000000000E+00 0.  1.
<mgrwt>
<rscale>  2 0.19465634E+03</rscale>
<asrwt>0</asrwt>
<pdfrwt beam="1">  1       21 0.80169789E-02 0.19471837E+03</pdfrwt>
<pdfrwt beam="2">  1       21 0.11688059E+00 0.19471837E+03</pdfrwt>
<totfact> 0.67305379E+04</totfact>
</mgrwt>
</event>
<event>
12    1  0.1026879E-001  0.2506932E+03  0.7546771E-02  0.1112943E+00
         21   -1    0    0  503  502  0.00000000000E+00  0.00000000000E+00  0.63022285654E+03  0.63022285654E+03  0.00000000000E+00 0.  1.
         21   -1    0    0  501  503 -0.00000000000E+00 -0.00000000000E+00 -0.10401510397E+03  0.10401510397E+03  0.00000000000E+00 0. -1.
          6    2    1    2  501    0 -0.53779490236E+02  0.17245948076E+03  0.18663390552E+03  0.31215092767E+03  0.17312273358E+03 0.  0.
         24    2    3    3    0    0 -0.20482455747E+01  0.34724624157E+02  0.17035428927E+02  0.87578565925E+02  0.78548103338E+02 0.  0.
         -6    2    1    2    0  502  0.53779490236E+02 -0.17245948076E+03  0.33957384705E+03  0.42208703284E+03  0.17381760446E+03 0.  0.
        -24    2    5    5    0    0  0.74632962059E+02 -0.16314688815E+03  0.34617155552E+03  0.39785458713E+03  0.79161483743E+02 0.  0.
          5    1    3    3  501    0 -0.51731244661E+02  0.13773485660E+03  0.16959847659E+03  0.22457236175E+03  0.47000000000E+01 0. -1.
        -13    1    4    4    0    0 -0.32565577370E+02  0.34862434214E+01  0.27391948492E+02  0.42696481879E+02  0.00000000000E+00 0.  1.
         14    1    4    4    0    0  0.30517331795E+02  0.31238380735E+02 -0.10356519564E+02  0.44882084047E+02  0.00000000000E+00 0. -1.
         -5    1    5    5    0  502 -0.20853471824E+02 -0.93125926104E+01 -0.65977084731E+01  0.24232445715E+02  0.47000000000E+01 0.  1.
         13    1    6    6    0    0  0.62780827008E+02 -0.10812799332E+03  0.15823372330E+03  0.20167053917E+03  0.00000000000E+00 0. -1.
        -14    1    6    6    0    0  0.11852135051E+02 -0.55018894828E+02  0.18793783222E+03  0.19618404796E+03  0.00000000000E+00 0.  1.
<mgrwt>
<rscale>  2 0.25057276E+03</rscale>
<asrwt>0</asrwt>
<pdfrwt beam="1">  1       21 0.96957360E-01 0.25069317E+03</pdfrwt>
<pdfrwt beam="2">  1       21 0.16002324E-01 0.25069317E+03</pdfrwt>
<totfact> 0.29869797E+04</totfact>
</mgrwt>
</event>
<event>
12    1  0.1026879E-001  0.1812620E+03  0.7546771E-02  0.1166824E+00
         21   -1    0    0  503  502  0.00000000000E+00  0.00000000000E+00  0.82009271795E+02  0.82009271795E+02  0.00000000000E+00 0. -1.
         21   -1    0    0  501  503 -0.00000000000E+00 -0.00000000000E+00 -0.55047407990E+03  0.55047407990E+03  0.00000000000E+00 0. -1.
          6    2    1    2  501    0  0.15091091480E+02  0.51112860058E+02 -0.40087641202E+03  0.43995206351E+03  0.17325026686E+03 0.  0.
         24    2    3    3    0    0  0.36179841425E+02 -0.34187292527E+02 -0.19476497964E+03  0.21584301871E+03  0.78594271640E+02 0.  0.
         -6    2    1    2    0  502 -0.15091091480E+02 -0.51112860058E+02 -0.67588396087E+02  0.19253128818E+03  0.17222032441E+03 0.  0.
        -24    2    5    5    0    0 -0.32421737358E+01 -0.99584607307E+02 -0.35710032387E+02  0.13313240600E+03  0.80755342920E+02 0.  0.
          5    1    3    3  501    0 -0.21088749945E+02  0.85300152584E+02 -0.20611143238E+03  0.22410904480E+03  0.47000000000E+01 0. -1.
        -13    1    4    4    0    0 -0.35061135431E+01 -0.10171979570E+02  0.41942770982E+01  0.11547898550E+02  0.00000000000E+00 0.  1.
         14    1    4    4    0    0  0.39685954969E+02 -0.24015312957E+02 -0.19895925674E+03  0.20429512016E+03  0.00000000000E+00 0. -1.
         -5    1    5    5    0  502 -0.11848917744E+02  0.48471747249E+02 -0.31878363700E+02  0.59398882189E+02  0.47000000000E+01 0.  1.
         13    1    6    6    0    0  0.25782311741E+02 -0.16090355140E+02  0.12010753244E+02  0.32678514666E+02  0.00000000000E+00 0. -1.
        -14    1    6    6    0    0 -0.29024485477E+02 -0.83494252167E+02 -0.47720785632E+02  0.10045389133E+03  0.00000000000E+00 0.  1.
<mgrwt>
<rscale>  2 0.18101548E+03</rscale>
<asrwt>0</asrwt>
<pdfrwt beam="1">  1       21 0.12616811E-01 0.18126202E+03</pdfrwt>
<pdfrwt beam="2">  1       21 0.84688321E-01 0.18126202E+03</pdfrwt>
<totfact> 0.65151028E+04</totfact>
</mgrwt>
</event>
<event>
12    1  0.1026879E-001  0.1962448E+03  0.7546771E-02  0.1152992E+00
         21   -1    0    0  503  502  0.00000000000E+00  0.00000000000E+00  0.25611513926E+03  0.25611513926E+03  0.00000000000E+00 0. -1.
         21   -1    0    0  501  503 -0.00000000000E+00 -0.00000000000E+00 -0.20505643935E+03  0.20505643935E+03  0.00000000000E+00 0. -1.
          6    2    1    2  501    0 -0.31964266875E+02 -0.87792226894E+02 -0.93715779785E+02  0.21747339748E+03  0.17257706039E+03 0.  0.
         24    2    3    3    0    0  0.34856115677E+02 -0.89629608141E+02 -0.84512565502E+02  0.14983370021E+03  0.77841817385E+02 0.  0.
         -6    2    1    2    0  502  0.31964266875E+02  0.87792226894E+02  0.14477447970E+03  0.24369818113E+03  0.17233677511E+03 0.  0.
        -24    2    5    5    0    0  0.81453415997E+02  0.60583742973E+02  0.61155322390E+02  0.14268466250E+03  0.79459993490E+02 0.  0.
          5    1    3    3  501    0 -0.66820382553E+02  0.18373812473E+01 -0.92032142836E+01  0.67639697275E+02  0.47000000000E+01 0. -1.
        -11    1    4    4    0    0 -0.11382185299E+01 -0.65550234033E+00  0.12967182937E+02  0.13033535900E+02  0.00000000000E+00 0.  1.
         12    1    4    4    0    0  0.35994334207E+02 -0.88974105801E+02 -0.97479748439E+02  0.13680016430E+03  0.00000000000E+00 0. -1.
         -5    1    5    5    0  502 -0.49489149121E+02  0.27208483921E+02  0.83619157307E+02  0.10101351863E+03  0.47000000000E+01 0.  1.
         11    1    6    6    0    0  0.15065962291E+02  0.47296158206E+02 -0.25742479402E+01  0.49704492284E+02  0.00000000000E+00 0. -1.
        -12    1    6    6    0    0  0.66387453706E+02  0.13287584767E+02  0.63729570330E+02  0.92980170214E+02  0.00000000000E+00 0.  1.
<mgrwt>
<rscale>  2 0.19619199E+03</rscale>
<asrwt>0</asrwt>
<pdfrwt beam="1">  1       21 0.39402329E-01 0.19624482E+03</pdfrwt>
<pdfrwt beam="2">  1       21 0.31547145E-01 0.19624482E+03</pdfrwt>
<totfact> 0.59875704E+04</totfact>
</mgrwt>
</event>
<event>
12    1  0.1026879E-001  0.2482184E+03  0.7546771E-02  0.1114702E+00
         21   -1    0    0  503  502  0.00000000000E+00  0.00000000000E+00  0.52860439392E+03  0.52860439392E+03  0.00000000000E+00 0. -1.
         21   -1    0    0  501  503 -0.00000000000E+00 -0.00000000000E+00 -0.12208930965E+03  0.12208930965E+03  0.00000000000E+00 0.  1.
          6    2    1    2  501    0  0.50148095605E+02 -0.16988149463E+03  0.12992407086E+03  0.28016541407E+03  0.17389031412E+03 0.  0.
         24    2    3    3    0    0 -0.17125084170E+02 -0.19175042104E+02  0.49502466293E+02  0.96514005066E+02  0.78762353045E+02 0.  0.
         -6    2    1    2    0  502 -0.50148095605E+02  0.16988149463E+03  0.27659101341E+03  0.37052828949E+03  0.17150530869E+03 0.  0.
        -24    2    5    5    0    0  0.18713018212E+02  0.63989215998E+02  0.18622939487E+03  0.21515023514E+03  0.84637103888E+02 0.  0.
          5    1    3    3  501    0  0.67273179775E+02 -0.15070645252E+03  0.80421604572E+02  0.18365140901E+03  0.47000000000E+01 0. -1.
        -13    1    4    4    0    0 -0.10047766701E+02 -0.46915638284E+02  0.12226848999E+02  0.49512933337E+02  0.00000000000E+00 0.  1.
         14    1    4    4    0    0 -0.70773174689E+01  0.27740596179E+02  0.37275617294E+02  0.47001071728E+02  0.00000000000E+00 0. -1.
         -5    1    5    5    0  502 -0.68861113816E+02  0.10589227863E+03  0.90361618542E+02  0.15537805435E+03  0.47000000000E+01 0.  1.
         13    1    6    6    0    0 -0.11665989843E+02  0.28077151571E+02  0.15667586994E+03  0.15959871547E+03  0.00000000000E+00 0. -1.
        -14    1    6    6    0    0  0.30379008055E+02  0.35912064426E+02  0.29553524925E+02  0.55551519666E+02  0.00000000000E+00 0.  1.
<mgrwt>
<rscale>  2 0.24780115E+03</rscale>
<asrwt>0</asrwt>
<pdfrwt beam="1">  1       21 0.81323752E-01 0.24821844E+03</pdfrwt>
<pdfrwt beam="2">  1       21 0.18782971E-01 0.24821844E+03</pdfrwt>
<totfact> 0.33441456E+04</totfact>
</mgrwt>
</event>
<event>
12    1  0.1026879E-001  0.1798143E+03  0.7546771E-02  0.1168348E+00
         21   -1    0    0  503  502  0.00000000000E+00  0.00000000000E+00  0.23027471305E+02  0.23027471305E+02  0.00000000000E+00 0.  1.
         21   -1    0    0  501  503 -0.00000000000E+00 -0.00000000000E+00 -0.17471895411E+04  0.17471895411E+04  0.00000000000E+00 0.  1.
          6    2    1    2  501    0 -0.81340674086E+01  0.41097629576E+02 -0.46035817284E+03  0.49368519622E+03  0.17332122623E+03 0.  0.
         24    2    3    3    0    0  0.24682856613E+02  0.77667303065E+02 -0.21247011693E+03  0.24093063191E+03  0.79136372338E+02 0.  0.
         -6    2    1    2    0  502  0.81340674086E+01 -0.41097629576E+02 -0.12638038970E+04  0.12765318162E+04  0.17486569003E+03 0.  0.
        -24    2    5    5    0    0 -0.88239599310E-01  0.23224242039E+02 -0.10434409936E+04  0.10467780160E+04  0.80223030047E+02 0.  0.
          5    1    3    3  501    0 -0.32816924021E+02 -0.36569673490E+02 -0.24788805591E+03  0.25275456432E+03  0.47000000000E+01 0. -1.
        -13    1    4    4    0    0  0.48328913461E+01  0.11172423582E+02  0.46191258720E+01  0.13019839142E+02  0.00000000000E+00 0.  1.
         14    1    4    4    0    0  0.19849965267E+02  0.66494879484E+02 -0.21708924280E+03  0.22791079276E+03  0.00000000000E+00 0. -1.
         -5    1    5    5    0  502  0.82223070079E+01 -0.64321871615E+02 -0.22036290340E+03  0.22975380017E+03  0.47000000000E+01 0.  1.
         11    1    6    6    0    0  0.87139344482E+01  0.78667649081E+01 -0.20050744242E+02  0.23234693635E+02  0.00000000000E+00 0. -1.
        -12    1    6    6    0    0 -0.88021740475E+01  0.15357477131E+02 -0.10233902494E+04  0.10235433224E+04  0.00000000000E+00 0.  1.
<mgrwt>
<rscale>  2 0.17943773E+03</rscale>
<asrwt>0</asrwt>
<pdfrwt beam="1">  1       21 0.35426875E-02 0.17981431E+03</pdfrwt>
<pdfrwt beam="2">  1       21 0.26879842E+00 0.17981431E+03</pdfrwt>
<totfact> 0.25090692E+04</totfact>
</mgrwt>
</event>
<event>
12    1  0.1026879E-001  0.1878926E+03  0.7546771E-02  0.1160724E+00
         21   -1    0    0  501  502  0.00000000000E+00  0.00000000000E+00  0.53074708271E+03  0.53074708271E+03  0.00000000000E+00 0. -1.
         21   -1    0    0  502  503 -0.00000000000E+00 -0.00000000000E+00 -0.73632966266E+02  0.73632966266E+02  0.00000000000E+00 0. -1.
         -6    2    1    2    0  503 -0.66654303902E+02  0.24341169458E+02  0.13197633019E+03  0.22961140881E+03  0.17397804048E+03 0.  0.
        -24    2    3    3    0    0 -0.77874144080E+02  0.65491131511E+02  0.53135799377E+02  0.13984992771E+03  0.79881903351E+02 0.  0.
          6    2    1    2  501    0  0.66654303902E+02 -0.24341169458E+02  0.32513778626E+03  0.37476864017E+03  0.17234170952E+03 0.  0.
         24    2    5    5    0    0  0.10439102082E+03 -0.33816007525E+02  0.29577723111E+03  0.32579962385E+03  0.81364715133E+02 0.  0.
          5    1    5    5  501    0 -0.37736716917E+02  0.94748380670E+01  0.29360555153E+02  0.48969016316E+02  0.47000000000E+01 0. -1.
        -11    1    6    6    0    0  0.42967914689E+02  0.21921113616E+02  0.15577759572E+03  0.16307494057E+03  0.00000000000E+00 0.  1.
         12    1    6    6    0    0  0.61423106130E+02 -0.55737121141E+02  0.13999963539E+03  0.16272468328E+03  0.00000000000E+00 0. -1.
         -5    1    3    3    0  503  0.11219840178E+02 -0.41149962053E+02  0.78840530812E+02  0.89761481100E+02  0.47000000000E+01 0.  1.
         11    1    4    4    0    0 -0.84367176177E+02  0.25199083988E+02  0.30512390211E+02  0.93187017370E+02  0.00000000000E+00 0. -1.
        -12    1    4    4    0    0  0.64930320964E+01  0.40292047523E+02  0.22623409166E+02  0.46662910343E+02  0.00000000000E+00 0.  1.
<mgrwt>
<rscale>  2 0.18751297E+03</rscale>
<asrwt>0</asrwt>
<pdfrwt beam="1">  1       21 0.81653395E-01 0.18789265E+03</pdfrwt>
<pdfrwt beam="2">  1       21 0.11328149E-01 0.18789265E+03</pdfrwt>
<totfact> 0.85571950E+04</totfact>
</mgrwt>
</event>
<event>
12    1  0.1026879E-001  0.2515945E+03  0.7546771E-02  0.1113012E+00
         21   -1    0    0  501  502  0.00000000000E+00  0.00000000000E+00  0.35653722854E+03  0.35653722854E+03  0.00000000000E+00 0. -1.
         21   -1    0    0  502  503 -0.00000000000E+00 -0.00000000000E+00 -0.24487755874E+03  0.24487755874E+03  0.00000000000E+00 0. -1.
         -6    2    1    2    0  503 -0.10811524274E+03  0.13953546051E+03 -0.10586367612E+03  0.26882464309E+03  0.17291766932E+03 0.  0.
        -24    2    3    3    0    0 -0.57049374498E+02  0.22458944296E+02 -0.97205054662E+02  0.14071650411E+03  0.81198993640E+02 0.  0.
          6    2    1    2  501    0  0.10811524274E+03 -0.13953546051E+03  0.21752334592E+03  0.33259014418E+03  0.17927840789E+03 0.  0.
         24    2    5    5    0    0  0.62038460107E+02 -0.53776888038E+02  0.20731617448E+03  0.23459076154E+03  0.72884188810E+02 0.  0.
          5    1    5    5  501    0  0.46076782629E+02 -0.85758572475E+02  0.10207171438E+02  0.97999382647E+02  0.47000000000E+01 0. -1.
        -11    1    6    6    0    0 -0.16828017590E+02 -0.10001540088E+02  0.38107328052E+02  0.42841351886E+02  0.00000000000E+00 0.  1.
         12    1    6    6    0    0  0.78866477697E+02 -0.43775347949E+02  0.16920884643E+03  0.19174940965E+03  0.00000000000E+00 0. -1.
         -5    1    3    3    0  503 -0.51065868238E+02  0.11707651622E+03 -0.86586214547E+01  0.12810813898E+03  0.47000000000E+01 0.  1.
         11    1    4    4    0    0  0.44947440545E+01  0.35897035510E+02 -0.20944633546E+02  0.41802841493E+02  0.00000000000E+00 0. -1.
        -12    1    4    4    0    0 -0.61544118552E+02 -0.13438091214E+02 -0.76260421116E+02  0.98913662618E+02  0.00000000000E+00 0.  1.
<mgrwt>
<rscale>  2 0.25046387E+03</rscale>
<asrwt>0</asrwt>
<pdfrwt beam="1">  1       21 0.54851881E-01 0.25159451E+03</pdfrwt>
<pdfrwt beam="2">  1       21 0.37673471E-01 0.25159451E+03</pdfrwt>
<totfact> 0.20648773E+04</totfact>
</mgrwt>
</event>
<event>
12    1  0.1026879E-001  0.1900353E+03  0.7546771E-02  0.1158882E+00
         21   -1    0    0  503  502  0.00000000000E+00  0.00000000000E+00  0.25116403711E+03  0.25116403711E+03  0.00000000000E+00 0.  1.
         21   -1    0    0  501  503 -0.00000000000E+00 -0.00000000000E+00 -0.23733865425E+03  0.23733865425E+03  0.00000000000E+00 0.  1.
          6    2    1    2  501    0 -0.59081441019E+02  0.45270552620E+02 -0.14768838979E+03  0.23910320354E+03  0.17268017217E+03 0.  0.
         24    2    3    3    0    0 -0.26250865190E+02 -0.16482345932E+02 -0.14570166400E+03  0.16897971056E+03  0.79777139821E+02 0.  0.
         -6    2    1    2    0  502  0.59081441019E+02 -0.45270552620E+02  0.16151377265E+03  0.24939948782E+03  0.17485241252E+03 0.  0.
        -24    2    5    5    0    0 -0.34907602135E+02 -0.11290162282E+02  0.84778308341E+02  0.12330813743E+03  0.81679414426E+02 0.  0.
          5    1    3    3  501    0 -0.32830575829E+02  0.61752898552E+02 -0.19867257874E+01  0.70123492983E+02  0.47000000000E+01 0. -1.
        -11    1    4    4    0    0  0.23264832396E+02 -0.17185599234E+02 -0.23985478174E+02  0.37575263282E+02  0.00000000000E+00 0.  1.
         12    1    4    4    0    0 -0.49515697586E+02  0.70325330228E+00 -0.12171618583E+03  0.13140444728E+03  0.00000000000E+00 0. -1.
         -5    1    5    5    0  502  0.93989043155E+02 -0.33980390338E+02  0.76735464304E+02  0.12609135039E+03  0.47000000000E+01 0.  1.
         11    1    6    6    0    0 -0.43037936646E+02 -0.54126161486E+01  0.58789779664E+01  0.43773539796E+02  0.00000000000E+00 0. -1.
        -12    1    6    6    0    0  0.81303345111E+01 -0.58775461330E+01  0.78899330375E+02  0.79534597638E+02  0.00000000000E+00 0.  1.
<mgrwt>
<rscale>  2 0.18953410E+03</rscale>
<asrwt>0</asrwt>
<pdfrwt beam="1">  1       21 0.38640621E-01 0.19003528E+03</pdfrwt>
<pdfrwt beam="2">  1       21 0.36513639E-01 0.19003528E+03</pdfrwt>
<totfact> 0.46774620E+04</totfact>
</mgrwt>
</event>
<event>
12    1  0.1026879E-001  0.2429887E+03  0.7546771E-02  0.1118642E+00
         21   -1    0    0  503  502  0.00000000000E+00  0.00000000000E+00  0.26688092162E+04  0.26688092162E+04  0.00000000000E+00 0. -1.
         21   -1    0    0  501  503 -0.00000000000E+00 -0.00000000000E+00 -0.25807868672E+02  0.25807868672E+02  0.00000000000E+00 0. -1.
          6    2    1    2  501    0  0.51501092118E+02 -0.15515263272E+03  0.79370219463E+03  0.83006425805E+03  0.17977429405E+03 0.  0.
         24    2    3    3    0    0  0.46302759266E+02 -0.34175491311E+02  0.54431927755E+03  0.55279828332E+03  0.77398684827E+02 0.  0.
         -6    2    1    2    0  502 -0.51501092118E+02  0.15515263272E+03  0.18492991529E+04  0.18645528268E+04  0.17298897413E+03 0.  0.
        -24    2    5    5    0    0 -0.36242375166E+02  0.10727948172E+03  0.67827185357E+03  0.69243862898E+03  0.81216689124E+02 0.  0.
          5    1    3    3  501    0  0.51983328519E+01 -0.12097714141E+03  0.24938291708E+03  0.27726597473E+03  0.47000000000E+01 0. -1.
        -11    1    4    4    0    0 -0.12321344305E+01  0.20619759442E+02  0.70693574050E+02  0.73649671056E+02  0.00000000000E+00 0.  1.
         12    1    4    4    0    0  0.47534893696E+02 -0.54795250753E+02  0.47362570350E+03  0.47914861227E+03  0.00000000000E+00 0. -1.
         -5    1    5    5    0  502 -0.15258716951E+02  0.47873151004E+02  0.11710272993E+04  0.11721141978E+04  0.47000000000E+01 0.  1.
         11    1    6    6    0    0 -0.50998598393E+02  0.83923379659E+02  0.62250625097E+03  0.63020474704E+03  0.00000000000E+00 0. -1.
        -12    1    6    6    0    0  0.14756223227E+02  0.23356102060E+02  0.55765602600E+02  0.62233881935E+02  0.00000000000E+00 0.  1.
<mgrwt>
<rscale>  2 0.24173493E+03</rscale>
<asrwt>0</asrwt>
<pdfrwt beam="1">  1       21 0.41058581E+00 0.24298868E+03</pdfrwt>
<pdfrwt beam="2">  1       21 0.39704434E-02 0.24298868E+03</pdfrwt>
<totfact> 0.27817972E+03</totfact>
</mgrwt>
</event>
<event>
12    1  0.1026879E-001  0.2250710E+03  0.7546771E-02  0.1130315E+00
         21   -1    0    0  503  502  0.00000000000E+00  0.00000000000E+00  0.14200796404E+03  0.14200796404E+03  0.00000000000E+00 0.  1.
         21   -1    0    0  501  503 -0.00000000000E+00 -0.00000000000E+00 -0.53334927712E+03  0.53334927712E+03  0.00000000000E+00 0.  1.
          6    2    1    2  501    0 -0.14324527758E+03  0.30665738517E+01 -0.39049896671E+03  0.45028470067E+03  0.17244783335E+03 0.  0.
         24    2    3    3    0    0 -0.60645278282E+02  0.39043498784E+02 -0.31808589573E+03  0.33460046726E+03  0.74676576313E+02 0.  0.
         -6    2    1    2    0  502  0.14324527758E+03 -0.30665738517E+01 -0.84234636181E+00  0.22507254049E+03  0.17357512930E+03 0.  0.
        -24    2    5    5    0    0  0.93315622273E+02 -0.71382132759E+02  0.12168697789E+02  0.13933244871E+03  0.73906967334E+02 0.  0.
          5    1    3    3  501    0 -0.82599999296E+02 -0.35976924932E+02 -0.72413070983E+02  0.11568423341E+03  0.47000000000E+01 0. -1.
        -11    1    4    4    0    0 -0.49513847360E+02 -0.11989870776E+02 -0.13849117296E+03  0.14756416594E+03  0.00000000000E+00 0.  1.
         12    1    4    4    0    0 -0.11131430922E+02  0.51033369560E+02 -0.17959472277E+03  0.18703630132E+03  0.00000000000E+00 0. -1.
         -5    1    5    5    0  502  0.49929655306E+02  0.68315558908E+02 -0.13011044151E+02  0.85740091776E+02  0.47000000000E+01 0.  1.
         13    1    6    6    0    0  0.10193660004E+03 -0.45802468064E+02  0.82769348065E+01  0.11206000249E+03  0.00000000000E+00 0. -1.
        -14    1    6    6    0    0 -0.86209777694E+01 -0.25579664695E+02  0.38917629823E+01  0.27272446218E+02  0.00000000000E+00 0.  1.
<mgrwt>
<rscale>  2 0.22485359E+03</rscale>
<asrwt>0</asrwt>
<pdfrwt beam="1">  1       21 0.21847379E-01 0.22507096E+03</pdfrwt>
<pdfrwt beam="2">  1       21 0.82053735E-01 0.22507096E+03</pdfrwt>
<totfact> 0.24940972E+04</totfact>
</mgrwt>
</event>
<event>
12    1  0.1026879E-001  0.2476743E+03  0.7546771E-02  0.1114884E+00
         21   -1    0    0  501  502  0.00000000000E+00  0.00000000000E+00  0.92368977809E+02  0.92368977809E+02  0.00000000000E+00 0. -1.
         21   -1    0    0  502  503 -0.00000000000E+00 -0.00000000000E+00 -0.76693362644E+03  0.76693362644E+03  0.00000000000E+00 0. -1.
         -6    2    1    2    0  503  0.16466046410E+03  0.63350081544E+02 -0.49551943405E+03  0.55368884594E+03  0.17293214661E+03 0.  0.
        -24    2    3    3    0    0  0.18221865911E+03  0.19960123652E+02 -0.38614662541E+03  0.43462802145E+03  0.78678170112E+02 0.  0.
          6    2    1    2  501    0 -0.16466046410E+03 -0.63350081544E+02 -0.17904521458E+03  0.30561375830E+03  0.17382830360E+03 0.  0.
         24    2    5    5    0    0 -0.10866628955E+03 -0.43673482737E+02 -0.19744198761E+03  0.24329965571E+03  0.80595585595E+02 0.  0.
          5    1    5    5  501    0 -0.55994174550E+02 -0.19676598807E+02  0.18396773032E+02  0.62314102594E+02  0.47000000000E+01 0. -1.
        -11    1    6    6    0    0 -0.99671890569E+02 -0.44760835418E+01 -0.15870586882E+03  0.18746219324E+03  0.00000000000E+00 0.  1.
         12    1    6    6    0    0 -0.89943989778E+01 -0.39197399195E+02 -0.38736118784E+02  0.55837462470E+02  0.00000000000E+00 0. -1.
         -5    1    3    3    0  503 -0.17558195018E+02  0.43389957892E+02 -0.10937280864E+03  0.11906082449E+03  0.47000000000E+01 0.  1.
         13    1    4    4    0    0  0.94803376741E+02 -0.79204822826E+01 -0.12016078108E+03  0.15326130493E+03  0.00000000000E+00 0. -1.
        -14    1    4    4    0    0  0.87415282373E+02  0.27880605935E+02 -0.26598584433E+03  0.28136671652E+03  0.00000000000E+00 0.  1.
<mgrwt>
<rscale>  2 0.24751716E+03</rscale>
<asrwt>0</asrwt>
<pdfrwt beam="1">  1       21 0.14210612E-01 0.24767434E+03</pdfrwt>
<pdfrwt beam="2">  1       21 0.11798979E+00 0.24767434E+03</pdfrwt>
<totfact> 0.23099682E+04</totfact>
</mgrwt>
</event>
<event>
12    1  0.1026879E-001  0.2387774E+03  0.7546771E-02  0.1120865E+00
         21   -1    0    0  503  502  0.00000000000E+00  0.00000000000E+00  0.70051610177E+02  0.70051610177E+02  0.00000000000E+00 0. -1.
         21   -1    0    0  501  503 -0.00000000000E+00 -0.00000000000E+00 -0.80962779750E+03  0.80962779750E+03  0.00000000000E+00 0.  1.
          6    2    1    2  501    0  0.16203624733E+03  0.61762543628E+01 -0.38563053540E+03  0.45356980437E+03  0.17527340368E+03 0.  0.
         24    2    3    3    0    0  0.17224826790E+03  0.47310083603E+02 -0.31468329505E+03  0.37079373183E+03  0.80961136213E+02 0.  0.
         -6    2    1    2    0  502 -0.16203624733E+03 -0.61762543628E+01 -0.35394565193E+03  0.42610960331E+03  0.17319924350E+03 0.  0.
        -24    2    5    5    0    0 -0.10539811023E+03  0.14956888534E+02 -0.10468626104E+03  0.16958119894E+03  0.80412061464E+02 0.  0.
          5    1    3    3  501    0 -0.10212020568E+02 -0.41133829240E+02 -0.70947240347E+02  0.82776072538E+02  0.47000000000E+01 0. -1.
        -11    1    4    4    0    0  0.25641705642E+02  0.39545177006E+02 -0.54541311677E+02  0.72083789940E+02  0.00000000000E+00 0.  1.
         12    1    4    4    0    0  0.14660656226E+03  0.77649065970E+01 -0.26014198337E+03  0.29870994189E+03  0.00000000000E+00 0. -1.
         -5    1    5    5    0  502 -0.56638137101E+02 -0.21133142897E+02 -0.24925939089E+03  0.25652840437E+03  0.47000000000E+01 0.  1.
         11    1    6    6    0    0 -0.62340939845E+02  0.29371605799E+02 -0.10327111589E+03  0.12415316100E+03  0.00000000000E+00 0. -1.
        -12    1    6    6    0    0 -0.43057170382E+02 -0.14414717265E+02 -0.14151451435E+01  0.45428037938E+02  0.00000000000E+00 0.  1.
<mgrwt>
<rscale>  2 0.23839693E+03</rscale>
<asrwt>0</asrwt>
<pdfrwt beam="1">  1       21 0.10777171E-01 0.23877742E+03</pdfrwt>
<pdfrwt beam="2">  1       21 0.12455812E+00 0.23877742E+03</pdfrwt>
<totfact> 0.33357219E+04</totfact>
</mgrwt>
</event>
<event>
12    1  0.1026879E-001  0.1909972E+03  0.7546771E-02  0.1158340E+00
         21   -1    0    0  503  502  0.00000000000E+00  0.00000000000E+00  0.88107217704E+02  0.88107217704E+02  0.00000000000E+00 0. -1.
         21   -1    0    0  501  503 -0.00000000000E+00 -0.00000000000E+00 -0.58776565054E+03  0.58776565054E+03  0.00000000000E+00 0. -1.
          6    2    1    2  501    0  0.60008744636E+02  0.47100235680E+02 -0.43585336593E+03  0.47450005409E+03  0.17135537082E+03 0.  0.
         24    2    3    3    0    0  0.32786294778E+02  0.92858937995E+02 -0.35828108272E+03  0.38029565008E+03  0.81004467424E+02 0.  0.
         -6    2    1    2    0  502 -0.60008744636E+02 -0.47100235680E+02 -0.63805066912E+02  0.20137281415E+03  0.17510123381E+03 0.  0.
        -24    2    5    5    0    0 -0.80146003262E+02 -0.15319514403E+02 -0.98046639791E+02  0.15028368867E+03  0.79460519408E+02 0.  0.
          5    1    3    3  501    0  0.27222449859E+02 -0.45758702315E+02 -0.77572283211E+02  0.94204404019E+02  0.47000000000E+01 0. -1.
        -11    1    4    4    0    0 -0.44934196607E+01 -0.10435935034E+02 -0.85305774046E+02  0.86059134587E+02  0.00000000000E+00 0.  1.
         12    1    4    4    0    0  0.37279714438E+02  0.10329487303E+03 -0.27297530867E+03  0.29423651549E+03  0.00000000000E+00 0. -1.
         -5    1    5    5    0  502  0.20137258626E+02 -0.31780721277E+02  0.34241572880E+02  0.51089125488E+02  0.47000000000E+01 0.  1.
         13    1    6    6    0    0  0.32640404770E+01 -0.28877489812E+02 -0.20244427709E+02  0.35417513060E+02  0.00000000000E+00 0. -1.
        -14    1    6    6    0    0 -0.83410043739E+02  0.13557975409E+02 -0.77802212082E+02  0.11486617561E+03  0.00000000000E+00 0.  1.
<mgrwt>
<rscale>  2 0.19013432E+03</rscale>
<asrwt>0</asrwt>
<pdfrwt beam="1">  1       21 0.13554956E-01 0.19099718E+03</pdfrwt>
<pdfrwt beam="2">  1       21 0.90425486E-01 0.19099718E+03</pdfrwt>
<totfact> 0.49027619E+04</totfact>
</mgrwt>
</event>
<event>
12    1  0.1026879E-001  0.2423075E+03  0.7546771E-02  0.1118428E+00
         21   -1    0    0  501  502  0.00000000000E+00  0.00000000000E+00  0.36671870176E+03  0.36671870176E+03  0.00000000000E+00 0.  1.
         21   -1    0    0  502  503 -0.00000000000E+00 -0.00000000000E+00 -0.22866596036E+03  0.22866596036E+03  0.00000000000E+00 0.  1.
         -6    2    1    2    0  503 -0.15883019503E+03 -0.56355252331E+02 -0.94854463051E+02  0.25929137078E+03  0.17271855859E+03 0.  0.
        -24    2    3    3    0    0 -0.15827314306E+02 -0.24203049069E+01 -0.68423248654E+02  0.10411565894E+03  0.76824265222E+02 0.  0.
          6    2    1    2  501    0  0.15883019503E+03  0.56355252331E+02  0.23290720445E+03  0.33609329134E+03  0.17409764296E+03 0.  0.
         24    2    5    5    0    0  0.17095610573E+03  0.63849478956E+01  0.16462622787E+03  0.25048692009E+03  0.79844502582E+02 0.  0.
          5    1    5    5  501    0 -0.12125910693E+02  0.49970304435E+02  0.68280976580E+02  0.85606371248E+02  0.47000000000E+01 0. -1.
        -11    1    6    6    0    0  0.32712131062E+02 -0.17003070551E+02  0.76399301260E+02  0.84829482845E+02  0.00000000000E+00 0.  1.
         12    1    6    6    0    0  0.13824397466E+03  0.23388018447E+02  0.88226926606E+02  0.16565743725E+03  0.00000000000E+00 0. -1.
         -5    1    3    3    0  503 -0.14300288073E+03 -0.53934947424E+02 -0.26431214396E+02  0.15517571184E+03  0.47000000000E+01 0.  1.
         11    1    4    4    0    0 -0.45347925930E+02  0.27594715804E+01 -0.54827192357E+02  0.71204424662E+02  0.00000000000E+00 0. -1.
        -12    1    4    4    0    0  0.29520611625E+02 -0.51797764873E+01 -0.13596056297E+02  0.32911234282E+02  0.00000000000E+00 0.  1.
<mgrwt>
<rscale>  2 0.24205990E+03</rscale>
<asrwt>0</asrwt>
<pdfrwt beam="1">  1       21 0.56418262E-01 0.24230752E+03</pdfrwt>
<pdfrwt beam="2">  1       21 0.35179379E-01 0.24230752E+03</pdfrwt>
<totfact> 0.22409901E+04</totfact>
</mgrwt>
</event>
<event>
12    1  0.1026879E-001  0.2268769E+03  0.7546771E-02  0.1129157E+00
         21   -1    0    0  503  502  0.00000000000E+00  0.00000000000E+00  0.64355637720E+02  0.64355637720E+02  0.00000000000E+00 0. -1.
         21   -1    0    0  501  503 -0.00000000000E+00 -0.00000000000E+00 -0.90820085303E+03  0.90820085303E+03  0.00000000000E+00 0.  1.
          6    2    1    2  501    0  0.86039047119E+02 -0.11641169845E+03 -0.59303172656E+03  0.63435454759E+03  0.17252438138E+03 0.  0.
         24    2    3    3    0    0  0.73679652490E+01 -0.10010346321E+03 -0.46670969417E+03  0.48457322857E+03  0.83176228312E+02 0.  0.
         -6    2    1    2    0  502 -0.86039047119E+02  0.11641169845E+03 -0.25081348875E+03  0.33820194316E+03  0.17469615638E+03 0.  0.
        -24    2    5    5    0    0 -0.20024464719E+02  0.11164478618E+03 -0.94478785574E+02  0.16836885464E+03  0.80970938112E+02 0.  0.
          5    1    3    3  501    0  0.78671081870E+02 -0.16308235247E+02 -0.12632203240E+03  0.14978131902E+03  0.47000000000E+01 0. -1.
        -11    1    4    4    0    0  0.34788146518E+02 -0.19297246157E+02 -0.21884074770E+03  0.22242722787E+03  0.00000000000E+00 0.  1.
         12    1    4    4    0    0 -0.27420181269E+02 -0.80806217051E+02 -0.24786894647E+03  0.26214600069E+03  0.00000000000E+00 0. -1.
         -5    1    5    5    0  502 -0.66014582399E+02  0.47669122724E+01 -0.15633470318E+03  0.16983308853E+03  0.47000000000E+01 0.  1.
         11    1    6    6    0    0  0.13265233226E+02  0.10033207242E+03 -0.84437900615E+02  0.13180383238E+03  0.00000000000E+00 0. -1.
        -12    1    6    6    0    0 -0.33289697946E+02  0.11312713759E+02 -0.10040884959E+02  0.36565022257E+02  0.00000000000E+00 0.  1.
<mgrwt>
<rscale>  2 0.22645879E+03</rscale>
<asrwt>0</asrwt>
<pdfrwt beam="1">  1       21 0.99008679E-02 0.22687695E+03</pdfrwt>
<pdfrwt beam="2">  1       21 0.13972320E+00 0.22687695E+03</pdfrwt>
<totfact> 0.29109283E+04</totfact>
</mgrwt>
</event>
<event>
12    1  0.1026879E-001  0.1982654E+03  0.7546771E-02  0.1151541E+00
         21   -1    0    0  501  502  0.00000000000E+00  0.00000000000E+00  0.42723849513E+03  0.42723849513E+03  0.00000000000E+00 0. -1.
         21   -1    0    0  502  503 -0.00000000000E+00 -0.00000000000E+00 -0.13991964484E+03  0.13991964484E+03  0.00000000000E+00 0. -1.
         -6    2    1    2    0  503  0.85852705701E+02  0.36222708799E+02  0.31119884977E+03  0.36899037821E+03  0.17500400968E+03 0.  0.
        -24    2    3    3    0    0 -0.12927443074E+02  0.26238823534E+02  0.21437927458E+03  0.23023405980E+03  0.78699773064E+02 0.  0.
          6    2    1    2  501    0 -0.85852705701E+02 -0.36222708799E+02 -0.23879999471E+02  0.19816776176E+03  0.17325540603E+03 0.  0.
         24    2    5    5    0    0 -0.83926145523E+02 -0.54050861218E+02  0.38496153118E+02  0.13309527092E+03  0.79166304919E+02 0.  0.
          5    1    5    5  501    0 -0.19265601785E+01  0.17828152419E+02 -0.62376152589E+02  0.65072490844E+02  0.47000000000E+01 0. -1.
        -13    1    6    6    0    0  0.71988824904E+01  0.51069220454E+01  0.21355902774E+02  0.23107988774E+02  0.00000000000E+00 0.  1.
         14    1    6    6    0    0 -0.91125028013E+02 -0.59157783264E+02  0.17140250344E+02  0.10998728214E+03  0.00000000000E+00 0. -1.
         -5    1    3    3    0  503  0.98780148775E+02  0.99838852648E+01  0.96819575188E+02  0.13875631840E+03  0.47000000000E+01 0.  1.
         11    1    4    4    0    0 -0.31386507901E+02  0.25116508418E+02  0.47042475217E+02  0.61878480491E+02  0.00000000000E+00 0. -1.
        -12    1    4    4    0    0  0.18459064827E+02  0.11223151167E+01  0.16733679936E+03  0.16835557931E+03  0.00000000000E+00 0.  1.
<mgrwt>
<rscale>  2 0.19787885E+03</rscale>
<asrwt>0</asrwt>
<pdfrwt beam="1">  1       21 0.65728999E-01 0.19826542E+03</pdfrwt>
<pdfrwt beam="2">  1       21 0.21526099E-01 0.19826542E+03</pdfrwt>
<totfact> 0.42657154E+04</totfact>
</mgrwt>
</event>
<event>
12    1  0.1026879E-001  0.2047060E+03  0.7546771E-02  0.1146936E+00
         21   -1    0    0  503  502  0.00000000000E+00  0.00000000000E+00  0.19622898026E+03  0.19622898026E+03  0.00000000000E+00 0. -1.
         21   -1    0    0  501  503 -0.00000000000E+00 -0.00000000000E+00 -0.23596377982E+03  0.23596377982E+03  0.00000000000E+00 0. -1.
          6    2    1    2  501    0 -0.94331419167E+02  0.43816335733E+02 -0.94457590933E+02  0.22544797036E+03  0.17631296871E+03 0.  0.
         24    2    3    3    0    0 -0.77554716856E+01  0.66791906959E+02 -0.41527060138E+02  0.12129902584E+03  0.92019838998E+02 0.  0.
         -6    2    1    2    0  502  0.94331419167E+02 -0.43816335733E+02  0.54722791376E+02  0.20674478972E+03  0.17008978882E+03 0.  0.
        -24    2    5    5    0    0 -0.13456601897E+02 -0.33662070379E+02  0.44973149464E+02  0.97939862866E+02  0.79091197036E+02 0.  0.
          5    1    3    3  501    0 -0.86575947481E+02 -0.22975571226E+02 -0.52930530795E+02  0.10414894452E+03  0.47000000000E+01 0. -1.
        -13    1    4    4    0    0  0.20609017371E+02 -0.69632978624E+01  0.12952578691E+02  0.25317748890E+02  0.00000000000E+00 0.  1.
         14    1    4    4    0    0 -0.28364489056E+02  0.73755204822E+02 -0.54479638829E+02  0.95981276948E+02  0.00000000000E+00 0. -1.
         -5    1    5    5    0  502  0.10778802106E+03 -0.10154265355E+02  0.97496419120E+01  0.10880492685E+03  0.47000000000E+01 0.  1.
         13    1    6    6    0    0  0.26207627599E+02 -0.29796702761E+02  0.42297603021E+02  0.57998021182E+02  0.00000000000E+00 0. -1.
        -14    1    6    6    0    0 -0.39664229495E+02 -0.38653676180E+01  0.26755464437E+01  0.39941841683E+02  0.00000000000E+00 0.  1.
<mgrwt>
<rscale>  2 0.20335904E+03</rscale>
<asrwt>0</asrwt>
<pdfrwt beam="1">  1       21 0.30189074E-01 0.20470601E+03</pdfrwt>
<pdfrwt beam="2">  1       21 0.36302120E-01 0.20470601E+03</pdfrwt>
<totfact> 0.76628474E+04</totfact>
</mgrwt>
</event>
<event>
12    1  0.1026879E-001  0.1734310E+03  0.7546771E-02  0.1174327E+00
         21   -1    0    0  503  502  0.00000000000E+00  0.00000000000E+00  0.59049426644E+02  0.59049426644E+02  0.00000000000E+00 0. -1.
         21   -1    0    0  501  503 -0.00000000000E+00 -0.00000000000E+00 -0.62288529422E+03  0.62288529422E+03  0.00000000000E+00 0. -1.
          6    2    1    2  501    0 -0.16941291612E+01  0.30223984243E+02 -0.42758084774E+03  0.46141487185E+03  0.17076868363E+03 0.  0.
         24    2    3    3    0    0  0.23679513623E+02  0.39102666021E+02 -0.42382997785E+03  0.43386833371E+03  0.80747402547E+02 0.  0.
         -6    2    1    2    0  502  0.16941291612E+01 -0.30223984243E+02 -0.13625501983E+03  0.22051984902E+03  0.17072555193E+03 0.  0.
        -24    2    5    5    0    0 -0.64361474316E+02 -0.14502088596E+01 -0.68550094175E+02  0.12153843733E+03  0.76993336436E+02 0.  0.
          5    1    3    3  501    0 -0.25373642784E+02 -0.88786817773E+01 -0.37508698886E+01  0.27546538134E+02  0.47000000000E+01 0. -1.
        -11    1    4    4    0    0 -0.58865093948E+01  0.41146910946E+02 -0.94872351592E+02  0.10357838756E+03  0.00000000000E+00 0.  1.
         12    1    4    4    0    0  0.29566023018E+02 -0.20442449257E+01 -0.32895762626E+03  0.33028994615E+03  0.00000000000E+00 0. -1.
         -5    1    5    5    0  502  0.66055603477E+02 -0.28773775384E+02 -0.67704925659E+02  0.98981411684E+02  0.47000000000E+01 0.  1.
         13    1    6    6    0    0 -0.70714711176E+02  0.22905228467E+02 -0.44001998822E+02  0.86379371196E+02  0.00000000000E+00 0. -1.
        -14    1    6    6    0    0  0.63532368607E+01 -0.24355437327E+02 -0.24548095353E+02  0.35159066135E+02  0.00000000000E+00 0.  1.
<mgrwt>
<rscale>  2 0.17342036E+03</rscale>
<asrwt>0</asrwt>
<pdfrwt beam="1">  1       21 0.90845278E-02 0.17343097E+03</pdfrwt>
<pdfrwt beam="2">  1       21 0.95828501E-01 0.17343097E+03</pdfrwt>
<totfact> 0.87944966E+04</totfact>
</mgrwt>
</event>
<event>
12    1  0.1026879E-001  0.1925180E+03  0.7546771E-02  0.1156240E+00
         21   -1    0    0  501  502  0.00000000000E+00  0.00000000000E+00  0.79817200597E+02  0.79817200597E+02  0.00000000000E+00 0. -1.
         21   -1    0    0  502  503 -0.00000000000E+00 -0.00000000000E+00 -0.58454725157E+03  0.58454725157E+03  0.00000000000E+00 0. -1.
         -6    2    1    2    0  503  0.25794735242E+02 -0.81419877005E+02 -0.40327444579E+03  0.44687074817E+03  0.17253585774E+03 0.  0.
        -24    2    3    3    0    0 -0.28865858276E+02 -0.21061761889E+02 -0.96619272944E+02  0.12955329265E+03  0.78561670966E+02 0.  0.
          6    2    1    2  501    0 -0.25794735242E+02  0.81419877005E+02 -0.10145560518E+03  0.21749370400E+03  0.17238244318E+03 0.  0.
         24    2    5    5    0    0 -0.72242586640E+02  0.30232950708E+02 -0.27608220313E+02  0.11623645450E+03  0.81336811428E+02 0.  0.
          5    1    5    5  501    0  0.46447851398E+02  0.51186926297E+02 -0.73847384871E+02  0.10125724950E+03  0.47000000000E+01 0. -1.
        -11    1    6    6    0    0  0.11982148127E+02 -0.13432957730E+02 -0.32958565194E+01  0.18299696645E+02  0.00000000000E+00 0.  1.
         12    1    6    6    0    0 -0.84224734767E+02  0.43665908437E+02 -0.24312363794E+02  0.97936757856E+02  0.00000000000E+00 0. -1.
         -5    1    3    3    0  503  0.54660593518E+02 -0.60358115116E+02 -0.30665517285E+03  0.31731745552E+03  0.47000000000E+01 0.  1.
         13    1    4    4    0    0 -0.23123325336E+01  0.92630265873E+01  0.11040166399E+02  0.14595746553E+02  0.00000000000E+00 0. -1.
        -14    1    4    4    0    0 -0.26553525742E+02 -0.30324788476E+02 -0.10765943934E+03  0.11495754610E+03  0.00000000000E+00 0.  1.
<mgrwt>
<rscale>  2 0.19248364E+03</rscale>
<asrwt>0</asrwt>
<pdfrwt beam="1">  1       21 0.12279569E-01 0.19251802E+03</pdfrwt>
<pdfrwt beam="2">  1       21 0.89930349E-01 0.19251802E+03</pdfrwt>
<totfact> 0.59272943E+04</totfact>
</mgrwt>
</event>
<event>
12    1  0.1026879E-001  0.2934753E+03  0.7546771E-02  0.1088631E+00
         21   -1    0    0  503  502  0.00000000000E+00  0.00000000000E+00  0.29409297091E+03  0.29409297091E+03  0.00000000000E+00 0.  1.
         21   -1    0    0  501  503 -0.00000000000E+00 -0.00000000000E+00 -0.39364251193E+03  0.39364251193E+03  0.00000000000E+00 0. -1.
          6    2    1    2  501    0 -0.10187700022E+03  0.21400865872E+03 -0.22427674088E+03  0.36885525204E+03  0.17197532171E+03 0.  0.
         24    2    3    3    0    0 -0.67295602365E+02  0.51169615103E+02 -0.13940703206E+03  0.18193980410E+03  0.80751124584E+02 0.  0.
         -6    2    1    2    0  502  0.10187700022E+03 -0.21400865872E+03  0.12472719985E+03  0.31888023080E+03  0.17305807705E+03 0.  0.
        -24    2    5    5    0    0  0.87504316510E+02 -0.73726827817E+02  0.10817910868E+03  0.17681864049E+03  0.80432962913E+02 0.  0.
          5    1    3    3  501    0 -0.34581397854E+02  0.16283904362E+03 -0.84869708820E+02  0.18691544794E+03  0.47000000000E+01 0. -1.
        -11    1    4    4    0    0 -0.74427044159E+02  0.53876814223E+02 -0.79355958080E+02  0.12140619464E+03  0.00000000000E+00 0.  1.
         12    1    4    4    0    0  0.71314417937E+01 -0.27071991193E+01 -0.60051073976E+02  0.60533609464E+02  0.00000000000E+00 0. -1.
         -5    1    5    5    0  502  0.14372683709E+02 -0.14028183091E+03  0.16548091166E+02  0.14206159031E+03  0.47000000000E+01 0.  1.
         13    1    6    6    0    0  0.16458317250E+02  0.67676154389E+01 -0.72155219437E+01  0.19202619153E+02  0.00000000000E+00 0. -1.
        -14    1    6    6    0    0  0.71045999260E+02 -0.80494443256E+02  0.11539463063E+03  0.15761602134E+03  0.00000000000E+00 0.  1.
<mgrwt>
<rscale>  2 0.29331583E+03</rscale>
<asrwt>0</asrwt>
<pdfrwt beam="1">  1       21 0.45245073E-01 0.29347526E+03</pdfrwt>
<pdfrwt beam="2">  1       21 0.60560386E-01 0.29347526E+03</pdfrwt>
<totfact> 0.11251766E+04</totfact>
</mgrwt>
</event>
<event>
12    1  0.1026879E-001  0.1864280E+03  0.7546771E-02  0.1161967E+00
         21   -1    0    0  503  502  0.00000000000E+00  0.00000000000E+00  0.11899290570E+04  0.11899290570E+04  0.00000000000E+00 0.  1.
         21   -1    0    0  501  503 -0.00000000000E+00 -0.00000000000E+00 -0.68245845494E+02  0.68245845494E+02  0.00000000000E+00 0. -1.
          6    2    1    2  501    0  0.20845373923E+02 -0.66624004615E+02  0.84725496120E+02  0.20477746048E+03  0.17286442960E+03 0.  0.
         24    2    3    3    0    0 -0.46845016079E+02 -0.28210310859E+02  0.81378410096E+02  0.12673328227E+03  0.80303188202E+02 0.  0.
         -6    2    1    2    0  502 -0.20845373923E+02  0.66624004615E+02  0.10369577154E+04  0.10533974420E+04  0.17173112632E+03 0.  0.
        -24    2    5    5    0    0 -0.62288721077E+02  0.93449214199E+02  0.71711646780E+03  0.72973456718E+03  0.75125692926E+02 0.  0.
          5    1    3    3  501    0  0.67690390002E+02 -0.38413693756E+02  0.33470860233E+01  0.78044178203E+02  0.47000000000E+01 0. -1.
        -11    1    4    4    0    0 -0.47808110977E+01  0.16178472975E+02  0.59401526687E+02  0.61750631699E+02  0.00000000000E+00 0.  1.
         12    1    4    4    0    0 -0.42064204981E+02 -0.44388783835E+02  0.21976883410E+02  0.64982650573E+02  0.00000000000E+00 0. -1.
         -5    1    5    5    0  502  0.41443347154E+02 -0.26825209583E+02  0.31984124756E+03  0.32366287482E+03  0.47000000000E+01 0.  1.
         13    1    6    6    0    0 -0.36945554652E+02  0.17988061161E+02  0.11005389652E+03  0.11747512286E+03  0.00000000000E+00 0. -1.
        -14    1    6    6    0    0 -0.25343166426E+02  0.75461153038E+02  0.60706257128E+03  0.61225944432E+03  0.00000000000E+00 0.  1.
<mgrwt>
<rscale>  2 0.18616485E+03</rscale>
<asrwt>0</asrwt>
<pdfrwt beam="1">  1       21 0.18306599E+00 0.18642800E+03</pdfrwt>
<pdfrwt beam="2">  1       21 0.10499362E-01 0.18642800E+03</pdfrwt>
<totfact> 0.12976296E+04</totfact>
</mgrwt>
</event>
<event>
12    1  0.1026879E-001  0.1816553E+03  0.7546771E-02  0.1166292E+00
         21   -1    0    0  503  502  0.00000000000E+00  0.00000000000E+00  0.11390652943E+02  0.11390652943E+02  0.00000000000E+00 0. -1.
         21   -1    0    0  501  503 -0.00000000000E+00 -0.00000000000E+00 -0.28932080891E+04  0.28932080891E+04  0.00000000000E+00 0. -1.
          6    2    1    2  501    0 -0.13709023961E+02 -0.52595277772E+02 -0.14048031295E+04  0.14164556380E+04  0.17297555075E+03 0.  0.
         24    2    3    3    0    0  0.27974556473E+02 -0.41308923340E+02 -0.12942636751E+04  0.12976871083E+04  0.79902236012E+02 0.  0.
         -6    2    1    2    0  502  0.13709023961E+02  0.52595277772E+02 -0.14770143067E+04  0.14881431041E+04  0.17333330752E+03 0.  0.
        -24    2    5    5    0    0  0.67938817457E+01  0.43586199574E+02 -0.14721053507E+04  0.14749079036E+04  0.79455943978E+02 0.  0.
          5    1    3    3  501    0 -0.41683580434E+02 -0.11286354432E+02 -0.11053945444E+03  0.11876852976E+03  0.47000000000E+01 0. -1.
        -13    1    4    4    0    0  0.49798008480E+02 -0.63206560803E+01 -0.55155282893E+03  0.55383238930E+03  0.00000000000E+00 0.  1.
         14    1    4    4    0    0 -0.21823452007E+02 -0.34988267260E+02 -0.74271084616E+03  0.74385471895E+03  0.00000000000E+00 0. -1.
         -5    1    5    5    0  502  0.69151422148E+01  0.90090781978E+01 -0.49089559787E+01  0.13235200438E+02  0.47000000000E+01 0.  1.
         11    1    6    6    0    0  0.31519334728E+02  0.89020330783E+01 -0.10798587029E+04  0.10803552808E+04  0.00000000000E+00 0. -1.
        -12    1    6    6    0    0 -0.24725452982E+02  0.34684166496E+02 -0.39224664782E+03  0.39455262280E+03  0.00000000000E+00 0.  1.
<mgrwt>
<rscale>  2 0.18156987E+03</rscale>
<asrwt>0</asrwt>
<pdfrwt beam="1">  1       21 0.17524067E-02 0.18165527E+03</pdfrwt>
<pdfrwt beam="2">  1       21 0.44510930E+00 0.18165527E+03</pdfrwt>
<totfact> 0.69464334E+03</totfact>
</mgrwt>
</event>
<event>
12    1  0.1026879E-001  0.1873514E+03  0.7546771E-02  0.1160985E+00
         21   -1    0    0  501  502  0.00000000000E+00  0.00000000000E+00  0.54563249172E+02  0.54563249172E+02  0.00000000000E+00 0.  1.
         21   -1    0    0  502  503 -0.00000000000E+00 -0.00000000000E+00 -0.14099726159E+04  0.14099726159E+04  0.00000000000E+00 0.  1.
         -6    2    1    2    0  503 -0.14164702502E+01 -0.68964238566E+02 -0.12178633623E+04  0.12321150530E+04  0.17366134305E+03 0.  0.
        -24    2    3    3    0    0  0.98707984572E+01 -0.81690067029E+02 -0.47726574791E+03  0.49130720643E+03  0.82640651282E+02 0.  0.
          6    2    1    2  501    0  0.14164702502E+01  0.68964238566E+02 -0.13754600448E+03  0.23242081210E+03  0.17419086646E+03 0.  0.
         24    2    5    5    0    0 -0.41717008232E+02 -0.44894438634E+01 -0.30889611219E+02  0.95842568398E+02  0.80443557566E+02 0.  0.
          5    1    5    5  501    0  0.43133478482E+02  0.73453682430E+02 -0.10665639326E+03  0.13657824370E+03  0.47000000000E+01 0. -1.
        -13    1    6    6    0    0  0.11882695096E+02  0.17318320353E+02  0.11654526838E+02  0.24019797218E+02  0.00000000000E+00 0.  1.
         14    1    6    6    0    0 -0.53599703328E+02 -0.21807764216E+02 -0.42544138057E+02  0.71822771180E+02  0.00000000000E+00 0. -1.
         -5    1    3    3    0  503 -0.11287268707E+02  0.12725828463E+02 -0.74059761434E+03  0.74080784656E+03  0.47000000000E+01 0.  1.
         11    1    4    4    0    0 -0.97425006925E+01  0.92225415535E+00 -0.41448710888E+01  0.10627644556E+02  0.00000000000E+00 0. -1.
        -12    1    4    4    0    0  0.19613299150E+02 -0.82612321185E+02 -0.47312087682E+03  0.48067956187E+03  0.00000000000E+00 0.  1.
<mgrwt>
<rscale>  2 0.18722818E+03</rscale>
<asrwt>0</asrwt>
<pdfrwt beam="1">  1       21 0.83943457E-02 0.18735136E+03</pdfrwt>
<pdfrwt beam="2">  1       21 0.21691887E+00 0.18735136E+03</pdfrwt>
<totfact> 0.11649615E+04</totfact>
</mgrwt>
</event>
<event>
12    1  0.1026879E-001  0.1890047E+03  0.7546771E-02  0.1159547E+00
         21   -1    0    0  503  502  0.00000000000E+00  0.00000000000E+00  0.57790549924E+02  0.57790549924E+02  0.00000000000E+00 0.  1.
         21   -1    0    0  501  503 -0.00000000000E+00 -0.00000000000E+00 -0.62756511843E+03  0.62756511843E+03  0.00000000000E+00 0.  1.
          6    2    1    2  501    0 -0.30480645667E+02 -0.70604294043E+02 -0.33182605437E+03  0.38147694076E+03  0.17176172412E+03 0.  0.
         24    2    3    3    0    0  0.32554461717E+02 -0.71380845648E+02 -0.27208453912E+03  0.29449897551E+03  0.80898900126E+02 0.  0.
         -6    2    1    2    0  502  0.30480645667E+02  0.70604294043E+02 -0.23794851414E+03  0.30387872760E+03  0.17265210571E+03 0.  0.
        -24    2    5    5    0    0 -0.28778799926E+02 -0.82283580185E+01 -0.69387272824E+02  0.10852967847E+03  0.77898474164E+02 0.  0.
          5    1    3    3  501    0 -0.63035107383E+02  0.77655160469E+00 -0.59741515243E+02  0.86977965248E+02  0.47000000000E+01 0. -1.
        -11    1    4    4    0    0 -0.53696679078E+01 -0.74351871922E+02 -0.17400358778E+03  0.18929945259E+03  0.00000000000E+00 0.  1.
         12    1    4    4    0    0  0.37924129624E+02  0.29710262740E+01 -0.98080951347E+02  0.10519952292E+03  0.00000000000E+00 0. -1.
         -5    1    5    5    0  502  0.59259445592E+02  0.78832652062E+02 -0.16856124131E+03  0.19534904913E+03  0.47000000000E+01 0.  1.
         13    1    6    6    0    0 -0.48494733499E+02  0.11286284502E+02 -0.23849980571E+02  0.55208160341E+02  0.00000000000E+00 0. -1.
        -14    1    6    6    0    0  0.19715933574E+02 -0.19514642520E+02 -0.45537292253E+02  0.53321518125E+02  0.00000000000E+00 0.  1.
<mgrwt>
<rscale>  2 0.18880115E+03</rscale>
<asrwt>0</asrwt>
<pdfrwt beam="1">  1       21 0.88908537E-02 0.18900472E+03</pdfrwt>
<pdfrwt beam="2">  1       21 0.96548481E-01 0.18900472E+03</pdfrwt>
<totfact> 0.89143041E+04</totfact>
</mgrwt>
</event>
<event>
12    1  0.1026879E-001  0.1990663E+03  0.7546771E-02  0.1151278E+00
         21   -1    0    0  503  502  0.00000000000E+00  0.00000000000E+00  0.43011483904E+03  0.43011483904E+03  0.00000000000E+00 0. -1.
         21   -1    0    0  501  503 -0.00000000000E+00 -0.00000000000E+00 -0.26803290833E+03  0.26803290833E+03  0.00000000000E+00 0.  1.
          6    2    1    2  501    0  0.39974897369E+02 -0.88240932525E+02 -0.20279031587E+03  0.28416770896E+03  0.17390491659E+03 0.  0.
         24    2    3    3    0    0 -0.29903956507E+02 -0.68176632789E+01 -0.11930547254E+03  0.14813605066E+03  0.82278591265E+02 0.  0.
         -6    2    1    2    0  502 -0.39974897369E+02  0.88240932525E+02  0.36487224658E+03  0.41398003840E+03  0.16989191056E+03 0.  0.
        -24    2    5    5    0    0 -0.68431452012E+02  0.28931973459E+01  0.20926126686E+03  0.23417214533E+03  0.79718765808E+02 0.  0.
          5    1    3    3  501    0  0.69878853876E+02 -0.81423269246E+02 -0.83484843336E+02  0.13603165830E+03  0.47000000000E+01 0. -1.
        -13    1    4    4    0    0 -0.22491387561E+01  0.35023992514E+02 -0.67206710490E+02  0.75818735229E+02  0.00000000000E+00 0.  1.
         14    1    4    4    0    0 -0.27654817751E+02 -0.41841655793E+02 -0.52098762046E+02  0.72317315430E+02  0.00000000000E+00 0. -1.
         -5    1    5    5    0  502  0.28456554644E+02  0.85347735179E+02  0.15561097972E+03  0.17980789307E+03  0.47000000000E+01 0.  1.
         11    1    6    6    0    0 -0.85777204845E+02  0.91208951946E+01  0.17979395492E+03  0.19941611225E+03  0.00000000000E+00 0. -1.
        -12    1    6    6    0    0  0.17345752833E+02 -0.62276978488E+01  0.29467311946E+02  0.34756033076E+02  0.00000000000E+00 0.  1.
<mgrwt>
<rscale>  2 0.19818644E+03</rscale>
<asrwt>0</asrwt>
<pdfrwt beam="1">  1       21 0.66171514E-01 0.19906626E+03</pdfrwt>
<pdfrwt beam="2">  1       21 0.41235832E-01 0.19906626E+03</pdfrwt>
<totfact> 0.11821475E+04</totfact>
</mgrwt>
</event>
<event>
12    1  0.1026879E-001  0.2416855E+03  0.7546771E-02  0.1118806E+00
         21   -1    0    0  501  502  0.00000000000E+00  0.00000000000E+00  0.20208598073E+03  0.20208598073E+03  0.00000000000E+00 0.  1.
         21   -1    0    0  502  503 -0.00000000000E+00 -0.00000000000E+00 -0.33598270963E+03  0.33598270963E+03  0.00000000000E+00 0.  1.
         -6    2    1    2    0  503  0.95183765512E+02 -0.13931434250E+03 -0.16861221764E+03  0.29468964056E+03  0.17304181308E+03 0.  0.
        -24    2    3    3    0    0 -0.32441899752E+02 -0.70383130331E+02 -0.77314437333E+02  0.12323353209E+03  0.56592572975E+02 0.  0.
          6    2    1    2  501    0 -0.95183765512E+02  0.13931434250E+03  0.34715488742E+02  0.24337904980E+03  0.17192952475E+03 0.  0.
         24    2    5    5    0    0 -0.65293536518E+02  0.13154271870E+03  0.72243006819E+02  0.19455048706E+03  0.10518606005E+03 0.  0.
          5    1    5    5  501    0 -0.29890228994E+02  0.77716237941E+01 -0.37527518077E+02  0.48828562735E+02  0.47000000000E+01 0. -1.
        -13    1    6    6    0    0  0.47515690107E+01  0.80730077933E+02  0.71603019399E+02  0.10801349581E+03  0.00000000000E+00 0.  1.
         14    1    6    6    0    0 -0.70045105529E+02  0.50812640768E+02  0.63998741992E+00  0.86536991248E+02  0.00000000000E+00 0. -1.
         -5    1    3    3    0  503  0.12762566526E+03 -0.68931212165E+02 -0.91297780306E+02  0.17145610847E+03  0.47000000000E+01 0.  1.
         13    1    4    4    0    0 -0.35747878537E+02 -0.29828771824E+02 -0.15196103306E+02  0.48975381613E+02  0.00000000000E+00 0. -1.
        -14    1    4    4    0    0  0.33059787856E+01 -0.40554358507E+02 -0.62118334026E+02  0.74258150474E+02  0.00000000000E+00 0.  1.
<mgrwt>
<rscale>  2 0.24148652E+03</rscale>
<asrwt>0</asrwt>
<pdfrwt beam="1">  1       21 0.31090151E-01 0.24168555E+03</pdfrwt>
<pdfrwt beam="2">  1       21 0.51689647E-01 0.24168555E+03</pdfrwt>
<totfact> 0.34482909E+04</totfact>
</mgrwt>
</event>
<event>
12    1  0.1026879E-001  0.3238097E+03  0.7546771E-02  0.1073946E+00
         21   -1    0    0  503  502  0.00000000000E+00  0.00000000000E+00  0.12658660670E+03  0.12658660670E+03  0.00000000000E+00 0. -1.
         21   -1    0    0  501  503 -0.00000000000E+00 -0.00000000000E+00 -0.13906957044E+04  0.13906957044E+04  0.00000000000E+00 0.  1.
          6    2    1    2  501    0 -0.11258461332E+03  0.24914972693E+03 -0.11146538873E+04  0.11606458399E+04  0.17290053672E+03 0.  0.
         24    2    3    3    0    0 -0.15797735803E+02  0.47080330824E+02 -0.42609918466E+03  0.43653990218E+03  0.80873017875E+02 0.  0.
         -6    2    1    2    0  502  0.11258461332E+03 -0.24914972693E+03 -0.14945521044E+03  0.35663647125E+03  0.17349879283E+03 0.  0.
        -24    2    5    5    0    0  0.75216045515E+02 -0.24920679412E+03 -0.91386863026E+02  0.28742349495E+03  0.80617783256E+02 0.  0.
          5    1    3    3  501    0 -0.96786877514E+02  0.20206939610E+03 -0.68855470260E+03  0.72410593767E+03  0.47000000000E+01 0. -1.
        -11    1    4    4    0    0 -0.30659358303E+02  0.13553739587E+02 -0.61003106663E+02  0.69606602639E+02  0.00000000000E+00 0.  1.
         12    1    4    4    0    0  0.14861622500E+02  0.33526591237E+02 -0.36509607800E+03  0.36693329954E+03  0.00000000000E+00 0. -1.
         -5    1    5    5    0  502  0.37368567803E+02  0.57067197760E-01 -0.58068347416E+02  0.69212976297E+02  0.47000000000E+01 0.  1.
         11    1    6    6    0    0  0.72717109815E+02 -0.13526392387E+03 -0.25189805434E+02  0.15562337054E+03  0.00000000000E+00 0. -1.
        -12    1    6    6    0    0  0.24989356992E+01 -0.11394287025E+03 -0.66197057592E+02  0.13180012441E+03  0.00000000000E+00 0.  1.
<mgrwt>
<rscale>  2 0.32372962E+03</rscale>
<asrwt>0</asrwt>
<pdfrwt beam="1">  1       21 0.19474862E-01 0.32380969E+03</pdfrwt>
<pdfrwt beam="2">  1       21 0.21395319E+00 0.32380969E+03</pdfrwt>
<totfact> 0.23942279E+03</totfact>
</mgrwt>
</event>
<event>
12    1  0.1026879E-001  0.2120219E+03  0.7546771E-02  0.1140198E+00
         21   -1    0    0  501  502  0.00000000000E+00  0.00000000000E+00  0.18902860962E+03  0.18902860962E+03  0.00000000000E+00 0. -1.
         21   -1    0    0  502  503 -0.00000000000E+00 -0.00000000000E+00 -0.34808717579E+03  0.34808717579E+03  0.00000000000E+00 0.  1.
         -6    2    1    2    0  503 -0.89552356957E+02 -0.83175114450E+02  0.72353142983E+02  0.22402732912E+03  0.17324994255E+03 0.  0.
        -24    2    3    3    0    0 -0.27663375026E+02  0.49680653553E+01 -0.13512186037E+02  0.86207116677E+02  0.80368798691E+02 0.  0.
          6    2    1    2  501    0  0.89552356957E+02  0.83175114450E+02 -0.23141170915E+03  0.31308845628E+03  0.17185830799E+03 0.  0.
         24    2    5    5    0    0  0.63533633539E+02  0.12429887247E+03 -0.18916774305E+03  0.24847591792E+03  0.80430805580E+02 0.  0.
          5    1    5    5  501    0  0.26018723418E+02 -0.41123758021E+02 -0.42243966103E+02  0.64612538366E+02  0.47000000000E+01 0. -1.
        -11    1    6    6    0    0  0.37062420246E+02  0.28183737219E+02 -0.11545563244E+03  0.12449075909E+03  0.00000000000E+00 0.  1.
         12    1    6    6    0    0  0.26471213293E+02  0.96115135252E+02 -0.73712110611E+02  0.12398515882E+03  0.00000000000E+00 0. -1.
         -5    1    3    3    0  503 -0.61888981931E+02 -0.88143179806E+02  0.85865329020E+02  0.13782021244E+03  0.47000000000E+01 0.  1.
         13    1    4    4    0    0 -0.28928744747E+02 -0.19363225598E+02  0.23424583237E+02  0.41958525689E+02  0.00000000000E+00 0. -1.
        -14    1    4    4    0    0  0.12653697207E+01  0.24331290953E+02 -0.36936769275E+02  0.44248590988E+02  0.00000000000E+00 0.  1.
<mgrwt>
<rscale>  2 0.21173738E+03</rscale>
<asrwt>0</asrwt>
<pdfrwt beam="1">  1       21 0.29081325E-01 0.21202185E+03</pdfrwt>
<pdfrwt beam="2">  1       21 0.53551872E-01 0.21202185E+03</pdfrwt>
<totfact> 0.36984836E+04</totfact>
</mgrwt>
</event>
<event>
12    1  0.1026879E-001  0.2090378E+03  0.7546771E-02  0.1142380E+00
         21   -1    0    0  503  502  0.00000000000E+00  0.00000000000E+00  0.30248087091E+03  0.30248087091E+03  0.00000000000E+00 0.  1.
         21   -1    0    0  501  503 -0.00000000000E+00 -0.00000000000E+00 -0.66342912791E+03  0.66342912791E+03  0.00000000000E+00 0.  1.
          6    2    1    2  501    0  0.82814833020E+02 -0.82643634106E+02 -0.60767115175E+03  0.64253870168E+03  0.17292624920E+03 0.  0.
         24    2    3    3    0    0  0.33123997356E+02  0.12975811733E+02 -0.38775017656E+03  0.39759057880E+03  0.80389663776E+02 0.  0.
         -6    2    1    2    0  502 -0.82814833020E+02  0.82643634106E+02  0.24672289475E+03  0.32337129713E+03  0.17322973817E+03 0.  0.
        -24    2    5    5    0    0 -0.64988709014E+01  0.10161327269E+03  0.14302728127E+03  0.19314517258E+03  0.80503180014E+02 0.  0.
          5    1    3    3  501    0  0.49690835664E+02 -0.95619445839E+02 -0.21992097519E+03  0.24494812288E+03  0.47000000000E+01 0. -1.
        -13    1    4    4    0    0 -0.21112549511E+02 -0.10969841574E+02 -0.17934733581E+03  0.18091861163E+03  0.00000000000E+00 0.  1.
         14    1    4    4    0    0  0.54236546867E+02  0.23945653307E+02 -0.20840284075E+03  0.21667196718E+03  0.00000000000E+00 0. -1.
         -5    1    5    5    0  502 -0.76315962119E+02 -0.18969638580E+02  0.10369561348E+03  0.13022612456E+03  0.47000000000E+01 0.  1.
         13    1    6    6    0    0  0.19088849883E+02  0.12367544287E+02  0.74105635321E+02  0.77517646558E+02  0.00000000000E+00 0. -1.
        -14    1    6    6    0    0 -0.25587720784E+02  0.89245728399E+02  0.68921645950E+02  0.11562752602E+03  0.00000000000E+00 0.  1.
<mgrwt>
<rscale>  2 0.20897493E+03</rscale>
<asrwt>0</asrwt>
<pdfrwt beam="1">  1       21 0.46535519E-01 0.20903782E+03</pdfrwt>
<pdfrwt beam="2">  1       21 0.10206602E+00 0.20903782E+03</pdfrwt>
<totfact> 0.34112717E+03</totfact>
</mgrwt>
</event>
<event>
12    1  0.1026879E-001  0.2233202E+03  0.7546771E-02  0.1131551E+00
         21   -1    0    0  503  502  0.00000000000E+00  0.00000000000E+00  0.13707420219E+04  0.13707420219E+04  0.00000000000E+00 0. -1.
         21   -1    0    0  501  503 -0.00000000000E+00 -0.00000000000E+00 -0.39140417892E+02  0.39140417892E+02  0.00000000000E+00 0. -1.
          6    2    1    2  501    0 -0.93750774261E+02  0.10499652152E+03  0.47423005087E+03  0.52390395546E+03  0.17253329010E+03 0.  0.
         24    2    3    3    0    0  0.18490423804E+02  0.50068620114E+02  0.19766792096E+03  0.22038482494E+03  0.81535891433E+02 0.  0.
         -6    2    1    2    0  502  0.93750774261E+02 -0.10499652152E+03  0.85737155318E+03  0.88597848437E+03  0.17337363514E+03 0.  0.
        -24    2    5    5    0    0  0.98573275090E+02 -0.12933255762E+03  0.58286732923E+03  0.61031536001E+03  0.79416082498E+02 0.  0.
          5    1    3    3  501    0 -0.11224119807E+03  0.54927901411E+02  0.27656212991E+03  0.30351913053E+03  0.47000000000E+01 0. -1.
        -13    1    4    4    0    0  0.38455558458E+02  0.12395048477E+02  0.39250482278E+02  0.56329988124E+02  0.00000000000E+00 0.  1.
         14    1    4    4    0    0 -0.19965134654E+02  0.37673571637E+02  0.15841743869E+03  0.16405483681E+03  0.00000000000E+00 0. -1.
         -5    1    5    5    0  502 -0.48225008283E+01  0.24336036091E+02  0.27450422395E+03  0.27566312437E+03  0.47000000000E+01 0.  1.
         11    1    6    6    0    0  0.61188829797E+02 -0.18919428541E+02  0.18876850495E+03  0.19933781912E+03  0.00000000000E+00 0. -1.
        -12    1    6    6    0    0  0.37384445293E+02 -0.11041312907E+03  0.39409882427E+03  0.41097754089E+03  0.00000000000E+00 0.  1.
<mgrwt>
<rscale>  2 0.22315704E+03</rscale>
<asrwt>0</asrwt>
<pdfrwt beam="1">  1       21 0.21088335E+00 0.22332016E+03</pdfrwt>
<pdfrwt beam="2">  1       21 0.60216038E-02 0.22332016E+03</pdfrwt>
<totfact> 0.21949332E+04</totfact>
</mgrwt>
</event>
<event>
12    1  0.1026879E-001  0.3094592E+03  0.7546771E-02  0.1081317E+00
         21   -1    0    0  501  502  0.00000000000E+00  0.00000000000E+00  0.77055820684E+02  0.77055820684E+02  0.00000000000E+00 0.  1.
         21   -1    0    0  502  503 -0.00000000000E+00 -0.00000000000E+00 -0.13194693336E+04  0.13194693336E+04  0.00000000000E+00 0. -1.
         -6    2    1    2    0  503 -0.13449811422E+03  0.21430063957E+03 -0.42339932584E+03  0.52099718888E+03  0.16779920992E+03 0.  0.
        -24    2    3    3    0    0 -0.63443606755E+01  0.66300261582E+02 -0.11635509305E+03  0.15681900815E+03  0.81349357952E+02 0.  0.
          6    2    1    2  501    0  0.13449811422E+03 -0.21430063957E+03 -0.81901418711E+03  0.87552796544E+03  0.17818662334E+03 0.  0.
         24    2    5    5    0    0  0.15500056399E+03 -0.18195108235E+03 -0.56223138116E+03  0.61586213455E+03  0.77786063087E+02 0.  0.
          5    1    5    5  501    0 -0.20502449775E+02 -0.32349557219E+02 -0.25678280595E+03  0.25966583089E+03  0.47000000000E+01 0. -1.
        -11    1    6    6    0    0  0.10507145990E+03 -0.91026528553E+02 -0.24010631672E+03  0.27744708309E+03  0.00000000000E+00 0.  1.
         12    1    6    6    0    0  0.49929104098E+02 -0.90924553795E+02 -0.32212506443E+03  0.33841505146E+03  0.00000000000E+00 0. -1.
         -5    1    3    3    0  503 -0.12815375354E+03  0.14800037798E+03 -0.30704423280E+03  0.36417818074E+03  0.47000000000E+01 0.  1.
         13    1    4    4    0    0  0.29511984269E+02  0.72051259731E+01 -0.61431462494E+02  0.68532442244E+02  0.00000000000E+00 0. -1.
        -14    1    4    4    0    0 -0.35856344945E+02  0.59095135609E+02 -0.54923630555E+02  0.88286565902E+02  0.00000000000E+00 0.  1.
<mgrwt>
<rscale>  2 0.30798308E+03</rscale>
<asrwt>0</asrwt>
<pdfrwt beam="1">  1       21 0.11854743E-01 0.30945917E+03</pdfrwt>
<pdfrwt beam="2">  1       21 0.20299526E+00 0.30945917E+03</pdfrwt>
<totfact> 0.70953367E+03</totfact>
</mgrwt>
</event>
<event>
11    1  0.1026879E-001  0.2898834E+03  0.7546771E-02  0.1090666E+00
         21   -1    0    0  503  502  0.00000000000E+00  0.00000000000E+00  0.67150193793E+03  0.67150193793E+03  0.00000000000E+00 0. -1.
         21   -1    0    0  501  503 -0.00000000000E+00 -0.00000000000E+00 -0.14212565211E+03  0.14212565211E+03  0.00000000000E+00 0. -1.
          6    2    1    2  501    0  0.21447995963E+03  0.82667609996E+02  0.11982496883E+03  0.31186602430E+03  0.17339782909E+03 0.  0.
         24    2    3    3    0    0  0.56478617347E+02  0.73508805239E+02  0.81786189248E+02  0.14902454734E+03  0.83222330492E+02 0.  0.
         -6    2    1    2    0  502 -0.21447995963E+03 -0.82667609996E+02  0.40955131699E+03  0.50176156574E+03  0.17662616110E+03 0.  0.
          5    1    3    3  501    0  0.15800134228E+03  0.91588047567E+01  0.38038779582E+02  0.16284147696E+03  0.47000000000E+01 0. -1.
        -11    1    4    4    0    0  0.58265964256E+02  0.83761097562E+02  0.89774265523E+02  0.13590534502E+03  0.00000000000E+00 0.  1.
         12    1    4    4    0    0 -0.17873469088E+01 -0.10252292323E+02 -0.79880762747E+01  0.13119202316E+02  0.00000000000E+00 0. -1.
         -5    1    5    5    0  502 -0.59635672002E+02  0.15420171678E+02  0.10727899234E+03  0.12379445572E+03  0.47000000000E+01 0.  1.
         13    1    5    5    0    0 -0.14245231123E+03 -0.22117266971E+02  0.15425560988E+03  0.21113177793E+03  0.00000000000E+00 0. -1.
        -14    1    5    5    0    0 -0.12391976395E+02 -0.75970514702E+02  0.14801671477E+03  0.16683533209E+03  0.00000000000E+00 0.  1.
<mgrwt>
<rscale>  2 0.28939325E+03</rscale>
<asrwt>0</asrwt>
<pdfrwt beam="1">  1       21 0.10330799E+00 0.28988340E+03</pdfrwt>
<pdfrwt beam="2">  1       21 0.21865485E-01 0.28988340E+03</pdfrwt>
<totfact> 0.14052400E+04</totfact>
</mgrwt>
</event>
<event>
12    1  0.1026879E-001  0.1759392E+03  0.7546771E-02  0.1172034E+00
         21   -1    0    0  501  502  0.00000000000E+00  0.00000000000E+00  0.24150850031E+03  0.24150850031E+03  0.00000000000E+00 0.  1.
         21   -1    0    0  502  503 -0.00000000000E+00 -0.00000000000E+00 -0.24209744006E+03  0.24209744006E+03  0.00000000000E+00 0.  1.
         -6    2    1    2    0  503 -0.18198027220E+02 -0.13461481852E+02 -0.16667974187E+03  0.24165394560E+03  0.17349960630E+03 0.  0.
        -24    2    3    3    0    0 -0.48747378130E+02  0.14878220658E+02 -0.30985801591E+02  0.99628113417E+02  0.79799578684E+02 0.  0.
          6    2    1    2  501    0  0.18198027220E+02  0.13461481852E+02  0.16609080212E+03  0.24195199476E+03  0.17447702866E+03 0.  0.
         24    2    5    5    0    0  0.36109187818E+02 -0.48265299415E+02  0.14162436420E+03  0.17301940607E+03  0.79024311244E+02 0.  0.
          5    1    5    5  501    0 -0.17911160598E+02  0.61726781266E+02  0.24466437918E+02  0.68932588693E+02  0.47000000000E+01 0. -1.
        -13    1    6    6    0    0  0.35196421465E+02  0.13253274420E+02  0.47804497145E+02  0.60825219392E+02  0.00000000000E+00 0.  1.
         14    1    6    6    0    0  0.91276635382E+00 -0.61518573835E+02  0.93819867057E+02  0.11219418668E+03  0.00000000000E+00 0. -1.
         -5    1    3    3    0  503  0.30549350910E+02 -0.28339702510E+02 -0.13569394028E+03  0.14202583219E+03  0.47000000000E+01 0.  1.
         11    1    4    4    0    0 -0.57158555214E+02 -0.47782166295E+01  0.52050250515E+01  0.57593611400E+02  0.00000000000E+00 0. -1.
        -12    1    4    4    0    0  0.84111770834E+01  0.19656437288E+02 -0.36190826642E+02  0.42034502017E+02  0.00000000000E+00 0.  1.
<mgrwt>
<rscale>  2 0.17569642E+03</rscale>
<asrwt>0</asrwt>
<pdfrwt beam="1">  1       21 0.37155154E-01 0.17593923E+03</pdfrwt>
<pdfrwt beam="2">  1       21 0.37245760E-01 0.17593923E+03</pdfrwt>
<totfact> 0.48957933E+04</totfact>
</mgrwt>
</event>
<event>
12    1  0.1026879E-001  0.1943976E+03  0.7546771E-02  0.1154879E+00
         21   -1    0    0  501  502  0.00000000000E+00  0.00000000000E+00  0.16818298667E+03  0.16818298667E+03  0.00000000000E+00 0.  1.
         21   -1    0    0  502  503 -0.00000000000E+00 -0.00000000000E+00 -0.20221148633E+04  0.20221148633E+04  0.00000000000E+00 0.  1.
         -6    2    1    2    0  503  0.72504696007E+02 -0.45084525414E+02 -0.19603568231E+04  0.19699719004E+04  0.17464497930E+03 0.  0.
        -24    2    3    3    0    0  0.35937355008E+02 -0.56226683774E+02 -0.60521206473E+03  0.61427992783E+03  0.81272707543E+02 0.  0.
          6    2    1    2  501    0 -0.72504696007E+02  0.45084525414E+02  0.10642494648E+03  0.22032594964E+03  0.17299627013E+03 0.  0.
         24    2    5    5    0    0 -0.94607629077E+02  0.37063875326E+01  0.12309191305E+03  0.17032027277E+03  0.69950235674E+02 0.  0.
          5    1    5    5  501    0  0.22102933071E+02  0.41378137881E+02 -0.16666966571E+02  0.50005676873E+02  0.47000000000E+01 0. -1.
        -13    1    6    6    0    0 -0.39247072549E+02 -0.27738763056E+02  0.27219552736E+02  0.55232922526E+02  0.00000000000E+00 0.  1.
         14    1    6    6    0    0 -0.55360556528E+02  0.31445150589E+02  0.95872360313E+02  0.11508735025E+03  0.00000000000E+00 0. -1.
         -5    1    3    3    0  503  0.36567340999E+02  0.11142158361E+02 -0.13551447584E+04  0.13556919725E+04  0.47000000000E+01 0.  1.
         13    1    4    4    0    0  0.33273131683E+02 -0.14185735305E+02 -0.85143880789E+02  0.92508468877E+02  0.00000000000E+00 0. -1.
        -14    1    4    4    0    0  0.26642233242E+01 -0.42040948469E+02 -0.52006818394E+03  0.52177145895E+03  0.00000000000E+00 0.  1.
<mgrwt>
<rscale>  2 0.19402655E+03</rscale>
<asrwt>0</asrwt>
<pdfrwt beam="1">  1       21 0.25874305E-01 0.19439757E+03</pdfrwt>
<pdfrwt beam="2">  1       21 0.31109460E+00 0.19439757E+03</pdfrwt>
<totfact> 0.41679466E+02</totfact>
</mgrwt>
</event>
<event>
12    1  0.1026879E-001  0.1951024E+03  0.7546771E-02  0.1154383E+00
         21   -1    0    0  503  502  0.00000000000E+00  0.00000000000E+00  0.11394738412E+03  0.11394738412E+03  0.00000000000E+00 0. -1.
         21   -1    0    0  501  503 -0.00000000000E+00 -0.00000000000E+00 -0.94504379142E+03  0.94504379142E+03  0.00000000000E+00 0. -1.
          6    2    1    2  501    0 -0.82618004859E+02 -0.33127031726E+02 -0.84326183769E+03  0.86553767195E+03  0.17361393866E+03 0.  0.
         24    2    3    3    0    0 -0.45456398584E+02  0.34894226927E+02 -0.65374186024E+03  0.66072607935E+03  0.76789588210E+02 0.  0.
         -6    2    1    2    0  502  0.82618004859E+02  0.33127031726E+02  0.12165430394E+02  0.19345350359E+03  0.17132753835E+03 0.  0.
        -24    2    5    5    0    0  0.12603350957E+02  0.75215579235E+02  0.10196694165E+02  0.11160325304E+03  0.80839876934E+02 0.  0.
          5    1    3    3  501    0 -0.37161606274E+02 -0.68021258653E+02 -0.18951997744E+03  0.20481159259E+03  0.47000000000E+01 0. -1.
        -13    1    4    4    0    0 -0.26396645761E+02  0.45624524541E+02 -0.21240625541E+03  0.21884880051E+03  0.00000000000E+00 0.  1.
         14    1    4    4    0    0 -0.19059752824E+02 -0.10730297614E+02 -0.44133560483E+03  0.44187727884E+03  0.00000000000E+00 0. -1.
         -5    1    5    5    0  502  0.70014653902E+02 -0.42088547508E+02  0.19687362291E+01  0.81850250548E+02  0.47000000000E+01 0.  1.
         11    1    6    6    0    0  0.89797912248E+01 -0.15746257578E+02  0.97191612442E+01  0.20568018219E+02  0.00000000000E+00 0. -1.
        -12    1    6    6    0    0  0.36235597320E+01  0.90961836813E+02  0.47753292072E+00  0.91035234823E+02  0.00000000000E+00 0.  1.
<mgrwt>
<rscale>  2 0.19459243E+03</rscale>
<asrwt>0</asrwt>
<pdfrwt beam="1">  1       21 0.17530367E-01 0.19510237E+03</pdfrwt>
<pdfrwt beam="2">  1       21 0.14539135E+00 0.19510237E+03</pdfrwt>
<totfact> 0.95452959E+03</totfact>
</mgrwt>
</event>
<event>
12    1  0.1026879E-001  0.2294620E+03  0.7546771E-02  0.1127291E+00
         21   -1    0    0  503  502  0.00000000000E+00  0.00000000000E+00  0.12525676016E+03  0.12525676016E+03  0.00000000000E+00 0.  1.
         21   -1    0    0  501  503 -0.00000000000E+00 -0.00000000000E+00 -0.49341770687E+03  0.49341770687E+03  0.00000000000E+00 0. -1.
          6    2    1    2  501    0  0.12951609769E+03 -0.74287620906E+02 -0.30590295758E+03  0.38239954779E+03  0.17424042159E+03 0.  0.
         24    2    3    3    0    0  0.14580815546E+03 -0.17904140268E+02 -0.24379107664E+03  0.29681623289E+03  0.84173693161E+02 0.  0.
         -6    2    1    2    0  502 -0.12951609769E+03  0.74287620906E+02 -0.62257989119E+02  0.23627491923E+03  0.17221123677E+03 0.  0.
        -24    2    5    5    0    0 -0.48254219772E+02  0.91374479907E+02 -0.77376200662E+02  0.15174028803E+03  0.79751321478E+02 0.  0.
          5    1    3    3  501    0 -0.16292057777E+02 -0.56383480637E+02 -0.62111880948E+02  0.85583314906E+02  0.47000000000E+01 0. -1.
        -13    1    4    4    0    0  0.65821888205E+02 -0.39346068497E+02 -0.67980800618E+02  0.10247938000E+03  0.00000000000E+00 0.  1.
         14    1    4    4    0    0  0.79986267259E+02  0.21441928228E+02 -0.17581027602E+03  0.19433685289E+03  0.00000000000E+00 0. -1.
         -5    1    5    5    0  502 -0.81261877916E+02 -0.17086859002E+02  0.15118211543E+02  0.84534631206E+02  0.47000000000E+01 0.  1.
         11    1    6    6    0    0  0.19370268754E+02  0.84346859238E+01 -0.28182166760E+01  0.21314163917E+02  0.00000000000E+00 0. -1.
        -12    1    6    6    0    0 -0.67624488526E+02  0.82939793983E+02 -0.74557983986E+02  0.13042612411E+03  0.00000000000E+00 0.  1.
<mgrwt>
<rscale>  2 0.22907674E+03</rscale>
<asrwt>0</asrwt>
<pdfrwt beam="1">  1       21 0.19270271E-01 0.22946197E+03</pdfrwt>
<pdfrwt beam="2">  1       21 0.75910415E-01 0.22946197E+03</pdfrwt>
<totfact> 0.37581175E+04</totfact>
</mgrwt>
</event>
<event>
12    1  0.1026879E-001  0.1937978E+03  0.7546771E-02  0.1155108E+00
         21   -1    0    0  503  502  0.00000000000E+00  0.00000000000E+00  0.14037441898E+03  0.14037441898E+03  0.00000000000E+00 0. -1.
         21   -1    0    0  501  503 -0.00000000000E+00 -0.00000000000E+00 -0.26909509679E+03  0.26909509679E+03  0.00000000000E+00 0. -1.
          6    2    1    2  501    0  0.46523898007E+01 -0.86916995329E+02 -0.47963133258E+02  0.19951864462E+03  0.17300583398E+03 0.  0.
         24    2    3    3    0    0  0.37509163529E+02 -0.94469768063E+01 -0.68166537102E+02  0.11285008702E+03  0.81192873090E+02 0.  0.
         -6    2    1    2    0  502 -0.46523898007E+01  0.86916995329E+02 -0.80757544550E+02  0.20995087115E+03  0.17315131673E+03 0.  0.
        -24    2    5    5    0    0  0.10444290157E+02  0.71805480724E+02 -0.12200914800E+03  0.16325983982E+03  0.80637663913E+02 0.  0.
          5    1    3    3  501    0 -0.32856773728E+02 -0.77470018523E+02  0.20203403844E+02  0.86668557601E+02  0.47000000000E+01 0. -1.
        -13    1    4    4    0    0 -0.13315306811E+01  0.31321595516E+02 -0.36985536033E+02  0.48484484067E+02  0.00000000000E+00 0.  1.
         14    1    4    4    0    0  0.38840694210E+02 -0.40768572322E+02 -0.31181001069E+02  0.64365602953E+02  0.00000000000E+00 0. -1.
         -5    1    5    5    0  502 -0.15096679958E+02  0.15111514606E+02  0.41251603454E+02  0.46691031333E+02  0.47000000000E+01 0.  1.
         13    1    6    6    0    0  0.36509512321E+02  0.51790540900E+02 -0.40059718492E+02  0.74966563628E+02  0.00000000000E+00 0. -1.
        -14    1    6    6    0    0 -0.26065222164E+02  0.20014939824E+02 -0.81949429512E+02  0.88293276188E+02  0.00000000000E+00 0.  1.
<mgrwt>
<rscale>  2 0.19376530E+03</rscale>
<asrwt>0</asrwt>
<pdfrwt beam="1">  1       21 0.21596065E-01 0.19379780E+03</pdfrwt>
<pdfrwt beam="2">  1       21 0.41399245E-01 0.19379780E+03</pdfrwt>
<totfact> 0.11226071E+05</totfact>
</mgrwt>
</event>
<event>
12    1  0.1026879E-001  0.1875337E+03  0.7546771E-02  0.1160894E+00
         21   -1    0    0  503  502  0.00000000000E+00  0.00000000000E+00  0.28233565600E+02  0.28233565600E+02  0.00000000000E+00 0. -1.
         21   -1    0    0  501  503 -0.00000000000E+00 -0.00000000000E+00 -0.12643641536E+04  0.12643641536E+04  0.00000000000E+00 0. -1.
          6    2    1    2  501    0  0.61625191052E+02  0.36604959581E+02 -0.70612263563E+03  0.73039019068E+03  0.17240379014E+03 0.  0.
         24    2    3    3    0    0  0.51514259294E+02 -0.24162866724E+02 -0.23072937844E+03  0.25099912001E+03  0.80789536030E+02 0.  0.
         -6    2    1    2    0  502 -0.61625191052E+02 -0.36604959581E+02 -0.53000795235E+03  0.56220752851E+03  0.17329537879E+03 0.  0.
        -24    2    5    5    0    0 -0.89899484322E+02 -0.62522360521E+02 -0.30246225434E+03  0.33140397131E+03  0.79713324169E+02 0.  0.
          5    1    3    3  501    0  0.10110931758E+02  0.60767826305E+02 -0.47539325720E+03  0.47939107068E+03  0.47000000000E+01 0. -1.
        -11    1    4    4    0    0 -0.14319332930E+02 -0.20074416980E+02 -0.25680180163E+02  0.35601926434E+02  0.00000000000E+00 0.  1.
         12    1    4    4    0    0  0.65833592224E+02 -0.40884497444E+01 -0.20504919828E+03  0.21539719357E+03  0.00000000000E+00 0. -1.
         -5    1    5    5    0  502  0.28274293271E+02  0.25917400940E+02 -0.22754569801E+03  0.23080355720E+03  0.47000000000E+01 0.  1.
         13    1    6    6    0    0 -0.46218620670E+02 -0.61982375813E+02 -0.11265762392E+03  0.13663716930E+03  0.00000000000E+00 0. -1.
        -14    1    6    6    0    0 -0.43680863652E+02 -0.53998470762E+00 -0.18980463042E+03  0.19476680200E+03  0.00000000000E+00 0.  1.
<mgrwt>
<rscale>  2 0.18732743E+03</rscale>
<asrwt>0</asrwt>
<pdfrwt beam="1">  1       21 0.43436247E-02 0.18753367E+03</pdfrwt>
<pdfrwt beam="2">  1       21 0.19451760E+00 0.18753367E+03</pdfrwt>
<totfact> 0.49871706E+04</totfact>
</mgrwt>
</event>
<event>
12    1  0.1026879E-001  0.3239343E+03  0.7546771E-02  0.1073883E+00
         21   -1    0    0  501  502  0.00000000000E+00  0.00000000000E+00  0.79450825473E+03  0.79450825473E+03  0.00000000000E+00 0. -1.
         21   -1    0    0  502  503 -0.00000000000E+00 -0.00000000000E+00 -0.17289581229E+03  0.17289581229E+03  0.00000000000E+00 0.  1.
         -6    2    1    2    0  503  0.17309926148E+03  0.21252240251E+03  0.54605838807E+03  0.63477533770E+03  0.17213610973E+03 0.  0.
        -24    2    3    3    0    0  0.33689732190E+02  0.14368328987E+03  0.29826778510E+03  0.34220720340E+03  0.79763479024E+02 0.  0.
          6    2    1    2  501    0 -0.17309926148E+03 -0.21252240251E+03  0.75554054370E+02  0.33262872933E+03  0.17263930765E+03 0.  0.
         24    2    5    5    0    0 -0.25934157438E+02 -0.13407808622E+03  0.11083022167E+02  0.15377213146E+03  0.69810610276E+02 0.  0.
          5    1    5    5  501    0 -0.14716510404E+03 -0.78444316295E+02  0.64471032203E+02  0.17885659787E+03  0.47000000000E+01 0. -1.
        -13    1    6    6    0    0 -0.46431732306E+02 -0.10618670673E+03  0.20965885978E+02  0.11777559520E+03  0.00000000000E+00 0.  1.
         14    1    6    6    0    0  0.20497574868E+02 -0.27891379495E+02 -0.98828638106E+01  0.35996536259E+02  0.00000000000E+00 0. -1.
         -5    1    3    3    0  503  0.13940952929E+03  0.68839112640E+02  0.24779060298E+03  0.29256813430E+03  0.47000000000E+01 0.  1.
         13    1    4    4    0    0  0.32445573045E+02  0.14974811116E+03  0.24768849491E+03  0.29125041205E+03  0.00000000000E+00 0. -1.
        -14    1    4    4    0    0  0.12441591448E+01 -0.60648212826E+01  0.50579290184E+02  0.50956791350E+02  0.00000000000E+00 0.  1.
<mgrwt>
<rscale>  2 0.32386734E+03</rscale>
<asrwt>0</asrwt>
<pdfrwt beam="1">  1       21 0.12223204E+00 0.32393434E+03</pdfrwt>
<pdfrwt beam="2">  1       21 0.26599356E-01 0.32393434E+03</pdfrwt>
<totfact> 0.62645947E+03</totfact>
</mgrwt>
</event>
<event>
12    1  0.1026879E-001  0.2444547E+03  0.7546771E-02  0.1116902E+00
         21   -1    0    0  503  502  0.00000000000E+00  0.00000000000E+00  0.37495406894E+03  0.37495406894E+03  0.00000000000E+00 0. -1.
         21   -1    0    0  501  503 -0.00000000000E+00 -0.00000000000E+00 -0.19265924244E+03  0.19265924244E+03  0.00000000000E+00 0. -1.
          6    2    1    2  501    0  0.16109660274E+03 -0.59746777847E+02 -0.27072001022E+02  0.24594914647E+03  0.17388587215E+03 0.  0.
         24    2    3    3    0    0  0.14611709426E+03 -0.73582624662E+02  0.30392536533E+02  0.18479295784E+03  0.80374890995E+02 0.  0.
         -6    2    1    2    0  502 -0.16109660274E+03  0.59746777847E+02  0.20936682753E+03  0.32166416492E+03  0.17352686722E+03 0.  0.
        -24    2    5    5    0    0 -0.11934139483E+03  0.57850348360E+02  0.60400002149E+02  0.16687301887E+03  0.81298295440E+02 0.  0.
          5    1    3    3  501    0  0.14979508478E+02  0.13835846814E+02 -0.57464537555E+02  0.61156188630E+02  0.47000000000E+01 0. -1.
        -11    1    4    4    0    0  0.14572325668E+02 -0.45487629342E+02  0.78528649538E+01  0.48406038741E+02  0.00000000000E+00 0.  1.
         12    1    4    4    0    0  0.13154476859E+03 -0.28094995319E+02  0.22539671579E+02  0.13638691910E+03  0.00000000000E+00 0. -1.
         -5    1    5    5    0  502 -0.41755207906E+02  0.18964294877E+01  0.14896682538E+03  0.15479114605E+03  0.47000000000E+01 0.  1.
         13    1    6    6    0    0 -0.10101127618E+03  0.46705047866E+02  0.80599035166E+02  0.13740758305E+03  0.00000000000E+00 0. -1.
        -14    1    6    6    0    0 -0.18330118656E+02  0.11145300494E+02 -0.20199033017E+02  0.29465435816E+02  0.00000000000E+00 0.  1.
<mgrwt>
<rscale>  2 0.24439084E+03</rscale>
<asrwt>0</asrwt>
<pdfrwt beam="1">  1       21 0.57685241E-01 0.24445468E+03</pdfrwt>
<pdfrwt beam="2">  1       21 0.29639884E-01 0.24445468E+03</pdfrwt>
<totfact> 0.29954553E+04</totfact>
</mgrwt>
</event>
<event>
12    1  0.1026879E-001  0.1753784E+03  0.7546771E-02  0.1174043E+00
         21   -1    0    0  503  502  0.00000000000E+00  0.00000000000E+00  0.16923818360E+03  0.16923818360E+03  0.00000000000E+00 0.  1.
         21   -1    0    0  501  503 -0.00000000000E+00 -0.00000000000E+00 -0.32805537235E+03  0.32805537235E+03  0.00000000000E+00 0.  1.
          6    2    1    2  501    0  0.24245032096E+02  0.26735501139E+02 -0.24844270765E+03  0.30034098020E+03  0.16485847506E+03 0.  0.
         24    2    3    3    0    0  0.34896722655E+02  0.20546144954E+02 -0.59149349561E+02  0.11058895239E+03  0.84210127134E+02 0.  0.
         -6    2    1    2    0  502 -0.24245032096E+02 -0.26735501139E+02  0.89625518902E+02  0.19695257575E+03  0.17162451705E+03 0.  0.
        -24    2    5    5    0    0 -0.13817844606E+02 -0.85949643352E+02  0.72876769314E+02  0.13436143029E+03  0.71858864602E+02 0.  0.
          5    1    3    3  501    0 -0.10651690559E+02  0.61893561844E+01 -0.18929335809E+03  0.18975202781E+03  0.47000000000E+01 0. -1.
        -13    1    4    4    0    0  0.56935239457E+02  0.35005534735E+02 -0.45973978274E+02  0.81120993784E+02  0.00000000000E+00 0.  1.
         14    1    4    4    0    0 -0.22038516802E+02 -0.14459389780E+02 -0.13175371287E+02  0.29467958603E+02  0.00000000000E+00 0. -1.
         -5    1    5    5    0  502 -0.10427187490E+02  0.59214142213E+02  0.16748749588E+02  0.62591145458E+02  0.47000000000E+01 0.  1.
         13    1    6    6    0    0  0.14518603792E+02 -0.62268994453E+02  0.73510966131E+02  0.97427304529E+02  0.00000000000E+00 0. -1.
        -14    1    6    6    0    0 -0.28336448399E+02 -0.23680648899E+02 -0.63419681679E+00  0.36934125761E+02  0.00000000000E+00 0.  1.
<mgrwt>
<rscale>  2 0.17370061E+03</rscale>
<asrwt>0</asrwt>
<pdfrwt beam="1">  1       21 0.26036644E-01 0.17537840E+03</pdfrwt>
<pdfrwt beam="2">  1       21 0.50470056E-01 0.17537840E+03</pdfrwt>
<totfact> 0.52792443E+04</totfact>
</mgrwt>
</event>
<event>
12    1  0.1026879E-001  0.1911976E+03  0.7546771E-02  0.1157589E+00
         21   -1    0    0  501  502  0.00000000000E+00  0.00000000000E+00  0.87819254082E+02  0.87819254082E+02  0.00000000000E+00 0.  1.
         21   -1    0    0  502  503 -0.00000000000E+00 -0.00000000000E+00 -0.52900753842E+03  0.52900753842E+03  0.00000000000E+00 0.  1.
         -6    2    1    2    0  503 -0.54773467180E+02  0.57246642295E+02 -0.36379751396E+03  0.41056033285E+03  0.17301400229E+03 0.  0.
        -24    2    3    3    0    0  0.12665534425E+01  0.18650749223E+02 -0.31656096937E+03  0.32759342368E+03  0.82201881392E+02 0.  0.
          6    2    1    2  501    0  0.54773467180E+02 -0.57246642295E+02 -0.77390770377E+02  0.20626645965E+03  0.17400922468E+03 0.  0.
         24    2    5    5    0    0  0.63870176855E+01 -0.21729699779E+02  0.23232011195E+02  0.89007191902E+02  0.82882929598E+02 0.  0.
          5    1    5    5  501    0  0.48386449495E+02 -0.35516942516E+02 -0.10062278157E+03  0.11725926774E+03  0.47000000000E+01 0. -1.
        -11    1    6    6    0    0  0.40144341056E+02 -0.24350167269E+02 -0.16624464134E+01  0.46981512246E+02  0.00000000000E+00 0.  1.
         12    1    6    6    0    0 -0.33757323370E+02  0.26204674904E+01  0.24894457608E+02  0.42025679657E+02  0.00000000000E+00 0. -1.
         -5    1    3    3    0  503 -0.56040020623E+02  0.38595893072E+02 -0.47236544585E+02  0.82966909173E+02  0.47000000000E+01 0.  1.
         11    1    4    4    0    0  0.19549225873E+02 -0.27924041935E+02 -0.11792533468E+03  0.12275304033E+03  0.00000000000E+00 0. -1.
        -12    1    4    4    0    0 -0.18282672430E+02  0.46574791157E+02 -0.19863563469E+03  0.20484038335E+03  0.00000000000E+00 0.  1.
<mgrwt>
<rscale>  2 0.19097087E+03</rscale>
<asrwt>0</asrwt>
<pdfrwt beam="1">  1       21 0.13510654E-01 0.19119760E+03</pdfrwt>
<pdfrwt beam="2">  1       21 0.81385777E-01 0.19119760E+03</pdfrwt>
<totfact> 0.62774794E+04</totfact>
</mgrwt>
</event>
<event>
12    1  0.1026879E-001  0.2034840E+03  0.7546771E-02  0.1146994E+00
         21   -1    0    0  503  502  0.00000000000E+00  0.00000000000E+00  0.39776635019E+03  0.39776635019E+03  0.00000000000E+00 0. -1.
         21   -1    0    0  501  503 -0.00000000000E+00 -0.00000000000E+00 -0.16906324530E+03  0.16906324530E+03  0.00000000000E+00 0. -1.
          6    2    1    2  501    0 -0.10155717436E+03 -0.34652258337E+02 -0.62014274972E+02  0.21197422989E+03  0.17196704674E+03 0.  0.
         24    2    3    3    0    0  0.73416295003E+01  0.42106391862E+00 -0.50327561181E+02  0.96875330264E+02  0.82449314011E+02 0.  0.
         -6    2    1    2    0  502  0.10155717436E+03  0.34652258337E+02  0.29071737986E+03  0.35485536560E+03  0.17289041867E+03 0.  0.
        -24    2    5    5    0    0  0.95881702482E+02 -0.24739236914E+02  0.25309177529E+03  0.28416352159E+03  0.82994756291E+02 0.  0.
          5    1    3    3  501    0 -0.10889880386E+03 -0.35073322256E+02 -0.11686713791E+02  0.11509889962E+03  0.47000000000E+01 0. -1.
        -13    1    4    4    0    0 -0.19776277008E+02 -0.13339909322E+02  0.12605277476E+02  0.26980499129E+02  0.00000000000E+00 0.  1.
         14    1    4    4    0    0  0.27117906508E+02  0.13760973241E+02 -0.62932838657E+02  0.69894831135E+02  0.00000000000E+00 0. -1.
         -5    1    5    5    0  502  0.56754718748E+01  0.59391495252E+02  0.37625604573E+02  0.70691844004E+02  0.47000000000E+01 0.  1.
         11    1    6    6    0    0  0.65556128148E+02 -0.54999980561E+02  0.15333782338E+03  0.17559923655E+03  0.00000000000E+00 0. -1.
        -12    1    6    6    0    0  0.30325574334E+02  0.30260743647E+02  0.99753951911E+02  0.10856428504E+03  0.00000000000E+00 0.  1.
<mgrwt>
<rscale>  2 0.20328772E+03</rscale>
<asrwt>0</asrwt>
<pdfrwt beam="1">  1       21 0.61194823E-01 0.20348399E+03</pdfrwt>
<pdfrwt beam="2">  1       21 0.26009730E-01 0.20348399E+03</pdfrwt>
<totfact> 0.34672629E+04</totfact>
</mgrwt>
</event>
<event>
12    1  0.1026879E-001  0.1942642E+03  0.7546771E-02  0.1154673E+00
         21   -1    0    0  501  502  0.00000000000E+00  0.00000000000E+00  0.14119342429E+03  0.14119342429E+03  0.00000000000E+00 0.  1.
         21   -1    0    0  502  503 -0.00000000000E+00 -0.00000000000E+00 -0.47865350670E+03  0.47865350670E+03  0.00000000000E+00 0.  1.
         -6    2    1    2    0  503  0.85462634984E+01  0.88006386614E+02 -0.37468742489E+03  0.42204789624E+03  0.17296126053E+03 0.  0.
        -24    2    3    3    0    0  0.70452367763E+02  0.54801323387E+02 -0.19660953126E+03  0.23055698740E+03  0.80836226324E+02 0.  0.
          6    2    1    2  501    0 -0.85462634984E+01 -0.88006386614E+02  0.37227342490E+02  0.19779903475E+03  0.17297520173E+03 0.  0.
         24    2    5    5    0    0 -0.47873310799E+02 -0.11228389397E+03  0.42095025976E+02  0.15108931033E+03  0.78463123515E+02 0.  0.
          5    1    5    5  501    0  0.39327047300E+02  0.24277507358E+02 -0.48676834863E+01  0.46709724420E+02  0.47000000000E+01 0. -1.
        -13    1    6    6    0    0  0.74437419003E+01 -0.89244247997E+01  0.31269653107E+02  0.33359344372E+02  0.00000000000E+00 0.  1.
         14    1    6    6    0    0 -0.55317052699E+02 -0.10335946917E+03  0.10825372869E+02  0.11772996596E+03  0.00000000000E+00 0. -1.
         -5    1    3    3    0  503 -0.61906104264E+02  0.33205063226E+02 -0.17807789363E+03  0.19149090884E+03  0.47000000000E+01 0.  1.
         13    1    4    4    0    0  0.17529274250E+02  0.11713368188E+02  0.13878292168E+01  0.21128287199E+02  0.00000000000E+00 0. -1.
        -14    1    4    4    0    0  0.52923093513E+02  0.43087955200E+02 -0.19799736048E+03  0.20942870020E+03  0.00000000000E+00 0.  1.
<mgrwt>
<rscale>  2 0.19426111E+03</rscale>
<asrwt>0</asrwt>
<pdfrwt beam="1">  1       21 0.21722065E-01 0.19426421E+03</pdfrwt>
<pdfrwt beam="2">  1       21 0.73639001E-01 0.19426421E+03</pdfrwt>
<totfact> 0.32716920E+04</totfact>
</mgrwt>
</event>
<event>
12    1  0.1026879E-001  0.1868380E+03  0.7546771E-02  0.1161514E+00
         21   -1    0    0  503  502  0.00000000000E+00  0.00000000000E+00  0.14347035783E+03  0.14347035783E+03  0.00000000000E+00 0. -1.
         21   -1    0    0  501  503 -0.00000000000E+00 -0.00000000000E+00 -0.30673202334E+03  0.30673202334E+03  0.00000000000E+00 0. -1.
          6    2    1    2  501    0  0.42659356634E+02  0.52943714720E+02 -0.18462556725E+03  0.26214696287E+03  0.17323848424E+03 0.  0.
         24    2    3    3    0    0  0.24650562659E+02 -0.24150409716E+02 -0.15490271687E+03  0.17745128105E+03  0.79392776278E+02 0.  0.
         -6    2    1    2    0  502 -0.42659356634E+02 -0.52943714720E+02  0.21363901737E+02  0.18805541831E+03  0.17402748754E+03 0.  0.
        -24    2    5    5    0    0 -0.51174628351E+02 -0.23172621148E+02  0.76748214631E+02  0.12442885169E+03  0.80227412560E+02 0.  0.
          5    1    3    3  501    0  0.18008793975E+02  0.77094124436E+02 -0.29722850376E+02  0.84695681811E+02  0.47000000000E+01 0. -1.
        -11    1    4    4    0    0 -0.27223213766E+02 -0.21342772943E+02 -0.59770231885E+02  0.69058655824E+02  0.00000000000E+00 0.  1.
         12    1    4    4    0    0  0.51873776425E+02 -0.28076367731E+01 -0.95132484986E+02  0.10839262523E+03  0.00000000000E+00 0. -1.
         -5    1    5    5    0  502  0.85152717171E+01 -0.29771093572E+02 -0.55384312893E+02  0.63626566618E+02  0.47000000000E+01 0.  1.
         13    1    6    6    0    0 -0.44438124705E+02  0.59430852110E+01  0.30913238813E+01  0.44940221100E+02  0.00000000000E+00 0. -1.
        -14    1    6    6    0    0 -0.67365036456E+01 -0.29115706359E+02  0.73656890749E+02  0.79488630590E+02  0.00000000000E+00 0.  1.
<mgrwt>
<rscale>  2 0.18665402E+03</rscale>
<asrwt>0</asrwt>
<pdfrwt beam="1">  1       21 0.22072363E-01 0.18683796E+03</pdfrwt>
<pdfrwt beam="2">  1       21 0.47189541E-01 0.18683796E+03</pdfrwt>
<totfact> 0.82621492E+04</totfact>
</mgrwt>
</event>
<event>
12    1  0.1026879E-001  0.1758234E+03  0.7546771E-02  0.1171987E+00
         21   -1    0    0  503  502  0.00000000000E+00  0.00000000000E+00  0.46331263453E+03  0.46331263453E+03  0.00000000000E+00 0.  1.
         21   -1    0    0  501  503 -0.00000000000E+00 -0.00000000000E+00 -0.92007700417E+02  0.92007700417E+02  0.00000000000E+00 0.  1.
          6    2    1    2  501    0 -0.22095217779E+01 -0.28109126161E+02  0.39873504970E+02  0.18028799250E+03  0.17354785761E+03 0.  0.
         24    2    3    3    0    0  0.17686777902E+02  0.49265936989E+02  0.57687729697E+01  0.93293820948E+02  0.77009763184E+02 0.  0.
         -6    2    1    2    0  502  0.22095217779E+01  0.28109126161E+02  0.33143142914E+03  0.37503234245E+03  0.17322661660E+03 0.  0.
        -24    2    5    5    0    0 -0.71539183130E+01  0.66976111529E+02  0.31514492665E+03  0.33160819335E+03  0.78170909141E+02 0.  0.
          5    1    3    3  501    0 -0.19896299679E+02 -0.77375063150E+02  0.34104732000E+02  0.86994171547E+02  0.47000000000E+01 0. -1.
        -13    1    4    4    0    0 -0.19201497931E+02 -0.65795402720E+01 -0.12599731639E+02  0.23890188580E+02  0.00000000000E+00 0.  1.
         14    1    4    4    0    0  0.36888275833E+02  0.55845477261E+02  0.18368504609E+02  0.69403632369E+02  0.00000000000E+00 0. -1.
         -5    1    5    5    0  502  0.93634400910E+01 -0.38866985368E+02  0.16286502485E+02  0.43424149101E+02  0.47000000000E+01 0.  1.
         11    1    6    6    0    0  0.86612923108E+01 -0.16156261434E+02  0.65098549667E+02  0.67630347750E+02  0.00000000000E+00 0. -1.
        -12    1    6    6    0    0 -0.15815210624E+02  0.83132372963E+02  0.25004637699E+03  0.26397784560E+03  0.00000000000E+00 0.  1.
<mgrwt>
<rscale>  2 0.17574407E+03</rscale>
<asrwt>0</asrwt>
<pdfrwt beam="1">  1       21 0.71278866E-01 0.17582339E+03</pdfrwt>
<pdfrwt beam="2">  1       21 0.14155031E-01 0.17582339E+03</pdfrwt>
<totfact> 0.78151043E+04</totfact>
</mgrwt>
</event>
<event>
12    1  0.1026879E-001  0.1981901E+03  0.7546771E-02  0.1151858E+00
         21   -1    0    0  501  502  0.00000000000E+00  0.00000000000E+00  0.29450684551E+03  0.29450684551E+03  0.00000000000E+00 0. -1.
         21   -1    0    0  502  503 -0.00000000000E+00 -0.00000000000E+00 -0.17866564995E+03  0.17866564995E+03  0.00000000000E+00 0. -1.
         -6    2    1    2    0  503 -0.54082571985E+02  0.76426842024E+02 -0.63270095918E+02  0.20804423183E+03  0.17468059590E+03 0.  0.
        -24    2    3    3    0    0  0.58838711389E+01  0.97295923759E+02 -0.69822346371E+02  0.14404020961E+03  0.79820456104E+02 0.  0.
          6    2    1    2  501    0  0.54082571985E+02 -0.76426842024E+02  0.17911129148E+03  0.26512826364E+03  0.17159881897E+03 0.  0.
         24    2    5    5    0    0 -0.34784614079E+02 -0.61444436933E+02  0.11724644201E+03  0.15571528991E+03  0.74263955863E+02 0.  0.
          5    1    5    5  501    0  0.88867186064E+02 -0.14982405091E+02  0.61864849470E+02  0.10941297373E+03  0.47000000000E+01 0. -1.
        -11    1    6    6    0    0 -0.32114701742E+02 -0.22954370344E+02  0.85715405641E+01  0.40394659220E+02  0.00000000000E+00 0.  1.
         12    1    6    6    0    0 -0.26699123370E+01 -0.38490066589E+02  0.10867490145E+03  0.11532063069E+03  0.00000000000E+00 0. -1.
         -5    1    3    3    0  503 -0.59966443124E+02 -0.20869081735E+02  0.65522504525E+01  0.64004022213E+02  0.47000000000E+01 0.  1.
         13    1    4    4    0    0 -0.22866654001E+02  0.11068253616E+02 -0.41817282721E+02  0.48929288136E+02  0.00000000000E+00 0. -1.
        -14    1    4    4    0    0  0.28750525140E+02  0.86227670143E+02 -0.28005063649E+02  0.95110921477E+02  0.00000000000E+00 0.  1.
<mgrwt>
<rscale>  2 0.19750885E+03</rscale>
<asrwt>0</asrwt>
<pdfrwt beam="1">  1       21 0.45308746E-01 0.19819005E+03</pdfrwt>
<pdfrwt beam="2">  1       21 0.27487023E-01 0.19819005E+03</pdfrwt>
<totfact> 0.58846213E+04</totfact>
</mgrwt>
</event>
<event>
12    1  0.1026879E-001  0.2156882E+03  0.7546771E-02  0.1137182E+00
         21   -1    0    0  501  502  0.00000000000E+00  0.00000000000E+00  0.48618722642E+03  0.48618722642E+03  0.00000000000E+00 0. -1.
         21   -1    0    0  502  503 -0.00000000000E+00 -0.00000000000E+00 -0.10637630024E+03  0.10637630024E+03  0.00000000000E+00 0.  1.
         -6    2    1    2    0  503 -0.12054931596E+03  0.43858297601E+02  0.28417786068E+03  0.35662484466E+03  0.17311422668E+03 0.  0.
        -24    2    3    3    0    0 -0.65044575227E+02 -0.30943620271E+02  0.20515806762E+03  0.23438605844E+03  0.87513926201E+02 0.  0.
          6    2    1    2  501    0  0.12054931596E+03 -0.43858297601E+02  0.95633065504E+02  0.23593868200E+03  0.17339460949E+03 0.  0.
         24    2    5    5    0    0  0.77216528520E+02  0.11944470237E+02 -0.66760130336E+01  0.11151634913E+03  0.79285965519E+02 0.  0.
          5    1    5    5  501    0  0.43332787439E+02 -0.55802767838E+02  0.10230907854E+03  0.12442233287E+03  0.47000000000E+01 0. -1.
        -13    1    6    6    0    0  0.65946132615E+02  0.41872687488E+02  0.27847624636E+01  0.78166292392E+02  0.00000000000E+00 0.  1.
         14    1    6    6    0    0  0.11270395905E+02 -0.29928217251E+02 -0.94607754972E+01  0.33350056742E+02  0.00000000000E+00 0. -1.
         -5    1    3    3    0  503 -0.55504740731E+02  0.74801917872E+02  0.79019793059E+02  0.12223878622E+03  0.47000000000E+01 0.  1.
         11    1    4    4    0    0  0.86101373610E+01 -0.36425390314E+02  0.91254426369E+02  0.98632215107E+02  0.00000000000E+00 0. -1.
        -12    1    4    4    0    0 -0.73654712588E+02  0.54817700434E+01  0.11390364125E+03  0.13575384333E+03  0.00000000000E+00 0.  1.
<mgrwt>
<rscale>  2 0.21563179E+03</rscale>
<asrwt>0</asrwt>
<pdfrwt beam="1">  1       21 0.74798033E-01 0.21568815E+03</pdfrwt>
<pdfrwt beam="2">  1       21 0.16365585E-01 0.21568815E+03</pdfrwt>
<totfact> 0.52922009E+04</totfact>
</mgrwt>
</event>
<event>
12    1  0.1026879E-001  0.2160745E+03  0.7546771E-02  0.1137334E+00
         21   -1    0    0  501  502  0.00000000000E+00  0.00000000000E+00  0.64446283397E+02  0.64446283397E+02  0.00000000000E+00 0.  1.
         21   -1    0    0  502  503 -0.00000000000E+00 -0.00000000000E+00 -0.79682109658E+03  0.79682109658E+03  0.00000000000E+00 0.  1.
         -6    2    1    2    0  503  0.11505635607E+03 -0.44027810045E+02 -0.50535342011E+03  0.54960921103E+03  0.17751561201E+03 0.  0.
        -24    2    3    3    0    0  0.18819250879E+01 -0.12899264951E+02 -0.10688515574E+03  0.13418594994E+03  0.80071842523E+02 0.  0.
          6    2    1    2  501    0 -0.11505635607E+03  0.44027810045E+02 -0.22702139307E+03  0.31165816895E+03  0.17440094102E+03 0.  0.
         24    2    5    5    0    0 -0.19182286709E+02  0.73155676381E+02 -0.89486796136E+02  0.14142854424E+03  0.79211320735E+02 0.  0.
          5    1    5    5  501    0 -0.95874069360E+02 -0.29127866337E+02 -0.13753459694E+03  0.17022962471E+03  0.47000000000E+01 0. -1.
        -11    1    6    6    0    0 -0.38381833467E+02  0.17225863423E+02 -0.64997690910E+02  0.77424772099E+02  0.00000000000E+00 0.  1.
         12    1    6    6    0    0  0.19199546758E+02  0.55929812959E+02 -0.24489105226E+02  0.64003772139E+02  0.00000000000E+00 0. -1.
         -5    1    3    3    0  503  0.11317443098E+03 -0.31128545094E+02 -0.39846826437E+03  0.41542326110E+03  0.47000000000E+01 0.  1.
         13    1    4    4    0    0  0.17964387183E+02 -0.37389406198E+02 -0.92859082868E+02  0.10170298016E+03  0.00000000000E+00 0. -1.
        -14    1    4    4    0    0 -0.16082462095E+02  0.24490141247E+02 -0.14026072872E+02  0.32482969777E+02  0.00000000000E+00 0.  1.
<mgrwt>
<rscale>  2 0.21543383E+03</rscale>
<asrwt>0</asrwt>
<pdfrwt beam="1">  1       21 0.99148130E-02 0.21607454E+03</pdfrwt>
<pdfrwt beam="2">  1       21 0.12258786E+00 0.21607454E+03</pdfrwt>
<totfact> 0.40733310E+04</totfact>
</mgrwt>
</event>
<event>
12    1  0.1026879E-001  0.3365462E+03  0.7546771E-02  0.1068311E+00
         21   -1    0    0  503  502  0.00000000000E+00  0.00000000000E+00  0.15367054548E+03  0.15367054548E+03  0.00000000000E+00 0.  1.
         21   -1    0    0  501  503 -0.00000000000E+00 -0.00000000000E+00 -0.12224205748E+04  0.12224205748E+04  0.00000000000E+00 0. -1.
          6    2    1    2  501    0 -0.93753949506E+02 -0.27298440500E+03 -0.96839538005E+03  0.10252087457E+04  0.17306955725E+03 0.  0.
         24    2    3    3    0    0 -0.59886098761E+01 -0.21106934277E+03 -0.58269132262E+03  0.62480152832E+03  0.79130534172E+02 0.  0.
         -6    2    1    2    0  502  0.93753949506E+02  0.27298440500E+03 -0.10035464927E+03  0.35088237463E+03  0.17244447447E+03 0.  0.
        -24    2    5    5    0    0 -0.21953681036E+01  0.25339463519E+02 -0.13673106096E+02  0.71472159146E+02  0.65378954184E+02 0.  0.
          5    1    3    3  501    0 -0.87765339630E+02 -0.61915062233E+02 -0.38570405743E+03  0.40040721733E+03  0.47000000000E+01 0. -1.
        -13    1    4    4    0    0 -0.88339888136E+01 -0.11498984428E+02 -0.82707219299E+01  0.16693437108E+02  0.00000000000E+00 0.  1.
         14    1    4    4    0    0  0.28453789375E+01 -0.19957035834E+03 -0.57442060069E+03  0.60810809122E+03  0.00000000000E+00 0. -1.
         -5    1    5    5    0  502  0.95949317610E+02  0.24764494148E+03 -0.86681543179E+02  0.27941021549E+03  0.47000000000E+01 0.  1.
         11    1    6    6    0    0  0.10902534348E+02  0.12007225073E+02 -0.37695056990E+02  0.41036033320E+02  0.00000000000E+00 0. -1.
        -12    1    6    6    0    0 -0.13097902451E+02  0.13332238446E+02  0.24021950894E+02  0.30436125827E+02  0.00000000000E+00 0.  1.
<mgrwt>
<rscale>  2 0.33646594E+03</rscale>
<asrwt>0</asrwt>
<pdfrwt beam="1">  1       21 0.23641622E-01 0.33654622E+03</pdfrwt>
<pdfrwt beam="2">  1       21 0.18806470E+00 0.33654622E+03</pdfrwt>
<totfact> 0.24304457E+03</totfact>
</mgrwt>
</event>
<event>
12    1  0.1026879E-001  0.2070829E+03  0.7546771E-02  0.1144219E+00
         21   -1    0    0  501  502  0.00000000000E+00  0.00000000000E+00  0.47045414446E+03  0.47045414446E+03  0.00000000000E+00 0. -1.
         21   -1    0    0  502  503 -0.00000000000E+00 -0.00000000000E+00 -0.17375040818E+03  0.17375040818E+03  0.00000000000E+00 0.  1.
         -6    2    1    2    0  503 -0.11664942114E+03  0.21008527878E+01 -0.74368580174E+02  0.22003188200E+03  0.17109015852E+03 0.  0.
        -24    2    3    3    0    0 -0.14568683540E+03 -0.19346280646E+02 -0.45726775264E+02  0.17371132557E+03  0.80534179521E+02 0.  0.
          6    2    1    2  501    0  0.11664942114E+03 -0.21008527878E+01  0.37107231645E+03  0.42417267064E+03  0.16916349916E+03 0.  0.
         24    2    5    5    0    0  0.31377676962E+02  0.54424938350E+02  0.17091329350E+03  0.19933459583E+03  0.81094356596E+02 0.  0.
          5    1    5    5  501    0  0.85271744180E+02 -0.56525791138E+02  0.20015902295E+03  0.22483807482E+03  0.47000000000E+01 0. -1.
        -11    1    6    6    0    0  0.41361650433E+02  0.68277709785E+02  0.10897637223E+03  0.13508694047E+03  0.00000000000E+00 0.  1.
         12    1    6    6    0    0 -0.99839734715E+01 -0.13852771435E+02  0.61936921269E+02  0.64247655358E+02  0.00000000000E+00 0. -1.
         -5    1    3    3    0  503  0.29037414259E+02  0.21447133434E+02 -0.28641804910E+02  0.46320556429E+02  0.47000000000E+01 0.  1.
         13    1    4    4    0    0 -0.62719051246E+02  0.23028921322E+02  0.61206273794E+01  0.67093015180E+02  0.00000000000E+00 0. -1.
        -14    1    4    4    0    0 -0.82967784155E+02 -0.42375201968E+02 -0.51847402643E+02  0.10661831039E+03  0.00000000000E+00 0.  1.
<mgrwt>
<rscale>  2 0.20668456E+03</rscale>
<asrwt>0</asrwt>
<pdfrwt beam="1">  1       21 0.72377560E-01 0.20708294E+03</pdfrwt>
<pdfrwt beam="2">  1       21 0.26730832E-01 0.20708294E+03</pdfrwt>
<totfact> 0.22736157E+04</totfact>
</mgrwt>
</event>
<event>
12    1  0.1026879E-001  0.1896764E+03  0.7546771E-02  0.1159221E+00
         21   -1    0    0  501  502  0.00000000000E+00  0.00000000000E+00  0.11094604563E+04  0.11094604563E+04  0.00000000000E+00 0.  1.
         21   -1    0    0  502  503 -0.00000000000E+00 -0.00000000000E+00 -0.46635301574E+02  0.46635301574E+02  0.00000000000E+00 0.  1.
         -6    2    1    2    0  503  0.62150284024E+02  0.46341927572E+02  0.20645924746E+03  0.27897564822E+03  0.17085596093E+03 0.  0.
        -24    2    3    3    0    0  0.30866700495E+02 -0.32317184389E+02  0.61119170065E+02  0.11071470032E+03  0.80777709247E+02 0.  0.
          6    2    1    2  501    0 -0.62150284024E+02 -0.46341927572E+02  0.85636590728E+03  0.87712010967E+03  0.17310946701E+03 0.  0.
         24    2    5    5    0    0 -0.12412543380E+02 -0.69677892351E+02  0.31153062754E+03  0.32950164564E+03  0.80690288537E+02 0.  0.
          5    1    5    5  501    0 -0.49737740644E+02  0.23335964778E+02  0.54483527974E+03  0.54761846403E+03  0.47000000000E+01 0. -1.
        -13    1    6    6    0    0 -0.37116807156E+02 -0.69947964920E+02  0.19664692943E+03  0.21199148573E+03  0.00000000000E+00 0.  1.
         14    1    6    6    0    0  0.24704263776E+02  0.27007256967E+00  0.11488369812E+03  0.11751015990E+03  0.00000000000E+00 0. -1.
         -5    1    3    3    0  503  0.31283583529E+02  0.78659111961E+02  0.14534007739E+03  0.16826094790E+03  0.47000000000E+01 0.  1.
         13    1    4    4    0    0 -0.60043281650E+01 -0.49412423632E+01 -0.17790053981E+02  0.19415299469E+02  0.00000000000E+00 0. -1.
        -14    1    4    4    0    0  0.36871028660E+02 -0.27375942026E+02  0.78909224046E+02  0.91299400851E+02  0.00000000000E+00 0.  1.
<mgrwt>
<rscale>  2 0.18916065E+03</rscale>
<asrwt>0</asrwt>
<pdfrwt beam="1">  1       21 0.17068620E+00 0.18967635E+03</pdfrwt>
<pdfrwt beam="2">  1       21 0.71746626E-02 0.18967635E+03</pdfrwt>
<totfact> 0.30649642E+04</totfact>
</mgrwt>
</event>
<event>
12    1  0.1026879E-001  0.1824510E+03  0.7546771E-02  0.1165640E+00
         21   -1    0    0  503  502  0.00000000000E+00  0.00000000000E+00  0.29757924681E+04  0.29757924681E+04  0.00000000000E+00 0. -1.
         21   -1    0    0  501  503 -0.00000000000E+00 -0.00000000000E+00 -0.12833219257E+02  0.12833219257E+02  0.00000000000E+00 0. -1.
          6    2    1    2  501    0 -0.38261812747E+02 -0.42598093991E+02  0.93559696507E+03  0.95307018338E+03  0.17240223165E+03 0.  0.
         24    2    3    3    0    0 -0.99216289449E+01 -0.59144546047E+02  0.89540273045E+03  0.90096819119E+03  0.80006973402E+02 0.  0.
         -6    2    1    2    0  502  0.38261812747E+02  0.42598093991E+02  0.20273622837E+04  0.20355555039E+04  0.17323341527E+03 0.  0.
        -24    2    5    5    0    0 -0.42169614144E+01 -0.36775567722E+02  0.78450976082E+03  0.78943788985E+03  0.79914904485E+02 0.  0.
          5    1    3    3  501    0 -0.28340183803E+02  0.16546452056E+02  0.40194234621E+02  0.52101992192E+02  0.47000000000E+01 0. -1.
        -13    1    4    4    0    0  0.33944541727E+02 -0.16162850725E+02  0.40314688411E+03  0.40489613461E+03  0.00000000000E+00 0.  1.
         14    1    4    4    0    0 -0.43866170672E+02 -0.42981695322E+02  0.49225584634E+03  0.49607205657E+03  0.00000000000E+00 0. -1.
         -5    1    5    5    0  502  0.42478774162E+02  0.79373661713E+02  0.12428525229E+04  0.12461176141E+04  0.47000000000E+01 0.  1.
         11    1    6    6    0    0  0.97624783148E+01 -0.25402636364E+02  0.76457480860E+02  0.81156307805E+02  0.00000000000E+00 0. -1.
        -12    1    6    6    0    0 -0.13979439729E+02 -0.11372931358E+02  0.70805227996E+03  0.70828158204E+03  0.00000000000E+00 0.  1.
<mgrwt>
<rscale>  2 0.18225346E+03</rscale>
<asrwt>0</asrwt>
<pdfrwt beam="1">  1       21 0.45781368E+00 0.18245103E+03</pdfrwt>
<pdfrwt beam="2">  1       21 0.19743438E-02 0.18245103E+03</pdfrwt>
<totfact> 0.47104734E+03</totfact>
</mgrwt>
</event>
<event>
12    1  0.1026879E-001  0.1901867E+03  0.7546771E-02  0.1158302E+00
         21   -1    0    0  503  502  0.00000000000E+00  0.00000000000E+00  0.55484883675E+02  0.55484883675E+02  0.00000000000E+00 0. -1.
         21   -1    0    0  501  503 -0.00000000000E+00 -0.00000000000E+00 -0.72793527763E+03  0.72793527763E+03  0.00000000000E+00 0.  1.
          6    2    1    2  501    0 -0.77936043108E+02  0.14542216523E+02 -0.46296033875E+03  0.50050299525E+03  0.17287414534E+03 0.  0.
         24    2    3    3    0    0  0.17367744485E+02  0.41474826220E+02 -0.27473003480E+03  0.28775686787E+03  0.72839709108E+02 0.  0.
         -6    2    1    2    0  502  0.77936043108E+02 -0.14542216523E+02 -0.20949005521E+03  0.28291716605E+03  0.17283094844E+03 0.  0.
        -24    2    5    5    0    0  0.43860418438E+02  0.18252500830E+02 -0.21541889644E+03  0.23502266907E+03  0.81076901396E+02 0.  0.
          5    1    3    3  501    0 -0.95303787593E+02 -0.26932609697E+02 -0.18823030395E+03  0.21274612739E+03  0.47000000000E+01 0. -1.
        -11    1    4    4    0    0  0.29551726166E+02  0.23766624981E+02 -0.54018816545E+02  0.66001435767E+02  0.00000000000E+00 0.  1.
         12    1    4    4    0    0 -0.12183981681E+02  0.17708201240E+02 -0.22071121826E+03  0.22175543210E+03  0.00000000000E+00 0. -1.
         -5    1    5    5    0  502  0.34075624670E+02 -0.32794717353E+02  0.59288412348E+01  0.47894496983E+02  0.47000000000E+01 0.  1.
         11    1    6    6    0    0  0.17180229066E+02  0.24895920132E+02 -0.16980785729E+02  0.34688819437E+02  0.00000000000E+00 0. -1.
        -12    1    6    6    0    0  0.26680189372E+02 -0.66434193020E+01 -0.19843811071E+03  0.20033384963E+03  0.00000000000E+00 0.  1.
<mgrwt>
<rscale>  2 0.19017686E+03</rscale>
<asrwt>0</asrwt>
<pdfrwt beam="1">  1       21 0.85361364E-02 0.19018668E+03</pdfrwt>
<pdfrwt beam="2">  1       21 0.11199004E+00 0.19018668E+03</pdfrwt>
<totfact> 0.67092883E+04</totfact>
</mgrwt>
</event>
<event>
12    1  0.1026879E-001  0.1849895E+03  0.7546771E-02  0.1163458E+00
         21   -1    0    0  503  502  0.00000000000E+00  0.00000000000E+00  0.40722574850E+03  0.40722574850E+03  0.00000000000E+00 0. -1.
         21   -1    0    0  501  503 -0.00000000000E+00 -0.00000000000E+00 -0.84519839010E+02  0.84519839010E+02  0.00000000000E+00 0. -1.
          6    2    1    2  501    0  0.47719377510E+02  0.37470514256E+02  0.19202981850E+03  0.26663937808E+03  0.17475676904E+03 0.  0.
         24    2    3    3    0    0 -0.29233455264E+02 -0.18653789417E+02  0.66316493334E+02  0.10884962538E+03  0.79043057197E+02 0.  0.
         -6    2    1    2    0  502 -0.47719377510E+02 -0.37470514256E+02  0.13067609099E+03  0.22510620943E+03  0.17296064968E+03 0.  0.
        -24    2    5    5    0    0 -0.77385887069E+02 -0.29868373703E+02  0.15015066777E+03  0.18851053385E+03  0.78168427616E+02 0.  0.
          5    1    3    3  501    0  0.76952832774E+02  0.56124303673E+02  0.12571332516E+03  0.15778975270E+03  0.47000000000E+01 0. -1.
        -11    1    4    4    0    0 -0.14678217679E+02 -0.41254856559E+02  0.69118455708E+02  0.81821599736E+02  0.00000000000E+00 0.  1.
         12    1    4    4    0    0 -0.14555237585E+02  0.22601067141E+02 -0.28019623738E+01  0.27028025644E+02  0.00000000000E+00 0. -1.
         -5    1    5    5    0  502  0.29666509558E+02 -0.76021405526E+01 -0.19474576775E+02  0.36595675577E+02  0.47000000000E+01 0.  1.
         11    1    6    6    0    0 -0.25186015216E+02  0.26127454685E+02  0.61231423971E+02  0.71177710924E+02  0.00000000000E+00 0. -1.
        -12    1    6    6    0    0 -0.52199871853E+02 -0.55995828389E+02  0.88919243797E+02  0.11733282293E+03  0.00000000000E+00 0.  1.
<mgrwt>
<rscale>  2 0.18456406E+03</rscale>
<asrwt>0</asrwt>
<pdfrwt beam="1">  1       21 0.62650114E-01 0.18498948E+03</pdfrwt>
<pdfrwt beam="2">  1       21 0.13003052E-01 0.18498948E+03</pdfrwt>
<totfact> 0.12027861E+05</totfact>
</mgrwt>
</event>
<event>
12    1  0.1026879E-001  0.1906100E+03  0.7546771E-02  0.1159182E+00
         21   -1    0    0  501  502  0.00000000000E+00  0.00000000000E+00  0.71391923402E+03  0.71391923402E+03  0.00000000000E+00 0. -1.
         21   -1    0    0  502  503 -0.00000000000E+00 -0.00000000000E+00 -0.49470386882E+02  0.49470386882E+02  0.00000000000E+00 0. -1.
         -6    2    1    2    0  503 -0.74891789748E+02  0.23630624929E+02  0.34974119564E+03  0.39831026274E+03  0.17368066926E+03 0.  0.
        -24    2    3    3    0    0  0.46334616762E+01  0.39750898559E+02  0.26916853802E+03  0.28386301729E+03  0.80776901533E+02 0.  0.
          6    2    1    2  501    0  0.74891789748E+02 -0.23630624929E+02  0.31470765150E+03  0.36507935816E+03  0.16755549897E+03 0.  0.
         24    2    5    5    0    0 -0.14198135099E+02 -0.26565577604E+02  0.92243117637E+02  0.12537498297E+03  0.79390028658E+02 0.  0.
          5    1    5    5  501    0  0.89089924848E+02  0.29349526753E+01  0.22246453386E+03  0.23970437519E+03  0.47000000000E+01 0. -1.
        -13    1    6    6    0    0 -0.17653212997E+02  0.15880275348E+02  0.76288168478E+02  0.79898083356E+02  0.00000000000E+00 0.  1.
         14    1    6    6    0    0  0.34550778976E+01 -0.42445852952E+02  0.15954949159E+02  0.45476899617E+02  0.00000000000E+00 0. -1.
         -5    1    3    3    0  503 -0.79525251425E+02 -0.16120273630E+02  0.80572657617E+02  0.11444724545E+03  0.47000000000E+01 0.  1.
         13    1    4    4    0    0 -0.24740256866E+02  0.27886873956E+02  0.49740991769E+02  0.62160472256E+02  0.00000000000E+00 0. -1.
        -14    1    4    4    0    0  0.29373718542E+02  0.11864024603E+02  0.21942754625E+03  0.22170254503E+03  0.00000000000E+00 0.  1.
<mgrwt>
<rscale>  2 0.18920349E+03</rscale>
<asrwt>0</asrwt>
<pdfrwt beam="1">  1       21 0.10983372E+00 0.19060997E+03</pdfrwt>
<pdfrwt beam="2">  1       21 0.76108293E-02 0.19060997E+03</pdfrwt>
<totfact> 0.85863250E+04</totfact>
</mgrwt>
</event>
<event>
12    1  0.1026879E-001  0.2115824E+03  0.7546771E-02  0.1140621E+00
         21   -1    0    0  501  502  0.00000000000E+00  0.00000000000E+00  0.12895459590E+03  0.12895459590E+03  0.00000000000E+00 0.  1.
         21   -1    0    0  502  503 -0.00000000000E+00 -0.00000000000E+00 -0.34765589224E+03  0.34765589224E+03  0.00000000000E+00 0. -1.
         -6    2    1    2    0  503 -0.46805811375E+01 -0.11935185734E+03 -0.13194352092E+03  0.24935160912E+03  0.17464351854E+03 0.  0.
        -24    2    3    3    0    0  0.40906216227E+02 -0.12385627939E+02 -0.21708149313E+02  0.89058572840E+02  0.75056401088E+02 0.  0.
          6    2    1    2  501    0  0.46805811375E+01  0.11935185734E+03 -0.86757775418E+02  0.22725887902E+03  0.17277995488E+03 0.  0.
         24    2    5    5    0    0  0.43778757738E+02  0.10823522717E+03 -0.12660795251E+02  0.14261433195E+03  0.80914200915E+02 0.  0.
          5    1    5    5  501    0 -0.39098176600E+02  0.11116630170E+02 -0.74096980167E+02  0.84644547076E+02  0.47000000000E+01 0. -1.
        -13    1    6    6    0    0  0.40531040413E+02  0.23553605585E+02  0.21081319802E+02  0.51399996280E+02  0.00000000000E+00 0.  1.
         14    1    6    6    0    0  0.32477173246E+01  0.84681621589E+02 -0.33742115053E+02  0.91214335666E+02  0.00000000000E+00 0. -1.
         -5    1    3    3    0  503 -0.45586797364E+02 -0.10696622941E+03 -0.11023537160E+03  0.16029303628E+03  0.47000000000E+01 0.  1.
         13    1    4    4    0    0  0.44480537048E+02  0.18614672498E+02 -0.29975458952E+02  0.56776336159E+02  0.00000000000E+00 0. -1.
        -14    1    4    4    0    0 -0.35743208211E+01 -0.31000300437E+02  0.82673096387E+01  0.32282236681E+02  0.00000000000E+00 0.  1.
<mgrwt>
<rscale>  2 0.21119750E+03</rscale>
<asrwt>0</asrwt>
<pdfrwt beam="1">  1       21 0.19839169E-01 0.21158245E+03</pdfrwt>
<pdfrwt beam="2">  1       21 0.53485521E-01 0.21158245E+03</pdfrwt>
<totfact> 0.76899597E+04</totfact>
</mgrwt>
</event>
<event>
12    1  0.1026879E-001  0.1858795E+03  0.7546771E-02  0.1162328E+00
         21   -1    0    0  503  502  0.00000000000E+00  0.00000000000E+00  0.81879882925E+03  0.81879882925E+03  0.00000000000E+00 0.  1.
         21   -1    0    0  501  503 -0.00000000000E+00 -0.00000000000E+00 -0.51761836760E+02  0.51761836760E+02  0.00000000000E+00 0.  1.
          6    2    1    2  501    0  0.23257855721E+02 -0.61801731273E+02  0.57189826711E+03  0.60134749745E+03  0.17375500836E+03 0.  0.
         24    2    3    3    0    0  0.41660577556E+02  0.96391033222E+01  0.44537137877E+03  0.45480877734E+03  0.81650737211E+02 0.  0.
         -6    2    1    2    0  502 -0.23257855721E+02  0.61801731273E+02  0.19513872539E+03  0.26921316856E+03  0.17330962507E+03 0.  0.
        -24    2    5    5    0    0  0.31649082276E+02  0.23889902017E+02  0.17678286745E+03  0.19985103077E+03  0.84355559689E+02 0.  0.
          5    1    3    3  501    0 -0.18402721835E+02 -0.71440834595E+02  0.12652688834E+03  0.14653872011E+03  0.47000000000E+01 0. -1.
        -11    1    4    4    0    0 -0.14378907885E+02  0.14719013620E+02  0.26655525940E+03  0.26734829093E+03  0.00000000000E+00 0.  1.
         12    1    4    4    0    0  0.56039485442E+02 -0.50799102975E+01  0.17881611937E+03  0.18746048641E+03  0.00000000000E+00 0. -1.
         -5    1    5    5    0  502 -0.54906937997E+02  0.37911829256E+02  0.18355857936E+02  0.69362137786E+02  0.47000000000E+01 0.  1.
         13    1    6    6    0    0 -0.23815014775E+02  0.27665435270E+02  0.85585866814E+02  0.93045536356E+02  0.00000000000E+00 0. -1.
        -14    1    6    6    0    0  0.55464097051E+02 -0.37755332527E+01  0.91197000636E+02  0.10680549442E+03  0.00000000000E+00 0.  1.
<mgrwt>
<rscale>  2 0.18577534E+03</rscale>
<asrwt>0</asrwt>
<pdfrwt beam="1">  1       21 0.12596904E+00 0.18587949E+03</pdfrwt>
<pdfrwt beam="2">  1       21 0.79633601E-02 0.18587949E+03</pdfrwt>
<totfact> 0.56792757E+04</totfact>
</mgrwt>
</event>
<event>
12    1  0.1026879E-001  0.3283825E+03  0.7546771E-02  0.1071939E+00
         21   -1    0    0  503  502  0.00000000000E+00  0.00000000000E+00  0.41596377624E+03  0.41596377624E+03  0.00000000000E+00 0. -1.
         21   -1    0    0  501  503 -0.00000000000E+00 -0.00000000000E+00 -0.71464553855E+03  0.71464553855E+03  0.00000000000E+00 0.  1.
          6    2    1    2  501    0 -0.15480294609E+02  0.27823842677E+03 -0.60096569712E+03  0.68483197248E+03  0.17372046443E+03 0.  0.
         24    2    3    3    0    0 -0.40072593520E+02  0.61139287522E+02 -0.16795715935E+03  0.19980073512E+03  0.79792864022E+02 0.  0.
         -6    2    1    2    0  502  0.15480294609E+02 -0.27823842677E+03  0.30228393481E+03  0.44577734232E+03  0.17229509579E+03 0.  0.
        -24    2    5    5    0    0  0.73812720648E+02 -0.19067268615E+03  0.22940399201E+03  0.31769921414E+03  0.80636270607E+02 0.  0.
          5    1    3    3  501    0  0.24592298912E+02  0.21709913925E+03 -0.43300853777E+03  0.48503123736E+03  0.47000000000E+01 0. -1.
        -11    1    4    4    0    0 -0.24661728853E+02  0.65256705558E+02 -0.16996386985E+03  0.18372358462E+03  0.00000000000E+00 0.  1.
         12    1    4    4    0    0 -0.15410864668E+02 -0.41174180359E+01  0.20067105087E+01  0.16077150498E+02  0.00000000000E+00 0. -1.
         -5    1    5    5    0  502 -0.58332426039E+02 -0.87565740622E+02  0.72879942791E+02  0.12807812819E+03  0.47000000000E+01 0.  1.
         11    1    6    6    0    0  0.30670443377E+02 -0.16852340410E+03  0.17895248253E+03  0.24771920562E+03  0.00000000000E+00 0. -1.
        -12    1    6    6    0    0  0.43142277271E+02 -0.22149282049E+02  0.50451509481E+02  0.69980008519E+02  0.00000000000E+00 0.  1.
<mgrwt>
<rscale>  2 0.32819438E+03</rscale>
<asrwt>0</asrwt>
<pdfrwt beam="1">  1       21 0.63994427E-01 0.32838249E+03</pdfrwt>
<pdfrwt beam="2">  1       21 0.10994547E+00 0.32838249E+03</pdfrwt>
<totfact> 0.13332607E+03</totfact>
</mgrwt>
</event>
<event>
11    1  0.1026879E-001  0.2439427E+03  0.7546771E-02  0.1118534E+00
         21   -1    0    0  501  502  0.00000000000E+00  0.00000000000E+00  0.79914099118E+02  0.79914099118E+02  0.00000000000E+00 0.  1.
         21   -1    0    0  502  503 -0.00000000000E+00 -0.00000000000E+00 -0.80755763600E+03  0.80755763600E+03  0.00000000000E+00 0. -1.
         -6    2    1    2    0  503 -0.13681549325E+03  0.84320746802E+02 -0.21245294968E+03  0.31744597317E+03  0.17264768321E+03 0.  0.
        -24    2    3    3    0    0 -0.14654158641E+03  0.22195232449E+02 -0.17890459880E+03  0.24601937960E+03  0.80942045793E+02 0.  0.
          6    2    1    2  501    0  0.13681549325E+03 -0.84320746802E+02 -0.51519058720E+03  0.57002576195E+03  0.18351991884E+03 0.  0.
          5    1    5    5  501    0 -0.35853320024E+01  0.25176494574E+02 -0.22679745573E+02  0.34397257796E+02  0.47000000000E+01 0. -1.
        -13    1    5    5    0    0  0.39804198330E+02  0.20936120096E+01 -0.31650153550E+02  0.50896852905E+02  0.00000000000E+00 0.  1.
         14    1    5    5    0    0  0.10059662692E+03 -0.11159085339E+03 -0.46086068808E+03  0.48473165125E+03  0.00000000000E+00 0. -1.
         -5    1    3    3    0  503  0.97260931598E+01  0.62125514354E+02 -0.33548350884E+02  0.71426593569E+02  0.47000000000E+01 0.  1.
         13    1    4    4    0    0 -0.10491178142E+03 -0.11018996738E+02 -0.75555662753E+02  0.12975576420E+03  0.00000000000E+00 0. -1.
        -14    1    4    4    0    0 -0.41629804989E+02  0.33214229187E+02 -0.10334893604E+03  0.11626361540E+03  0.00000000000E+00 0.  1.
<mgrwt>
<rscale>  2 0.24189953E+03</rscale>
<asrwt>0</asrwt>
<pdfrwt beam="1">  1       21 0.12294476E-01 0.24394267E+03</pdfrwt>
<pdfrwt beam="2">  1       21 0.12423964E+00 0.24394267E+03</pdfrwt>
<totfact> 0.26443246E+04</totfact>
</mgrwt>
</event>
<event>
12    1  0.1026879E-001  0.2768093E+03  0.7546771E-02  0.1097694E+00
         21   -1    0    0  501  502  0.00000000000E+00  0.00000000000E+00  0.22646500117E+03  0.22646500117E+03  0.00000000000E+00 0.  1.
         21   -1    0    0  502  503 -0.00000000000E+00 -0.00000000000E+00 -0.18435224539E+04  0.18435224539E+04  0.00000000000E+00 0. -1.
         -6    2    1    2    0  503 -0.20904226416E+03  0.49461627900E+02 -0.17439345154E+04  0.17654859154E+04  0.17172012938E+03 0.  0.
        -24    2    3    3    0    0 -0.17447889626E+03  0.63517222305E+02 -0.16730117144E+04  0.16852093944E+04  0.80530637736E+02 0.  0.
          6    2    1    2  501    0  0.20904226416E+03 -0.49461627900E+02  0.12687706269E+03  0.30450153960E+03  0.17458029024E+03 0.  0.
         24    2    5    5    0    0  0.21856541834E+03 -0.73319238837E+02  0.92547454275E+02  0.26136816413E+03  0.81251049526E+02 0.  0.
          5    1    5    5  501    0 -0.95231541831E+01  0.23857610938E+02  0.34329608419E+02  0.43133375470E+02  0.47000000000E+01 0. -1.
        -11    1    6    6    0    0  0.63400998384E+02 -0.53636847344E+02  0.57706460540E+02  0.10112681928E+03  0.00000000000E+00 0.  1.
         12    1    6    6    0    0  0.15516441995E+03 -0.19682391493E+02  0.34840993735E+02  0.16024134485E+03  0.00000000000E+00 0. -1.
         -5    1    3    3    0  503 -0.34563367895E+02 -0.14055594406E+02 -0.70922800983E+02  0.80276521061E+02  0.47000000000E+01 0.  1.
         11    1    4    4    0    0 -0.14555888526E+03  0.29462857826E+02 -0.10305149498E+04  0.10411611359E+04  0.00000000000E+00 0. -1.
        -12    1    4    4    0    0 -0.28920010996E+02  0.34054364479E+02 -0.64249676457E+03  0.64404825849E+03  0.00000000000E+00 0.  1.
<mgrwt>
<rscale>  2 0.27635949E+03</rscale>
<asrwt>0</asrwt>
<pdfrwt beam="1">  1       21 0.34840769E-01 0.27680932E+03</pdfrwt>
<pdfrwt beam="2">  1       21 0.28361884E+00 0.27680932E+03</pdfrwt>
<totfact> 0.30414075E+02</totfact>
</mgrwt>
</event>
<event>
12    1  0.1026879E-001  0.1971600E+03  0.7546771E-02  0.1152415E+00
         21   -1    0    0  501  502  0.00000000000E+00  0.00000000000E+00  0.54523664904E+03  0.54523664904E+03  0.00000000000E+00 0.  1.
         21   -1    0    0  502  503 -0.00000000000E+00 -0.00000000000E+00 -0.10572100517E+03  0.10572100517E+03  0.00000000000E+00 0.  1.
         -6    2    1    2    0  503  0.19629462027E+02 -0.92398204605E+02  0.33312502469E+02  0.19995447938E+03  0.17305873862E+03 0.  0.
        -24    2    3    3    0    0  0.57183260235E+02 -0.66360413198E+02 -0.29636001796E+02  0.12202593179E+03  0.79614105128E+02 0.  0.
          6    2    1    2  501    0 -0.19629462027E+02  0.92398204605E+02  0.40620314140E+03  0.45100317483E+03  0.17169777991E+03 0.  0.
         24    2    5    5    0    0 -0.62493737955E+02  0.69110036551E+02  0.17217005974E+03  0.21189387297E+03  0.81085260657E+02 0.  0.
          5    1    5    5  501    0  0.42864275929E+02  0.23288168054E+02  0.23403308167E+03  0.23910930186E+03  0.47000000000E+01 0. -1.
        -13    1    6    6    0    0 -0.16888104680E+02 -0.10379473601E+02  0.78049622898E+02  0.80527543030E+02  0.00000000000E+00 0.  1.
         14    1    6    6    0    0 -0.45605633275E+02  0.79489510152E+02  0.94120436839E+02  0.13136632994E+03  0.00000000000E+00 0. -1.
         -5    1    3    3    0  503 -0.37553798208E+02 -0.26037791407E+02  0.62948504264E+02  0.77928547595E+02  0.47000000000E+01 0.  1.
         13    1    4    4    0    0  0.13827164546E+02  0.17215827434E+02  0.31996977931E+01  0.22311729193E+02  0.00000000000E+00 0. -1.
        -14    1    4    4    0    0  0.43356095689E+02 -0.83576240632E+02 -0.32835699589E+02  0.99714202595E+02  0.00000000000E+00 0.  1.
<mgrwt>
<rscale>  2 0.19686096E+03</rscale>
<asrwt>0</asrwt>
<pdfrwt beam="1">  1       21 0.83882560E-01 0.19716001E+03</pdfrwt>
<pdfrwt beam="2">  1       21 0.16264770E-01 0.19716001E+03</pdfrwt>
<totfact> 0.41690107E+04</totfact>
</mgrwt>
</event>
<event>
12    1  0.1026879E-001  0.1811627E+03  0.7546771E-02  0.1167354E+00
         21   -1    0    0  501  502  0.00000000000E+00  0.00000000000E+00  0.28451051376E+03  0.28451051376E+03  0.00000000000E+00 0.  1.
         21   -1    0    0  502  503 -0.00000000000E+00 -0.00000000000E+00 -0.22857426483E+03  0.22857426483E+03  0.00000000000E+00 0.  1.
         -6    2    1    2    0  503 -0.35428410247E+02 -0.21031776032E+02 -0.15387343877E+03  0.23769090393E+03  0.17641548343E+03 0.  0.
        -24    2    3    3    0    0  0.28818743908E+02 -0.81576591541E+01 -0.19591236522E+02  0.88200972686E+02  0.80613445720E+02 0.  0.
          6    2    1    2  501    0  0.35428410247E+02  0.21031776032E+02  0.20980968770E+03  0.27539387466E+03  0.17356316802E+03 0.  0.
         24    2    5    5    0    0  0.10180074467E+01  0.61896077900E+02  0.19764436630E+03  0.22040249322E+03  0.75377733386E+02 0.  0.
          5    1    5    5  501    0  0.34410402801E+02 -0.40864301868E+02  0.12165321403E+02  0.54991381442E+02  0.47000000000E+01 0. -1.
        -13    1    6    6    0    0 -0.26941168289E+02  0.38652461267E+02  0.16480868724E+03  0.17141103436E+03  0.00000000000E+00 0.  1.
         14    1    6    6    0    0  0.27959175736E+02  0.23243616633E+02  0.32835679053E+02  0.48991458856E+02  0.00000000000E+00 0. -1.
         -5    1    3    3    0  503 -0.64247154156E+02 -0.12874116878E+02 -0.13428220225E+03  0.14948993124E+03  0.47000000000E+01 0.  1.
         11    1    4    4    0    0 -0.19440038611E+02  0.20663014725E+02 -0.14221549988E+02  0.31735276315E+02  0.00000000000E+00 0. -1.
        -12    1    4    4    0    0  0.48258782519E+02 -0.28820673879E+02 -0.53696865336E+01  0.56465696370E+02  0.00000000000E+00 0.  1.
<mgrwt>
<rscale>  2 0.18046460E+03</rscale>
<asrwt>0</asrwt>
<pdfrwt beam="1">  1       21 0.43770848E-01 0.18116272E+03</pdfrwt>
<pdfrwt beam="2">  1       21 0.35165272E-01 0.18116272E+03</pdfrwt>
<totfact> 0.39326875E+04</totfact>
</mgrwt>
</event>
<event>
12    1  0.1026879E-001  0.2516833E+03  0.7546771E-02  0.1112385E+00
         21   -1    0    0  501  502  0.00000000000E+00  0.00000000000E+00  0.22414299015E+03  0.22414299015E+03  0.00000000000E+00 0.  1.
         21   -1    0    0  502  503 -0.00000000000E+00 -0.00000000000E+00 -0.29501430724E+03  0.29501430724E+03  0.00000000000E+00 0. -1.
         -6    2    1    2    0  503 -0.26816566584E+02 -0.18061006622E+03  0.19958289966E+02  0.25158580818E+03  0.17192428938E+03 0.  0.
        -24    2    3    3    0    0  0.26997672844E+02 -0.97744457255E+02 -0.40090062591E+02  0.13586815111E+03  0.81056079996E+02 0.  0.
          6    2    1    2  501    0  0.26816566584E+02  0.18061006622E+03 -0.90829607063E+02  0.26757148920E+03  0.17322055321E+03 0.  0.
         24    2    5    5    0    0 -0.26366807415E+01  0.19467087483E+03 -0.57196802675E+02  0.22047100462E+03  0.86210718873E+02 0.  0.
          5    1    5    5  501    0  0.29453247325E+02 -0.14060808618E+02 -0.33632804388E+02  0.47100484583E+02  0.47000000000E+01 0. -1.
        -13    1    6    6    0    0  0.27966312732E+02  0.17297863033E+03 -0.50596533801E+02  0.18238347083E+03  0.00000000000E+00 0.  1.
         14    1    6    6    0    0 -0.30602993473E+02  0.21692244500E+02 -0.66002688743E+01  0.38087533790E+02  0.00000000000E+00 0. -1.
         -5    1    3    3    0  503 -0.53814239428E+02 -0.82865608960E+02  0.60048352558E+02  0.11571765707E+03  0.47000000000E+01 0.  1.
         13    1    4    4    0    0 -0.29210104933E+02 -0.34047609842E+02 -0.13150167866E+02  0.46748228641E+02  0.00000000000E+00 0. -1.
        -14    1    4    4    0    0  0.56207777778E+02 -0.63696847414E+02 -0.26939894725E+02  0.89119922469E+02  0.00000000000E+00 0.  1.
<mgrwt>
<rscale>  2 0.25146041E+03</rscale>
<asrwt>0</asrwt>
<pdfrwt beam="1">  1       21 0.34483537E-01 0.25168330E+03</pdfrwt>
<pdfrwt beam="2">  1       21 0.45386816E-01 0.25168330E+03</pdfrwt>
<totfact> 0.36690472E+04</totfact>
</mgrwt>
</event>
<event>
12    1  0.1026879E-001  0.2103344E+03  0.7546771E-02  0.1141494E+00
         21   -1    0    0  503  502  0.00000000000E+00  0.00000000000E+00  0.11812226957E+03  0.11812226957E+03  0.00000000000E+00 0. -1.
         21   -1    0    0  501  503 -0.00000000000E+00 -0.00000000000E+00 -0.67688613888E+03  0.67688613888E+03  0.00000000000E+00 0. -1.
          6    2    1    2  501    0  0.19632928043E+02  0.11771448150E+03 -0.54616549003E+03  0.58526687638E+03  0.17320052849E+03 0.  0.
         24    2    3    3    0    0  0.11762591972E+02  0.16327854088E+02 -0.87816507649E+02  0.11574896399E+03  0.72671357904E+02 0.  0.
         -6    2    1    2    0  502 -0.19632928043E+02 -0.11771448150E+03 -0.12598379282E+02  0.20974153207E+03  0.17201930152E+03 0.  0.
        -24    2    5    5    0    0  0.48030333660E+01 -0.38194970179E+02  0.52865490234E+02  0.10377891082E+03  0.80581495371E+02 0.  0.
          5    1    3    3  501    0  0.78703360707E+01  0.10138662741E+03 -0.45834898238E+03  0.46951791239E+03  0.47000000000E+01 0. -1.
        -13    1    4    4    0    0 -0.50782133322E+01 -0.26299882443E+02 -0.48309094659E+02  0.55238036659E+02  0.00000000000E+00 0.  1.
         14    1    4    4    0    0  0.16840805304E+02  0.42627736531E+02 -0.39507412990E+02  0.60510927329E+02  0.00000000000E+00 0. -1.
         -5    1    5    5    0  502 -0.24435961409E+02 -0.79519511316E+02 -0.65463869516E+02  0.10596262125E+03  0.47000000000E+01 0.  1.
         11    1    6    6    0    0 -0.32045812951E+02 -0.41357575370E+02  0.31086778168E+02  0.60858614386E+02  0.00000000000E+00 0. -1.
        -12    1    6    6    0    0  0.36848846317E+02  0.31626051903E+01  0.21778712066E+02  0.42920296431E+02  0.00000000000E+00 0.  1.
<mgrwt>
<rscale>  2 0.21009111E+03</rscale>
<asrwt>0</asrwt>
<pdfrwt beam="1">  1       21 0.18172657E-01 0.21033443E+03</pdfrwt>
<pdfrwt beam="2">  1       21 0.10413633E+00 0.21033443E+03</pdfrwt>
<totfact> 0.20334341E+04</totfact>
</mgrwt>
</event>
<event>
12    1  0.1026879E-001  0.2447137E+03  0.7546771E-02  0.1118989E+00
         21   -1    0    0  503  502  0.00000000000E+00  0.00000000000E+00  0.15111334526E+04  0.15111334526E+04  0.00000000000E+00 0. -1.
         21   -1    0    0  501  503 -0.00000000000E+00 -0.00000000000E+00 -0.44211726209E+02  0.44211726209E+02  0.00000000000E+00 0. -1.
          6    2    1    2  501    0 -0.26121292764E+02 -0.17102524167E+03  0.44710692169E+03  0.50969539702E+03  0.17306889697E+03 0.  0.
         24    2    3    3    0    0  0.65119186974E+00 -0.18078820347E+03  0.43382920109E+03  0.47790751850E+03  0.86619985872E+02 0.  0.
         -6    2    1    2    0  502  0.26121292764E+02  0.17102524167E+03  0.10198148047E+04  0.10456497818E+04  0.15306624397E+03 0.  0.
        -24    2    5    5    0    0  0.69161688312E+02  0.15183604689E+03  0.80770817782E+03  0.82832051084E+03  0.76712736165E+02 0.  0.
          5    1    3    3  501    0 -0.26772484634E+02  0.97629617977E+01  0.13277720591E+02  0.31787878517E+02  0.47000000000E+01 0. -1.
        -11    1    4    4    0    0  0.19373683893E+00 -0.15781664796E+03  0.27210077956E+03  0.31455518776E+03  0.00000000000E+00 0.  1.
         12    1    4    4    0    0  0.45745503081E+00 -0.22971555509E+02  0.16172842153E+03  0.16335233074E+03  0.00000000000E+00 0. -1.
         -5    1    5    5    0  502 -0.43040395548E+02  0.19189194777E+02  0.21210662685E+03  0.21732927092E+03  0.47000000000E+01 0.  1.
         13    1    6    6    0    0  0.51995298806E+02  0.32216155939E+02  0.32574876912E+03  0.33144177827E+03  0.00000000000E+00 0. -1.
        -14    1    6    6    0    0  0.17166389506E+02  0.11961989095E+03  0.48195940870E+03  0.49687873257E+03  0.00000000000E+00 0.  1.
<mgrwt>
<rscale>  2 0.24121091E+03</rscale>
<asrwt>0</asrwt>
<pdfrwt beam="1">  1       21 0.23248203E+00 0.24471371E+03</pdfrwt>
<pdfrwt beam="2">  1       21 0.68018052E-02 0.24471371E+03</pdfrwt>
<totfact> 0.12882431E+04</totfact>
</mgrwt>
</event>
<event>
12    1  0.1026879E-001  0.1877441E+03  0.7546771E-02  0.1161209E+00
         21   -1    0    0  503  502  0.00000000000E+00  0.00000000000E+00  0.40588556891E+03  0.40588556891E+03  0.00000000000E+00 0. -1.
         21   -1    0    0  501  503 -0.00000000000E+00 -0.00000000000E+00 -0.96899550104E+02  0.96899550104E+02  0.00000000000E+00 0. -1.
          6    2    1    2  501    0  0.38990976587E+02  0.43215814694E+02  0.69189974358E+02  0.20008768642E+03  0.17849349234E+03 0.  0.
         24    2    3    3    0    0 -0.42215015466E+02  0.31611746252E+02  0.58561365320E+01  0.96346023796E+02  0.80416739143E+02 0.  0.
         -6    2    1    2    0  502 -0.38990976587E+02 -0.43215814694E+02  0.23979604445E+03  0.30269743259E+03  0.17531597153E+03 0.  0.
        -24    2    5    5    0    0 -0.78635824011E+02  0.15975654721E+01  0.10165223367E+03  0.15207952056E+03  0.81294888712E+02 0.  0.
          5    1    3    3  501    0  0.81205992052E+02  0.11604068443E+02  0.63333837826E+02  0.10374166262E+03  0.47000000000E+01 0. -1.
        -13    1    4    4    0    0 -0.48806337974E+02 -0.10962960158E+02  0.15163443463E+02  0.52270212736E+02  0.00000000000E+00 0.  1.
         14    1    4    4    0    0  0.65913225081E+01  0.42574706409E+02 -0.93073069313E+01  0.44075811060E+02  0.00000000000E+00 0. -1.
         -5    1    5    5    0  502  0.39644847424E+02 -0.44813380166E+02  0.13814381078E+03  0.15061791203E+03  0.47000000000E+01 0.  1.
         11    1    6    6    0    0  0.10649077010E+00 -0.99682417687E+01  0.62670573163E+02  0.63458474019E+02  0.00000000000E+00 0. -1.
        -12    1    6    6    0    0 -0.78742314781E+02  0.11565807241E+02  0.38981660504E+02  0.88621046540E+02  0.00000000000E+00 0.  1.
<mgrwt>
<rscale>  2 0.18698488E+03</rscale>
<asrwt>0</asrwt>
<pdfrwt beam="1">  1       21 0.62443933E-01 0.18774405E+03</pdfrwt>
<pdfrwt beam="2">  1       21 0.14907623E-01 0.18774405E+03</pdfrwt>
<totfact> 0.94506881E+04</totfact>
</mgrwt>
</event>
<event>
12    1  0.1026879E-001  0.2648558E+03  0.7546771E-02  0.1104302E+00
         21   -1    0    0  503  502  0.00000000000E+00  0.00000000000E+00  0.63032299731E+02  0.63032299731E+02  0.00000000000E+00 0. -1.
         21   -1    0    0  501  503 -0.00000000000E+00 -0.00000000000E+00 -0.11698077429E+04  0.11698077429E+04  0.00000000000E+00 0.  1.
          6    2    1    2  501    0 -0.13486501430E+03  0.14751773634E+03 -0.41628863576E+03  0.49340130174E+03  0.17377733362E+03 0.  0.
         24    2    3    3    0    0 -0.14780120641E+03  0.16930898587E+03 -0.36658059182E+03  0.43740859459E+03  0.80213583661E+02 0.  0.
         -6    2    1    2    0  502  0.13486501430E+03 -0.14751773634E+03 -0.69048680737E+03  0.73943874084E+03  0.17334233672E+03 0.  0.
        -24    2    5    5    0    0  0.89373689223E+01 -0.10309851257E+03 -0.35530541541E+03  0.37860706981E+03  0.79951205314E+02 0.  0.
          5    1    3    3  501    0  0.12936192113E+02 -0.21791249533E+02 -0.49708043934E+02  0.55992707153E+02  0.47000000000E+01 0. -1.
        -11    1    4    4    0    0 -0.87593736260E+01 -0.87502833979E+01 -0.24677669579E+02  0.27609445154E+02  0.00000000000E+00 0.  1.
         12    1    4    4    0    0 -0.13904183279E+03  0.17805926927E+03 -0.34190292224E+03  0.40979914943E+03  0.00000000000E+00 0. -1.
         -5    1    5    5    0  502  0.12592764538E+03 -0.44419223768E+02 -0.33518139195E+03  0.36083167104E+03  0.47000000000E+01 0.  1.
         11    1    6    6    0    0  0.85219060848E+01 -0.39135524652E+02 -0.39016571622E+02  0.55915159252E+02  0.00000000000E+00 0. -1.
        -12    1    6    6    0    0  0.41546283748E+00 -0.63962987916E+02 -0.31628884379E+03  0.32269191056E+03  0.00000000000E+00 0.  1.
<mgrwt>
<rscale>  2 0.26478451E+03</rscale>
<asrwt>0</asrwt>
<pdfrwt beam="1">  1       21 0.96972768E-02 0.26485584E+03</pdfrwt>
<pdfrwt beam="2">  1       21 0.17997042E+00 0.26485584E+03</pdfrwt>
<totfact> 0.14867241E+04</totfact>
</mgrwt>
</event>
<event>
12    1  0.1026879E-001  0.1867037E+03  0.7546771E-02  0.1161560E+00
         21   -1    0    0  501  502  0.00000000000E+00  0.00000000000E+00  0.11906213955E+04  0.11906213955E+04  0.00000000000E+00 0. -1.
         21   -1    0    0  502  503 -0.00000000000E+00 -0.00000000000E+00 -0.31386623388E+02  0.31386623388E+02  0.00000000000E+00 0.  1.
         -6    2    1    2    0  503  0.67607914839E+02 -0.68676372918E+01  0.41948493170E+03  0.45915780394E+03  0.17389734444E+03 0.  0.
        -24    2    3    3    0    0  0.50679162446E+02  0.63830043195E+02  0.31383997900E+03  0.33083130350E+03  0.65659477891E+02 0.  0.
          6    2    1    2  501    0 -0.67607914839E+02  0.68676372918E+01  0.73974984040E+03  0.76285021493E+03  0.17347227291E+03 0.  0.
         24    2    5    5    0    0  0.24321873386E+02  0.12290973370E+02  0.22461431700E+03  0.23952699168E+03  0.78606404242E+02 0.  0.
          5    1    5    5  501    0 -0.91929788225E+02 -0.54233360784E+01  0.51513552339E+03  0.52332322326E+03  0.47000000000E+01 0. -1.
        -13    1    6    6    0    0  0.18168386574E+02 -0.22255769246E+02  0.18232610929E+03  0.18457578298E+03  0.00000000000E+00 0.  1.
         14    1    6    6    0    0  0.61534868124E+01  0.34546742616E+02  0.42288207715E+02  0.54951208695E+02  0.00000000000E+00 0. -1.
         -5    1    3    3    0  503  0.16928752393E+02 -0.70697680487E+02  0.10564495270E+03  0.12832650044E+03  0.47000000000E+01 0.  1.
         11    1    4    4    0    0  0.14681366594E+02 -0.84058298998E+01  0.20439018012E+02  0.26532130685E+02  0.00000000000E+00 0. -1.
        -12    1    4    4    0    0  0.35997795852E+02  0.72235873095E+02  0.29340096098E+03  0.30429917281E+03  0.00000000000E+00 0.  1.
<mgrwt>
<rscale>  2 0.18660468E+03</rscale>
<asrwt>0</asrwt>
<pdfrwt beam="1">  1       21 0.18317249E+00 0.18670373E+03</pdfrwt>
<pdfrwt beam="2">  1       21 0.48287122E-02 0.18670373E+03</pdfrwt>
<totfact> 0.49599804E+04</totfact>
</mgrwt>
</event>
<event>
12    1  0.1026879E-001  0.2039473E+03  0.7546771E-02  0.1147048E+00
         21   -1    0    0  501  502  0.00000000000E+00  0.00000000000E+00  0.22775015305E+03  0.22775015305E+03  0.00000000000E+00 0. -1.
         21   -1    0    0  502  503 -0.00000000000E+00 -0.00000000000E+00 -0.24284704931E+03  0.24284704931E+03  0.00000000000E+00 0. -1.
         -6    2    1    2    0  503 -0.94208005499E+02 -0.45562817857E+02  0.11213261413E+03  0.23021867687E+03  0.17168516930E+03 0.  0.
        -24    2    3    3    0    0 -0.18580529201E+02 -0.69825908460E+02  0.17094828563E+02  0.10627319119E+03  0.76031996184E+02 0.  0.
          6    2    1    2  501    0  0.94208005499E+02  0.45562817857E+02 -0.12722951039E+03  0.24037852549E+03  0.17505247366E+03 0.  0.
         24    2    5    5    0    0 -0.86216843429E+01  0.44080737217E+02 -0.95778872266E+02  0.13273385858E+03  0.80170069273E+02 0.  0.
          5    1    5    5  501    0  0.10282968984E+03  0.14820806402E+01 -0.31450638124E+02  0.10764466691E+03  0.47000000000E+01 0. -1.
        -11    1    6    6    0    0  0.65034538706E+01 -0.15123622104E+02  0.28522372242E+01  0.16707905763E+02  0.00000000000E+00 0.  1.
         12    1    6    6    0    0 -0.15125138213E+02  0.59204359321E+02 -0.98631109490E+02  0.11602595282E+03  0.00000000000E+00 0. -1.
         -5    1    3    3    0  503 -0.75627476298E+02  0.24263090604E+02  0.95037785564E+02  0.12394548568E+03  0.47000000000E+01 0.  1.
         11    1    4    4    0    0  0.67781120638E+01  0.22202036245E+01  0.28203054590E+02  0.29090967593E+02  0.00000000000E+00 0. -1.
        -12    1    4    4    0    0 -0.25358641265E+02 -0.72046112085E+02 -0.11108226027E+02  0.77182223593E+02  0.00000000000E+00 0.  1.
<mgrwt>
<rscale>  2 0.20322271E+03</rscale>
<asrwt>0</asrwt>
<pdfrwt beam="1">  1       21 0.35038485E-01 0.20394727E+03</pdfrwt>
<pdfrwt beam="2">  1       21 0.37361084E-01 0.20394727E+03</pdfrwt>
<totfact> 0.53962124E+04</totfact>
</mgrwt>
</event>
<event>
12    1  0.1026879E-001  0.1855503E+03  0.7546771E-02  0.1163084E+00
         21   -1    0    0  503  502  0.00000000000E+00  0.00000000000E+00  0.24747150993E+03  0.24747150993E+03  0.00000000000E+00 0. -1.
         21   -1    0    0  501  503 -0.00000000000E+00 -0.00000000000E+00 -0.13738302622E+03  0.13738302622E+03  0.00000000000E+00 0. -1.
          6    2    1    2  501    0 -0.62435153327E+02 -0.12076490462E+02  0.55929937443E+02  0.19156188721E+03  0.17182493631E+03 0.  0.
         24    2    3    3    0    0 -0.54568467535E+02  0.53630543257E+02  0.59053242502E+02  0.12514544301E+03  0.79499331053E+02 0.  0.
         -6    2    1    2    0  502  0.62435153327E+02  0.12076490462E+02  0.54158546270E+02  0.19329264894E+03  0.17431267884E+03 0.  0.
        -24    2    5    5    0    0  0.10622454551E+03  0.16710778854E+02  0.63482601700E+02  0.14803764362E+03  0.79512256994E+02 0.  0.
          5    1    3    3  501    0 -0.78666857920E+01 -0.65707033719E+02 -0.31233050591E+01  0.66416444199E+02  0.47000000000E+01 0. -1.
        -13    1    4    4    0    0 -0.27164224134E+02  0.91446490885E+00  0.59843555465E+02  0.65726573390E+02  0.00000000000E+00 0.  1.
         14    1    4    4    0    0 -0.27404243401E+02  0.52716078348E+02 -0.79031296274E+00  0.59418869624E+02  0.00000000000E+00 0. -1.
         -5    1    5    5    0  502 -0.43789392179E+02 -0.46342883918E+01 -0.93240554299E+01  0.45255005314E+02  0.47000000000E+01 0.  1.
         13    1    6    6    0    0  0.11728738817E+02 -0.27133053252E+02  0.13558788411E+02  0.32520864628E+02  0.00000000000E+00 0. -1.
        -14    1    6    6    0    0  0.94495806690E+02  0.43843832105E+02  0.49923813289E+02  0.11551677899E+03  0.00000000000E+00 0.  1.
<mgrwt>
<rscale>  2 0.18496371E+03</rscale>
<asrwt>0</asrwt>
<pdfrwt beam="1">  1       21 0.38072540E-01 0.18555026E+03</pdfrwt>
<pdfrwt beam="2">  1       21 0.21135850E-01 0.18555026E+03</pdfrwt>
<totfact> 0.13880726E+05</totfact>
</mgrwt>
</event>
<event>
12    1  0.1026879E-001  0.3170415E+03  0.7546771E-02  0.1077273E+00
         21   -1    0    0  503  502  0.00000000000E+00  0.00000000000E+00  0.75197353191E+03  0.75197353191E+03  0.00000000000E+00 0. -1.
         21   -1    0    0  501  503 -0.00000000000E+00 -0.00000000000E+00 -0.13631128325E+03  0.13631128325E+03  0.00000000000E+00 0. -1.
          6    2    1    2  501    0 -0.25860665822E+03 -0.48078847023E+02  0.23503659618E+03  0.39291505463E+03  0.17306374376E+03 0.  0.
         24    2    3    3    0    0 -0.19403096970E+03 -0.46032108009E+02  0.24706676804E+03  0.32702860895E+03  0.78350182110E+02 0.  0.
         -6    2    1    2    0  502  0.25860665822E+03  0.48078847023E+02  0.38062565248E+03  0.49536976053E+03  0.17699246626E+03 0.  0.
        -24    2    5    5    0    0  0.10606929401E+03 -0.33465022791E+02  0.22210753810E+03  0.26070588864E+03  0.79153010102E+02 0.  0.
          5    1    3    3  501    0 -0.64575688520E+02 -0.20467390139E+01 -0.12030171862E+02  0.65886445673E+02  0.47000000000E+01 0. -1.
        -13    1    4    4    0    0 -0.17308341095E+03 -0.65127175416E+02  0.22406886982E+03  0.29052757967E+03  0.00000000000E+00 0.  1.
         14    1    4    4    0    0 -0.20947558745E+02  0.19095067407E+02  0.22997898218E+02  0.36501029288E+02  0.00000000000E+00 0. -1.
         -5    1    5    5    0  502  0.15253736420E+03  0.81543869813E+02  0.15851811439E+03  0.23466387189E+03  0.47000000000E+01 0.  1.
         11    1    6    6    0    0  0.64145562638E+02 -0.59706456848E+01  0.19131245903E+03  0.20186817183E+03  0.00000000000E+00 0. -1.
        -12    1    6    6    0    0  0.41923731375E+02 -0.27494377106E+02  0.30795079065E+02  0.58837716810E+02  0.00000000000E+00 0.  1.
<mgrwt>
<rscale>  2 0.31649600E+03</rscale>
<asrwt>0</asrwt>
<pdfrwt beam="1">  1       21 0.11568823E+00 0.31704150E+03</pdfrwt>
<pdfrwt beam="2">  1       21 0.20970967E-01 0.31704150E+03</pdfrwt>
<totfact> 0.11389232E+04</totfact>
</mgrwt>
</event>
<event>
12    1  0.1026879E-001  0.1824423E+03  0.7546771E-02  0.1165841E+00
         21   -1    0    0  503  502  0.00000000000E+00  0.00000000000E+00  0.57840509686E+02  0.57840509686E+02  0.00000000000E+00 0.  1.
         21   -1    0    0  501  503 -0.00000000000E+00 -0.00000000000E+00 -0.64714901249E+03  0.64714901249E+03  0.00000000000E+00 0. -1.
          6    2    1    2  501    0  0.60315895255E+02 -0.70714023933E+01 -0.17215762549E+03  0.24968736523E+03  0.17034529752E+03 0.  0.
         24    2    3    3    0    0  0.22229535162E+02 -0.67102623590E+01 -0.11703353269E+02  0.84707473355E+02  0.80617663759E+02 0.  0.
         -6    2    1    2    0  502 -0.60315895255E+02  0.70714023933E+01 -0.41715087731E+03  0.45530215695E+03  0.17203833215E+03 0.  0.
        -24    2    5    5    0    0 -0.55829170528E+02 -0.52429419459E+02 -0.18648438290E+03  0.21699647061E+03  0.80282643721E+02 0.  0.
          5    1    3    3  501    0  0.38086360093E+02 -0.36114003433E+00 -0.16045427222E+03  0.16497989187E+03  0.47000000000E+01 0. -1.
        -13    1    4    4    0    0  0.26269173904E+02  0.18229556167E+02 -0.37036378395E+02  0.48929332105E+02  0.00000000000E+00 0.  1.
         14    1    4    4    0    0 -0.40396387424E+01 -0.24939818526E+02  0.25333025125E+02  0.35778141250E+02  0.00000000000E+00 0. -1.
         -5    1    5    5    0  502 -0.44867247268E+01  0.59500821852E+02 -0.23066649440E+03  0.23830568634E+03  0.47000000000E+01 0.  1.
         13    1    6    6    0    0 -0.31622548881E+02 -0.50184887373E+02 -0.47750337476E+02  0.76148560377E+02  0.00000000000E+00 0. -1.
        -14    1    6    6    0    0 -0.24206621648E+02 -0.22445320857E+01 -0.13873404543E+03  0.14084791023E+03  0.00000000000E+00 0.  1.
<mgrwt>
<rscale>  2 0.18204210E+03</rscale>
<asrwt>0</asrwt>
<pdfrwt beam="1">  1       21 0.88985399E-02 0.18244232E+03</pdfrwt>
<pdfrwt beam="2">  1       21 0.99561387E-01 0.18244232E+03</pdfrwt>
<totfact> 0.83026560E+04</totfact>
</mgrwt>
</event>
<event>
12    1  0.1026879E-001  0.2299820E+03  0.7546771E-02  0.1126908E+00
         21   -1    0    0  501  502  0.00000000000E+00  0.00000000000E+00  0.13100513527E+04  0.13100513527E+04  0.00000000000E+00 0.  1.
         21   -1    0    0  502  503 -0.00000000000E+00 -0.00000000000E+00 -0.41117480622E+02  0.41117480622E+02  0.00000000000E+00 0.  1.
         -6    2    1    2    0  503 -0.72138690728E+01 -0.14934917256E+03  0.53118681514E+03  0.57883603590E+03  0.17474126195E+03 0.  0.
        -24    2    3    3    0    0  0.54074795618E+02 -0.54408090206E+02  0.32348030964E+03  0.34233193030E+03  0.81653634206E+02 0.  0.
          6    2    1    2  501    0  0.72138690728E+01  0.14934917256E+03  0.73774705695E+03  0.77233279744E+03  0.17282943817E+03 0.  0.
         24    2    5    5    0    0  0.68456522400E+02  0.59432410654E+02  0.33310141240E+03  0.35329118338E+03  0.75097286317E+02 0.  0.
          5    1    5    5  501    0 -0.61242653328E+02  0.89916761908E+02  0.40464564455E+03  0.41904161406E+03  0.47000000000E+01 0. -1.
        -13    1    6    6    0    0  0.41251819053E+02  0.75470109351E+02  0.25088277512E+03  0.26521617001E+03  0.00000000000E+00 0.  1.
         14    1    6    6    0    0  0.27204703347E+02 -0.16037698698E+02  0.82218637281E+02  0.88075013370E+02  0.00000000000E+00 0. -1.
         -5    1    3    3    0  503 -0.61288664691E+02 -0.94941082356E+02  0.20770650550E+03  0.23650410560E+03  0.47000000000E+01 0.  1.
         11    1    4    4    0    0  0.63050750504E+02 -0.31339613188E+02  0.13523972110E+03  0.15247081903E+03  0.00000000000E+00 0. -1.
        -12    1    4    4    0    0 -0.89759548854E+01 -0.23068477018E+02  0.18824058854E+03  0.18986111127E+03  0.00000000000E+00 0.  1.
<mgrwt>
<rscale>  2 0.22961884E+03</rscale>
<asrwt>0</asrwt>
<pdfrwt beam="1">  1       21 0.20154633E+00 0.22998201E+03</pdfrwt>
<pdfrwt beam="2">  1       21 0.63257673E-02 0.22998201E+03</pdfrwt>
<totfact> 0.23019227E+04</totfact>
</mgrwt>
</event>
<event>
12    1  0.1026879E-001  0.1780811E+03  0.7546771E-02  0.1169681E+00
         21   -1    0    0  503  502  0.00000000000E+00  0.00000000000E+00  0.10319926026E+03  0.10319926026E+03  0.00000000000E+00 0.  1.
         21   -1    0    0  501  503 -0.00000000000E+00 -0.00000000000E+00 -0.33120755560E+03  0.33120755560E+03  0.00000000000E+00 0.  1.
          6    2    1    2  501    0  0.39145311481E+02  0.20187645571E+02 -0.17243508863E+03  0.24788452306E+03  0.17254848751E+03 0.  0.
         24    2    3    3    0    0 -0.15566095015E+02 -0.13892736935E+02 -0.25323403607E+02  0.87202388582E+02  0.80793999471E+02 0.  0.
         -6    2    1    2    0  502 -0.39145311481E+02 -0.20187645571E+02 -0.55573206716E+02  0.18652229280E+03  0.17251750045E+03 0.  0.
        -24    2    5    5    0    0  0.44713306362E+02 -0.15141626536E+02 -0.39113509171E+02  0.10078582600E+03  0.79996046800E+02 0.  0.
          5    1    3    3  501    0  0.54711406496E+02  0.34080382506E+02 -0.14711168502E+03  0.16068213448E+03  0.47000000000E+01 0. -1.
        -11    1    4    4    0    0  0.32253719787E+02 -0.14231911516E+01 -0.18786166601E+02  0.37353018201E+02  0.00000000000E+00 0.  1.
         12    1    4    4    0    0 -0.47819814802E+02 -0.12469545783E+02 -0.65372370053E+01  0.49849370381E+02  0.00000000000E+00 0. -1.
         -5    1    5    5    0  502 -0.83858617843E+02 -0.50460190343E+01 -0.16459697545E+02  0.85736466792E+02  0.47000000000E+01 0.  1.
         13    1    6    6    0    0 -0.16248480369E+01  0.20532085410E+02 -0.36906752970E+02  0.42264820800E+02  0.00000000000E+00 0. -1.
        -14    1    6    6    0    0  0.46338154399E+02 -0.35673711946E+02 -0.22067562003E+01  0.58521005204E+02  0.00000000000E+00 0.  1.
<mgrwt>
<rscale>  2 0.17807359E+03</rscale>
<asrwt>0</asrwt>
<pdfrwt beam="1">  1       21 0.15876810E-01 0.17808110E+03</pdfrwt>
<pdfrwt beam="2">  1       21 0.50955007E-01 0.17808110E+03</pdfrwt>
<totfact> 0.13018918E+05</totfact>
</mgrwt>
</event>
<event>
12    1  0.1026879E-001  0.1815855E+03  0.7546771E-02  0.1166463E+00
         21   -1    0    0  501  502  0.00000000000E+00  0.00000000000E+00  0.23877847438E+04  0.23877847438E+04  0.00000000000E+00 0. -1.
         21   -1    0    0  502  503 -0.00000000000E+00 -0.00000000000E+00 -0.19652716468E+02  0.19652716468E+02  0.00000000000E+00 0. -1.
         -6    2    1    2    0  503 -0.52396547405E+02  0.17236546202E+02  0.52262546689E+03  0.55301901523E+03  0.17219220615E+03 0.  0.
        -24    2    3    3    0    0 -0.90633567605E+02  0.39447736697E+02  0.27567446796E+03  0.30209613351E+03  0.74128901850E+02 0.  0.
          6    2    1    2  501    0  0.52396547405E+02 -0.17236546202E+02  0.18455065605E+04  0.18544184451E+04  0.17300522526E+03 0.  0.
         24    2    5    5    0    0  0.54093232450E+02  0.30921384981E+02  0.16464608557E+04  0.16495688718E+04  0.79761542434E+02 0.  0.
          5    1    5    5  501    0 -0.16966850455E+01 -0.48157931183E+02  0.19904570475E+03  0.20484957324E+03  0.47000000000E+01 0. -1.
        -11    1    6    6    0    0  0.16851597583E+02  0.51335252774E+02  0.66575140267E+03  0.66794027778E+03  0.00000000000E+00 0.  1.
         12    1    6    6    0    0  0.37241634867E+02 -0.20413867793E+02  0.98070945305E+03  0.98162859406E+03  0.00000000000E+00 0. -1.
         -5    1    3    3    0  503  0.38237020200E+02 -0.22211190495E+02  0.24695099894E+03  0.25092288173E+03  0.47000000000E+01 0.  1.
         13    1    4    4    0    0 -0.46408436876E+02  0.25169618025E+01  0.46327556047E+02  0.65622561358E+02  0.00000000000E+00 0. -1.
        -14    1    4    4    0    0 -0.44225130729E+02  0.36930774895E+02  0.22934691191E+03  0.23647357215E+03  0.00000000000E+00 0.  1.
<mgrwt>
<rscale>  2 0.18139161E+03</rscale>
<asrwt>0</asrwt>
<pdfrwt beam="1">  1       21 0.36735127E+00 0.18158553E+03</pdfrwt>
<pdfrwt beam="2">  1       21 0.30234967E-02 0.18158553E+03</pdfrwt>
<totfact> 0.87359372E+03</totfact>
</mgrwt>
</event>
<event>
12    1  0.1026879E-001  0.1821630E+03  0.7546771E-02  0.1165929E+00
         21   -1    0    0  503  502  0.00000000000E+00  0.00000000000E+00  0.14544858001E+03  0.14544858001E+03  0.00000000000E+00 0. -1.
         21   -1    0    0  501  503 -0.00000000000E+00 -0.00000000000E+00 -0.26509509240E+03  0.26509509240E+03  0.00000000000E+00 0.  1.
          6    2    1    2  501    0 -0.41231184211E+02  0.36096486008E+02 -0.13767290352E+03  0.22833566151E+03  0.17372501000E+03 0.  0.
         24    2    3    3    0    0 -0.10638360076E+02  0.78228941924E+02 -0.44119400165E+02  0.12116564369E+03  0.80632807716E+02 0.  0.
         -6    2    1    2    0  502  0.41231184211E+02 -0.36096486008E+02  0.18026391135E+02  0.18220801090E+03  0.17283472338E+03 0.  0.
        -24    2    5    5    0    0 -0.41178575008E+02 -0.37584173992E+02  0.17806056580E+02  0.99650635836E+02  0.80653260301E+02 0.  0.
          5    1    3    3  501    0 -0.30592824135E+02 -0.42132455916E+02 -0.93553503355E+02  0.10717001782E+03  0.47000000000E+01 0. -1.
        -11    1    4    4    0    0 -0.38755068414E+02  0.55730810579E+02 -0.50485821723E+02  0.84597262193E+02  0.00000000000E+00 0.  1.
         12    1    4    4    0    0  0.28116708338E+02  0.22498131345E+02  0.63664215579E+01  0.36568381496E+02  0.00000000000E+00 0. -1.
         -5    1    5    5    0  502  0.82409759219E+02  0.14876879841E+01  0.22033455461E+00  0.82557375064E+02  0.47000000000E+01 0.  1.
         13    1    6    6    0    0 -0.43841485730E+02 -0.22159354679E+02  0.46066895741E+02  0.67344426302E+02  0.00000000000E+00 0. -1.
        -14    1    6    6    0    0  0.26629107217E+01 -0.15424819313E+02 -0.28260839160E+02  0.32306209533E+02  0.00000000000E+00 0.  1.
<mgrwt>
<rscale>  2 0.18195038E+03</rscale>
<asrwt>0</asrwt>
<pdfrwt beam="1">  1       21 0.22376705E-01 0.18216297E+03</pdfrwt>
<pdfrwt beam="2">  1       21 0.40783860E-01 0.18216297E+03</pdfrwt>
<totfact> 0.10868618E+05</totfact>
</mgrwt>
</event>
<event>
12    1  0.1026879E-001  0.2369774E+03  0.7546771E-02  0.1121923E+00
         21   -1    0    0  501  502  0.00000000000E+00  0.00000000000E+00  0.32504224969E+03  0.32504224969E+03  0.00000000000E+00 0. -1.
         21   -1    0    0  502  503 -0.00000000000E+00 -0.00000000000E+00 -0.17584115655E+03  0.17584115655E+03  0.00000000000E+00 0. -1.
         -6    2    1    2    0  503 -0.34262966302E+02 -0.15663743126E+03  0.10984629919E+03  0.26066044569E+03  0.17369059494E+03 0.  0.
        -24    2    3    3    0    0 -0.61199881714E+02 -0.13187622591E+03  0.13748186606E+03  0.21456782960E+03  0.77468222638E+02 0.  0.
          6    2    1    2  501    0  0.34262966302E+02  0.15663743126E+03  0.39354793952E+02  0.24022296054E+03  0.17449651926E+03 0.  0.
         24    2    5    5    0    0  0.76212131165E+01  0.49489772352E+01  0.13894031970E+02  0.84051546710E+02  0.82395649854E+02 0.  0.
          5    1    5    5  501    0  0.26641753185E+02  0.15168845403E+03  0.25460761982E+02  0.15617141383E+03  0.47000000000E+01 0. -1.
        -11    1    6    6    0    0  0.31529764450E+02 -0.16538980705E+02 -0.17010944029E+02  0.39459297330E+02  0.00000000000E+00 0.  1.
         12    1    6    6    0    0 -0.23908551333E+02  0.21487957940E+02  0.30904975998E+02  0.44592249380E+02  0.00000000000E+00 0. -1.
         -5    1    3    3    0  503  0.26936915412E+02 -0.24761205348E+02 -0.27635566874E+02  0.46092616097E+02  0.47000000000E+01 0.  1.
         11    1    4    4    0    0 -0.40202096479E+02 -0.10658950506E+03  0.56480295938E+02  0.12715170066E+03  0.00000000000E+00 0. -1.
        -12    1    4    4    0    0 -0.20997785235E+02 -0.25286720851E+02  0.81001570123E+02  0.87416128938E+02  0.00000000000E+00 0.  1.
<mgrwt>
<rscale>  2 0.23682902E+03</rscale>
<asrwt>0</asrwt>
<pdfrwt beam="1">  1       21 0.50006500E-01 0.23697736E+03</pdfrwt>
<pdfrwt beam="2">  1       21 0.27052486E-01 0.23697736E+03</pdfrwt>
<totfact> 0.48597429E+04</totfact>
</mgrwt>
</event>
<event>
12    1  0.1026879E-001  0.1954691E+03  0.7546771E-02  0.1153871E+00
         21   -1    0    0  503  502  0.00000000000E+00  0.00000000000E+00  0.28127054278E+02  0.28127054278E+02  0.00000000000E+00 0.  1.
         21   -1    0    0  501  503 -0.00000000000E+00 -0.00000000000E+00 -0.18796979153E+04  0.18796979153E+04  0.00000000000E+00 0. -1.
          6    2    1    2  501    0 -0.80683188014E+02  0.40923134727E+02 -0.14300095215E+04  0.14431507302E+04  0.17196603926E+03 0.  0.
         24    2    3    3    0    0 -0.13575833145E+02  0.78850698242E+02 -0.72621733099E+03  0.73513418053E+03  0.81418153387E+02 0.  0.
         -6    2    1    2    0  502  0.80683188014E+02 -0.40923134727E+02 -0.42156133949E+03  0.46467423937E+03  0.17327350055E+03 0.  0.
        -24    2    5    5    0    0  0.42154498213E+02 -0.47817856623E+00 -0.38992318082E+03  0.40030563288E+03  0.80170333678E+02 0.  0.
          5    1    3    3  501    0 -0.67107354870E+02 -0.37927563515E+02 -0.70379219055E+03  0.70801654969E+03  0.47000000000E+01 0. -1.
        -13    1    4    4    0    0 -0.43077151374E+02  0.66401966304E+02 -0.43310950508E+03  0.44028252917E+03  0.00000000000E+00 0.  1.
         14    1    4    4    0    0  0.29501318229E+02  0.12448731938E+02 -0.29310782591E+03  0.29485165137E+03  0.00000000000E+00 0. -1.
         -5    1    5    5    0  502  0.38528689801E+02 -0.40444956161E+02 -0.31638158674E+02  0.64368606486E+02  0.47000000000E+01 0.  1.
         13    1    6    6    0    0 -0.21884614864E+02 -0.18365631431E+01 -0.16447384816E+03  0.16593358931E+03  0.00000000000E+00 0. -1.
        -14    1    6    6    0    0  0.64039113077E+02  0.13583845769E+01 -0.22544933266E+03  0.23437204357E+03  0.00000000000E+00 0.  1.
<mgrwt>
<rscale>  2 0.19517898E+03</rscale>
<asrwt>0</asrwt>
<pdfrwt beam="1">  1       21 0.43272391E-02 0.19546914E+03</pdfrwt>
<pdfrwt beam="2">  1       21 0.28918429E+00 0.19546914E+03</pdfrwt>
<totfact> 0.13488672E+04</totfact>
</mgrwt>
</event>
<event>
12    1  0.1026879E-001  0.2246835E+03  0.7546771E-02  0.1130867E+00
         21   -1    0    0  501  502  0.00000000000E+00  0.00000000000E+00  0.59970271168E+03  0.59970271168E+03  0.00000000000E+00 0.  1.
         21   -1    0    0  502  503 -0.00000000000E+00 -0.00000000000E+00 -0.10234196972E+03  0.10234196972E+03  0.00000000000E+00 0. -1.
         -6    2    1    2    0  503 -0.84589880750E+02 -0.11348298496E+03  0.98342855239E+02  0.24526311722E+03  0.17449597042E+03 0.  0.
        -24    2    3    3    0    0 -0.95679691895E+02 -0.11763370653E+03  0.29578813502E+02  0.17532889215E+03  0.82903690266E+02 0.  0.
          6    2    1    2  501    0  0.84589880750E+02  0.11348298496E+03  0.39901788672E+03  0.45678156418E+03  0.17146512079E+03 0.  0.
         24    2    5    5    0    0  0.81165473847E+02  0.43924612521E+02  0.35346014462E+03  0.37342875016E+03  0.77445154039E+02 0.  0.
          5    1    5    5  501    0  0.34244069029E+01  0.69558372438E+02  0.45557742104E+02  0.83352814017E+02  0.47000000000E+01 0. -1.
        -13    1    6    6    0    0  0.14203402131E+02 -0.21155279420E+02  0.10367861748E+03  0.10676393681E+03  0.00000000000E+00 0.  1.
         14    1    6    6    0    0  0.66962071716E+02  0.65079891940E+02  0.24978152714E+03  0.26666481336E+03  0.00000000000E+00 0. -1.
         -5    1    3    3    0  503  0.11089811145E+02  0.41507215752E+01  0.68764041736E+02  0.69934225074E+02  0.47000000000E+01 0.  1.
         13    1    4    4    0    0 -0.15697100970E+02 -0.81584996311E+02  0.10908572208E+01  0.83088510466E+02  0.00000000000E+00 0. -1.
        -14    1    4    4    0    0 -0.79982590925E+02 -0.36048710223E+02  0.28487956281E+02  0.92240381683E+02  0.00000000000E+00 0.  1.
<mgrwt>
<rscale>  2 0.22409479E+03</rscale>
<asrwt>0</asrwt>
<pdfrwt beam="1">  1       21 0.92261953E-01 0.22468351E+03</pdfrwt>
<pdfrwt beam="2">  1       21 0.15744919E-01 0.22468351E+03</pdfrwt>
<totfact> 0.35015922E+04</totfact>
</mgrwt>
</event>
<event>
12    1  0.1026879E-001  0.1994676E+03  0.7546771E-02  0.1150883E+00
         21   -1    0    0  503  502  0.00000000000E+00  0.00000000000E+00  0.17180472596E+04  0.17180472596E+04  0.00000000000E+00 0.  1.
         21   -1    0    0  501  503 -0.00000000000E+00 -0.00000000000E+00 -0.72353840712E+02  0.72353840712E+02  0.00000000000E+00 0.  1.
          6    2    1    2  501    0 -0.81821653976E+02 -0.53658759258E+02  0.84006473841E+02  0.21643571608E+03  0.17381969406E+03 0.  0.
         24    2    3    3    0    0 -0.92468079871E+02 -0.45589355471E+02  0.30518741960E+00  0.13154486257E+03  0.81702035474E+02 0.  0.
         -6    2    1    2    0  502  0.81821653976E+02  0.53658759258E+02  0.15616869450E+04  0.15739653842E+04  0.17007901378E+03 0.  0.
        -24    2    5    5    0    0  0.67195085205E+02 -0.11823406446E+02  0.55109551929E+03  0.56113816780E+03  0.80714308284E+02 0.  0.
          5    1    3    3  501    0  0.10646425896E+02 -0.80694037865E+01  0.83701286421E+02  0.84890853515E+02  0.47000000000E+01 0. -1.
        -11    1    4    4    0    0 -0.56518793950E+02  0.15760352430E+02 -0.10545567863E+02  0.59615197558E+02  0.00000000000E+00 0.  1.
         12    1    4    4    0    0 -0.35949285921E+02 -0.61349707902E+02  0.10850755283E+02  0.71929665007E+02  0.00000000000E+00 0. -1.
         -5    1    5    5    0  502  0.14626568770E+02  0.65482165704E+02  0.10105914257E+04  0.10128272164E+04  0.47000000000E+01 0.  1.
         13    1    6    6    0    0  0.37356230417E+01  0.28280698512E+02  0.20646284480E+03  0.20842422861E+03  0.00000000000E+00 0. -1.
        -14    1    6    6    0    0  0.63459462164E+02 -0.40104104958E+02  0.34463267449E+03  0.35271393919E+03  0.00000000000E+00 0.  1.
<mgrwt>
<rscale>  2 0.19864983E+03</rscale>
<asrwt>0</asrwt>
<pdfrwt beam="1">  1       21 0.26431493E+00 0.19946762E+03</pdfrwt>
<pdfrwt beam="2">  1       21 0.11131361E-01 0.19946762E+03</pdfrwt>
<totfact> 0.36527928E+03</totfact>
</mgrwt>
</event>
<event>
12    1  0.1026879E-001  0.1881374E+03  0.7546771E-02  0.1160843E+00
         21   -1    0    0  503  502  0.00000000000E+00  0.00000000000E+00  0.18717708659E+03  0.18717708659E+03  0.00000000000E+00 0.  1.
         21   -1    0    0  501  503 -0.00000000000E+00 -0.00000000000E+00 -0.24360346956E+03  0.24360346956E+03  0.00000000000E+00 0.  1.
          6    2    1    2  501    0 -0.13124020673E+02  0.68040689434E+02 -0.13303283911E+03  0.23042006807E+03  0.17491110928E+03 0.  0.
         24    2    3    3    0    0 -0.71192001453E+02  0.65268239790E+02 -0.72267231387E+02  0.14619343362E+03  0.82593723150E+02 0.  0.
         -6    2    1    2    0  502  0.13124020673E+02 -0.68040689434E+02  0.76606456133E+02  0.20036048808E+03  0.17167993688E+03 0.  0.
        -24    2    5    5    0    0  0.61339705271E+02 -0.39834553641E+02  0.90562473731E+02  0.14259199524E+03  0.82350254116E+02 0.  0.
          5    1    3    3  501    0  0.58067980780E+02  0.27724496437E+01 -0.60765607723E+02  0.84226634450E+02  0.47000000000E+01 0. -1.
        -13    1    4    4    0    0 -0.37473907400E+02 -0.11622480738E+02 -0.40602679898E+02  0.56461964270E+02  0.00000000000E+00 0.  1.
         14    1    4    4    0    0 -0.33718094053E+02  0.76890720528E+02 -0.31664551489E+02  0.89731469345E+02  0.00000000000E+00 0. -1.
         -5    1    5    5    0  502 -0.48215684597E+02 -0.28206135792E+02 -0.13956017598E+02  0.57768492838E+02  0.47000000000E+01 0.  1.
         11    1    6    6    0    0  0.13714516738E+02  0.25573868061E+02  0.27882615824E+02  0.40243644991E+02  0.00000000000E+00 0. -1.
        -12    1    6    6    0    0  0.47625188532E+02 -0.65408421702E+02  0.62679857907E+02  0.10234835025E+03  0.00000000000E+00 0.  1.
<mgrwt>
<rscale>  2 0.18738280E+03</rscale>
<asrwt>0</asrwt>
<pdfrwt beam="1">  1       21 0.28796475E-01 0.18813737E+03</pdfrwt>
<pdfrwt beam="2">  1       21 0.37477457E-01 0.18813737E+03</pdfrwt>
<totfact> 0.79380139E+04</totfact>
</mgrwt>
</event>
<event>
12    1  0.1026879E-001  0.4720496E+03  0.7546771E-02  0.1021627E+00
         21   -1    0    0  503  502  0.00000000000E+00  0.00000000000E+00  0.10517595272E+03  0.10517595272E+03  0.00000000000E+00 0. -1.
         21   -1    0    0  501  503 -0.00000000000E+00 -0.00000000000E+00 -0.22008080985E+04  0.22008080985E+04  0.00000000000E+00 0.  1.
          6    2    1    2  501    0 -0.31653017313E+03 -0.29795619161E+03 -0.80608906700E+03  0.93413616889E+03  0.18401509579E+03 0.  0.
         24    2    3    3    0    0 -0.13925425256E+03 -0.15896487414E+03 -0.53934699008E+03  0.58496749339E+03  0.81426129465E+02 0.  0.
         -6    2    1    2    0  502  0.31653017313E+03  0.29795619161E+03 -0.12895430788E+04  0.13718478824E+04  0.17342438584E+03 0.  0.
        -24    2    5    5    0    0  0.16373764552E+03  0.78776234195E+02 -0.48315949957E+03  0.52234098004E+03  0.79882950410E+02 0.  0.
          5    1    3    3  501    0 -0.17727592057E+03 -0.13899131748E+03 -0.26674207692E+03  0.34916867550E+03  0.47000000000E+01 0. -1.
        -13    1    4    4    0    0 -0.80751576487E+02 -0.32389146839E+02 -0.21189240768E+03  0.22905952583E+03  0.00000000000E+00 0.  1.
         14    1    4    4    0    0 -0.58502676070E+02 -0.12657572730E+03 -0.32745458239E+03  0.35590796757E+03  0.00000000000E+00 0. -1.
         -5    1    5    5    0  502  0.15279252761E+03  0.21917995742E+03 -0.80638357923E+03  0.84950690232E+03  0.47000000000E+01 0.  1.
         11    1    6    6    0    0  0.68457071187E+01  0.34621233467E+02 -0.95481040330E+02  0.10179451152E+03  0.00000000000E+00 0. -1.
        -12    1    6    6    0    0  0.15689193840E+03  0.44155000729E+02 -0.38767845924E+03  0.42054646852E+03  0.00000000000E+00 0.  1.
<mgrwt>
<rscale>  2 0.47103962E+03</rscale>
<asrwt>0</asrwt>
<pdfrwt beam="1">  1       21 0.16180916E-01 0.47204957E+03</pdfrwt>
<pdfrwt beam="2">  1       21 0.33858586E+00 0.47204957E+03</pdfrwt>
<totfact> 0.54289512E+02</totfact>
</mgrwt>
</event>
<event>
12    1  0.1026879E-001  0.1727064E+03  0.7546771E-02  0.1175886E+00
         21   -1    0    0  503  502  0.00000000000E+00  0.00000000000E+00  0.60957314616E+03  0.60957314616E+03  0.00000000000E+00 0.  1.
         21   -1    0    0  501  503 -0.00000000000E+00 -0.00000000000E+00 -0.78228587059E+03  0.78228587059E+03  0.00000000000E+00 0.  1.
          6    2    1    2  501    0 -0.98555850454E+00  0.13741484233E+01 -0.76063476576E+03  0.77999535683E+03  0.17269814759E+03 0.  0.
         24    2    3    3    0    0  0.55057564137E+02  0.38900564239E+02 -0.44717851648E+03  0.45933046369E+03  0.80444142136E+02 0.  0.
         -6    2    1    2    0  502  0.98555850454E+00 -0.13741484233E+01  0.58792204133E+03  0.61186365992E+03  0.16947552048E+03 0.  0.
        -24    2    5    5    0    0  0.34163259238E+01 -0.58384967505E+02  0.23949149964E+03  0.25876017012E+03  0.78614067006E+02 0.  0.
          5    1    3    3  501    0 -0.56043122641E+02 -0.37526415816E+02 -0.31345624928E+03  0.32066489314E+03  0.47000000000E+01 0. -1.
        -11    1    4    4    0    0 -0.94816340234E+01 -0.16969751498E+02 -0.93057171566E+02  0.95065824719E+02  0.00000000000E+00 0.  1.
         12    1    4    4    0    0  0.64539198160E+02  0.55870315737E+02 -0.35412134492E+03  0.36426463897E+03  0.00000000000E+00 0. -1.
         -5    1    5    5    0  502 -0.24307674193E+01  0.57010819082E+02  0.34843054169E+03  0.35310348979E+03  0.47000000000E+01 0.  1.
         11    1    6    6    0    0 -0.62808762872E+00  0.18745392231E+02  0.28909481742E+02  0.34460736477E+02  0.00000000000E+00 0. -1.
        -12    1    6    6    0    0  0.40444135526E+01 -0.77130359736E+02  0.21058201789E+03  0.22429943365E+03  0.00000000000E+00 0.  1.
<mgrwt>
<rscale>  2 0.17189511E+03</rscale>
<asrwt>0</asrwt>
<pdfrwt beam="1">  1       21 0.93780485E-01 0.17270643E+03</pdfrwt>
<pdfrwt beam="2">  1       21 0.12035167E+00 0.17270643E+03</pdfrwt>
<totfact> 0.51240483E+02</totfact>
</mgrwt>
</event>
<event>
12    1  0.1026879E-001  0.2045976E+03  0.7546771E-02  0.1145967E+00
         21   -1    0    0  503  502  0.00000000000E+00  0.00000000000E+00  0.16307811100E+04  0.16307811100E+04  0.00000000000E+00 0.  1.
         21   -1    0    0  501  503 -0.00000000000E+00 -0.00000000000E+00 -0.39606511944E+02  0.39606511944E+02  0.00000000000E+00 0.  1.
          6    2    1    2  501    0 -0.75358696498E+02  0.78097730149E+02  0.29989959306E+03  0.36304262955E+03  0.17344162235E+03 0.  0.
         24    2    3    3    0    0 -0.56963331153E+02  0.67298264273E+02  0.31508942231E+03  0.33643738867E+03  0.78325570346E+02 0.  0.
         -6    2    1    2    0  502  0.75358696498E+02 -0.78097730149E+02  0.12912750050E+04  0.13073449924E+04  0.17315196218E+03 0.  0.
        -24    2    5    5    0    0  0.11923410320E+03 -0.54970726035E+02  0.10017757113E+04  0.10135902636E+04  0.81068456492E+02 0.  0.
          5    1    3    3  501    0 -0.18395365345E+02  0.10799465876E+02 -0.15189829259E+02  0.26605240880E+02  0.47000000000E+01 0. -1.
        -13    1    4    4    0    0 -0.48366585696E+02  0.61345140317E+02  0.13446167939E+03  0.15550722194E+03  0.00000000000E+00 0.  1.
         14    1    4    4    0    0 -0.85967454569E+01  0.59531239561E+01  0.18062774292E+03  0.18093016672E+03  0.00000000000E+00 0. -1.
         -5    1    5    5    0  502 -0.43875406703E+02 -0.23127004115E+02  0.28949929372E+03  0.29375472881E+03  0.47000000000E+01 0.  1.
         13    1    6    6    0    0 -0.10025745641E+02 -0.16710793315E+02  0.12174317127E+03  0.12329300848E+03  0.00000000000E+00 0. -1.
        -14    1    6    6    0    0  0.12925984884E+03 -0.38259932720E+02  0.88003254002E+03  0.89029725511E+03  0.00000000000E+00 0.  1.
<mgrwt>
<rscale>  2 0.20453622E+03</rscale>
<asrwt>0</asrwt>
<pdfrwt beam="1">  1       21 0.25088935E+00 0.20459762E+03</pdfrwt>
<pdfrwt beam="2">  1       21 0.60933108E-02 0.20459762E+03</pdfrwt>
<totfact> 0.12479173E+04</totfact>
</mgrwt>
</event>
<event>
12    1  0.1026879E-001  0.1741636E+03  0.7546771E-02  0.1173990E+00
         21   -1    0    0  501  502  0.00000000000E+00  0.00000000000E+00  0.30548195469E+03  0.30548195469E+03  0.00000000000E+00 0.  1.
         21   -1    0    0  502  503 -0.00000000000E+00 -0.00000000000E+00 -0.13205746577E+03  0.13205746577E+03  0.00000000000E+00 0.  1.
         -6    2    1    2    0  503 -0.19660919656E+02 -0.14143481934E+02 -0.23487141533E+02  0.17574015341E+03  0.17247134794E+03 0.  0.
        -24    2    3    3    0    0  0.36067717956E+02 -0.33123823531E+02  0.27259328298E+02  0.97873417138E+02  0.80237565013E+02 0.  0.
          6    2    1    2  501    0  0.19660919656E+02  0.14143481934E+02  0.19691163045E+03  0.26179926705E+03  0.17081591313E+03 0.  0.
         24    2    5    5    0    0  0.35622918618E+02  0.50916982887E+02  0.19671888014E+03  0.22143588097E+03  0.80461171372E+02 0.  0.
          5    1    5    5  501    0 -0.15961998962E+02 -0.36773500952E+02  0.19275030136E+00  0.40363386080E+02  0.47000000000E+01 0. -1.
        -11    1    6    6    0    0  0.36100756587E+02  0.43987494356E+02  0.20375310490E+03  0.21155021163E+03  0.00000000000E+00 0.  1.
         12    1    6    6    0    0 -0.47783796831E+00  0.69294885305E+01 -0.70342247526E+01  0.98856693394E+01  0.00000000000E+00 0. -1.
         -5    1    3    3    0  503 -0.55728637612E+02  0.18980341597E+02 -0.50746469831E+02  0.77866736272E+02  0.47000000000E+01 0.  1.
         13    1    4    4    0    0  0.42491294550E+02  0.15087359677E+02  0.16842131816E+02  0.48133106472E+02  0.00000000000E+00 0. -1.
        -14    1    4    4    0    0 -0.64235765937E+01 -0.48211183209E+02  0.10417196481E+02  0.49740310666E+02  0.00000000000E+00 0.  1.
<mgrwt>
<rscale>  2 0.17375234E+03</rscale>
<asrwt>0</asrwt>
<pdfrwt beam="1">  1       21 0.46997223E-01 0.17416359E+03</pdfrwt>
<pdfrwt beam="2">  1       21 0.20316533E-01 0.17416359E+03</pdfrwt>
<totfact> 0.97824018E+04</totfact>
</mgrwt>
</event>
<event>
12    1  0.1026879E-001  0.2511221E+03  0.7546771E-02  0.1112733E+00
         21   -1    0    0  503  502  0.00000000000E+00  0.00000000000E+00  0.41228894737E+03  0.41228894737E+03  0.00000000000E+00 0.  1.
         21   -1    0    0  501  503 -0.00000000000E+00 -0.00000000000E+00 -0.15352355155E+03  0.15352355155E+03  0.00000000000E+00 0. -1.
          6    2    1    2  501    0 -0.90793469314E+02  0.15783668855E+03  0.10574917086E+03  0.27247967129E+03  0.17293469809E+03 0.  0.
         24    2    3    3    0    0 -0.84360649883E+02  0.26522329303E+02  0.57317862746E+02  0.13229221209E+03  0.79973363003E+02 0.  0.
         -6    2    1    2    0  502  0.90793469314E+02 -0.15783668855E+03  0.15301622495E+03  0.29333282763E+03  0.17168083278E+03 0.  0.
        -24    2    5    5    0    0  0.28398558361E+02 -0.79526665481E+02  0.74490341164E+01  0.11659154306E+03  0.80044557362E+02 0.  0.
          5    1    3    3  501    0 -0.64328194311E+01  0.13131435924E+03  0.48431308117E+02  0.14018745919E+03  0.47000000000E+01 0. -1.
        -11    1    4    4    0    0 -0.20644457317E+02 -0.22198670990E+02  0.40077630183E+02  0.50251279116E+02  0.00000000000E+00 0.  1.
         12    1    4    4    0    0 -0.63716192566E+02  0.48721000293E+02  0.17240232562E+02  0.82040932976E+02  0.00000000000E+00 0. -1.
         -5    1    5    5    0  502  0.62394910953E+02 -0.78310023065E+02  0.14556719084E+03  0.17674128458E+03  0.47000000000E+01 0.  1.
         13    1    6    6    0    0  0.34138408631E+02 -0.89697122003E+01  0.25489982118E+02  0.43538785803E+02  0.00000000000E+00 0. -1.
        -14    1    6    6    0    0 -0.57398502692E+01 -0.70556953281E+02 -0.18040948002E+02  0.73052757253E+02  0.00000000000E+00 0.  1.
<mgrwt>
<rscale>  2 0.25090632E+03</rscale>
<asrwt>0</asrwt>
<pdfrwt beam="1">  1       21 0.63429069E-01 0.25112205E+03</pdfrwt>
<pdfrwt beam="2">  1       21 0.23619008E-01 0.25112205E+03</pdfrwt>
<totfact> 0.37722954E+04</totfact>
</mgrwt>
</event>
<event>
12    1  0.1026879E-001  0.2356085E+03  0.7546771E-02  0.1122967E+00
         21   -1    0    0  503  502  0.00000000000E+00  0.00000000000E+00  0.15200218883E+03  0.15200218883E+03  0.00000000000E+00 0.  1.
         21   -1    0    0  501  503 -0.00000000000E+00 -0.00000000000E+00 -0.10348174575E+04  0.10348174575E+04  0.00000000000E+00 0.  1.
          6    2    1    2  501    0 -0.89434827798E+01 -0.15768634717E+03 -0.91903217658E+03  0.94844380202E+03  0.17314887823E+03 0.  0.
         24    2    3    3    0    0  0.25065183094E+02 -0.15933865989E+03 -0.86566781276E+03  0.88496809944E+03  0.88151591234E+02 0.  0.
         -6    2    1    2    0  502  0.89434827798E+01  0.15768634717E+03  0.36216907948E+02  0.23837584427E+03  0.17483251626E+03 0.  0.
        -24    2    5    5    0    0 -0.46227493745E+02  0.14534716408E+03  0.52434369053E+02  0.17937424993E+03  0.78504644421E+02 0.  0.
          5    1    3    3  501    0 -0.34008665874E+02  0.16523127298E+01 -0.53364363814E+02  0.63475702573E+02  0.47000000000E+01 0. -1.
        -13    1    4    4    0    0 -0.21843873861E+02 -0.18880081107E+02 -0.25373154549E+03  0.25536896731E+03  0.00000000000E+00 0.  1.
         14    1    4    4    0    0  0.46909056955E+02 -0.14045857879E+03 -0.61193626728E+03  0.62959913214E+03  0.00000000000E+00 0. -1.
         -5    1    5    5    0  502  0.55170976524E+02  0.12339183085E+02 -0.16217461105E+02  0.59001594339E+02  0.47000000000E+01 0.  1.
         11    1    6    6    0    0 -0.35571417144E+02  0.30205235629E+02 -0.10343361831E+02  0.47798191503E+02  0.00000000000E+00 0. -1.
        -12    1    6    6    0    0 -0.10656076601E+02  0.11514192845E+03  0.62777730884E+02  0.13157605843E+03  0.00000000000E+00 0.  1.
<mgrwt>
<rscale>  2 0.23529625E+03</rscale>
<asrwt>0</asrwt>
<pdfrwt beam="1">  1       21 0.23384953E-01 0.23560853E+03</pdfrwt>
<pdfrwt beam="2">  1       21 0.15920268E+00 0.23560853E+03</pdfrwt>
<totfact> 0.42367885E+03</totfact>
</mgrwt>
</event>
<event>
12    1  0.1026879E-001  0.1979166E+03  0.7546771E-02  0.1151522E+00
         21   -1    0    0  501  502  0.00000000000E+00  0.00000000000E+00  0.21256742396E+03  0.21256742396E+03  0.00000000000E+00 0.  1.
         21   -1    0    0  502  503 -0.00000000000E+00 -0.00000000000E+00 -0.24942945448E+03  0.24942945448E+03  0.00000000000E+00 0. -1.
         -6    2    1    2    0  503  0.88521862476E+02 -0.38894305009E+02 -0.13654491075E+03  0.24044855496E+03  0.17269078676E+03 0.  0.
        -24    2    3    3    0    0  0.35188598762E+02 -0.88068516407E+02 -0.89439056865E+02  0.15382528121E+03  0.81661319983E+02 0.  0.
          6    2    1    2  501    0 -0.88521862476E+02  0.38894305009E+02  0.99682880228E+02  0.22154832347E+03  0.17262124992E+03 0.  0.
         24    2    5    5    0    0 -0.15373698416E+02 -0.25415081544E+02 -0.14710726316E+00  0.81997373972E+02  0.76428206343E+02 0.  0.
          5    1    5    5  501    0 -0.73148164061E+02  0.64309386553E+02  0.99829987492E+02  0.13955094950E+03  0.47000000000E+01 0. -1.
        -11    1    6    6    0    0  0.53366161584E+01 -0.28455302575E+02  0.32305219364E+02  0.43379844569E+02  0.00000000000E+00 0.  1.
         12    1    6    6    0    0 -0.20710314574E+02  0.30402210309E+01 -0.32452326627E+02  0.38617529403E+02  0.00000000000E+00 0. -1.
         -5    1    3    3    0  503  0.53333263714E+02  0.49174211398E+02 -0.47105853883E+02  0.86623273750E+02  0.47000000000E+01 0.  1.
         13    1    4    4    0    0  0.58507438689E+02 -0.38183825392E+02 -0.45466991825E+02  0.83356896830E+02  0.00000000000E+00 0. -1.
        -14    1    4    4    0    0 -0.23318839927E+02 -0.49884691015E+02 -0.43972065039E+02  0.70468384380E+02  0.00000000000E+00 0.  1.
<mgrwt>
<rscale>  2 0.19790147E+03</rscale>
<asrwt>0</asrwt>
<pdfrwt beam="1">  1       21 0.32702681E-01 0.19791664E+03</pdfrwt>
<pdfrwt beam="2">  1       21 0.38373762E-01 0.19791664E+03</pdfrwt>
<totfact> 0.58791616E+04</totfact>
</mgrwt>
</event>
<event>
12    1  0.1026879E-001  0.2756161E+03  0.7546771E-02  0.1098673E+00
         21   -1    0    0  501  502  0.00000000000E+00  0.00000000000E+00  0.27920979138E+03  0.27920979138E+03  0.00000000000E+00 0.  1.
         21   -1    0    0  502  503 -0.00000000000E+00 -0.00000000000E+00 -0.26862007818E+03  0.26862007818E+03  0.00000000000E+00 0. -1.
         -6    2    1    2    0  503 -0.74070736451E+02  0.19769176765E+03 -0.66467665643E+01  0.27167537418E+03  0.17086491869E+03 0.  0.
        -24    2    3    3    0    0 -0.74837954399E+02  0.14464381504E+03  0.55579685714E+02  0.18976752803E+03  0.80000378633E+02 0.  0.
          6    2    1    2  501    0  0.74070736451E+02 -0.19769176765E+03  0.17236479772E+02  0.27615449537E+03  0.17718831814E+03 0.  0.
         24    2    5    5    0    0  0.47373882586E+02 -0.16574929804E+03 -0.52525704675E+02  0.19477946389E+03  0.73911943201E+02 0.  0.
          5    1    5    5  501    0  0.26696853865E+02 -0.31942469603E+02  0.69762184446E+02  0.81375031486E+02  0.47000000000E+01 0. -1.
        -11    1    6    6    0    0  0.15894256797E+01 -0.21014827198E+02  0.17697905432E+02  0.27520266947E+02  0.00000000000E+00 0.  1.
         12    1    6    6    0    0  0.45784456906E+02 -0.14473447084E+03 -0.70223610106E+02  0.16725919694E+03  0.00000000000E+00 0. -1.
         -5    1    3    3    0  503  0.76721794768E+00  0.53047952606E+02 -0.62226452278E+02  0.81907846158E+02  0.47000000000E+01 0.  1.
         11    1    4    4    0    0 -0.75928784748E+02  0.10914600762E+03  0.11926716185E+02  0.13349261362E+03  0.00000000000E+00 0. -1.
        -12    1    4    4    0    0  0.10908303489E+01  0.35497807416E+02  0.43652969529E+02  0.56274914402E+02  0.00000000000E+00 0.  1.
<mgrwt>
<rscale>  2 0.27460500E+03</rscale>
<asrwt>0</asrwt>
<pdfrwt beam="1">  1       21 0.42955353E-01 0.27561605E+03</pdfrwt>
<pdfrwt beam="2">  1       21 0.41326166E-01 0.27561605E+03</pdfrwt>
<totfact> 0.28238713E+04</totfact>
</mgrwt>
</event>
<event>
12    1  0.1026879E-001  0.1944819E+03  0.7546771E-02  0.1154525E+00
         21   -1    0    0  501  502  0.00000000000E+00  0.00000000000E+00  0.74283298095E+03  0.74283298095E+03  0.00000000000E+00 0. -1.
         21   -1    0    0  502  503 -0.00000000000E+00 -0.00000000000E+00 -0.19200987815E+03  0.19200987815E+03  0.00000000000E+00 0. -1.
         -6    2    1    2    0  503  0.19983586785E+02 -0.86238698277E+02 -0.12530691129E+03  0.23135475399E+03  0.17316680789E+03 0.  0.
        -24    2    3    3    0    0 -0.25039323540E+01  0.21581689125E+02 -0.34253481368E+02  0.88373141338E+02  0.78514152492E+02 0.  0.
          6    2    1    2  501    0 -0.19983586785E+02  0.86238698277E+02  0.67613001408E+03  0.70348810511E+03  0.17293715987E+03 0.  0.
         24    2    5    5    0    0 -0.37936872562E+01 -0.40765472860E+01  0.16133989782E+03  0.18056372221E+03  0.80880682793E+02 0.  0.
          5    1    5    5  501    0 -0.16189899528E+02  0.90315245563E+02  0.51479011626E+03  0.52292438290E+03  0.47000000000E+01 0. -1.
        -13    1    6    6    0    0  0.30253143007E+02 -0.54677083707E+01  0.23837714098E+02  0.38902250707E+02  0.00000000000E+00 0.  1.
         14    1    6    6    0    0 -0.34046830263E+02  0.13911610847E+01  0.13750218372E+03  0.14166147151E+03  0.00000000000E+00 0. -1.
         -5    1    3    3    0  503  0.22487519139E+02 -0.10782038740E+03 -0.91053429923E+02  0.14298161265E+03  0.47000000000E+01 0.  1.
         11    1    4    4    0    0 -0.24869354230E+02  0.22708175895E+02 -0.50505285710E+02  0.60703623589E+02  0.00000000000E+00 0. -1.
        -12    1    4    4    0    0  0.22365421876E+02 -0.11264867699E+01  0.16251804341E+02  0.27669517749E+02  0.00000000000E+00 0.  1.
<mgrwt>
<rscale>  2 0.19443074E+03</rscale>
<asrwt>0</asrwt>
<pdfrwt beam="1">  1       21 0.11428200E+00 0.19448188E+03</pdfrwt>
<pdfrwt beam="2">  1       21 0.29539982E-01 0.19448188E+03</pdfrwt>
<totfact> 0.65282079E+03</totfact>
</mgrwt>
</event>
<event>
12    1  0.1026879E-001  0.2125025E+03  0.7546771E-02  0.1140833E+00
         21   -1    0    0  503  502  0.00000000000E+00  0.00000000000E+00  0.64160070532E+02  0.64160070532E+02  0.00000000000E+00 0. -1.
         21   -1    0    0  501  503 -0.00000000000E+00 -0.00000000000E+00 -0.79502294165E+03  0.79502294165E+03  0.00000000000E+00 0. -1.
          6    2    1    2  501    0 -0.92756183390E+02 -0.59809106143E+02 -0.52175173223E+03  0.56104747476E+03  0.17426577435E+03 0.  0.
         24    2    3    3    0    0 -0.23075698277E+02  0.31949063265E+02 -0.23184640323E+03  0.24905048528E+03  0.81976576129E+02 0.  0.
         -6    2    1    2    0  502  0.92756183390E+02  0.59809106143E+02 -0.20911113889E+03  0.29813553742E+03  0.18159430479E+03 0.  0.
        -24    2    5    5    0    0  0.27516820860E+02  0.13666028046E+02 -0.72354126948E+01  0.80969110679E+02  0.74563462463E+02 0.  0.
          5    1    3    3  501    0 -0.69680485113E+02 -0.91758169408E+02 -0.28990532900E+03  0.31199698947E+03  0.47000000000E+01 0. -1.
        -11    1    4    4    0    0 -0.53496066408E+02  0.17061364991E+02 -0.16133441954E+03  0.17082656183E+03  0.00000000000E+00 0.  1.
         12    1    4    4    0    0  0.30420368131E+02  0.14887698274E+02 -0.70511983690E+02  0.78223923457E+02  0.00000000000E+00 0. -1.
         -5    1    5    5    0  502  0.65239362530E+02  0.46143078097E+02 -0.20187572619E+03  0.21716642674E+03  0.47000000000E+01 0.  1.
         11    1    6    6    0    0  0.38824675067E+02  0.23804535974E+02 -0.29322190166E+02  0.54164584031E+02  0.00000000000E+00 0. -1.
        -12    1    6    6    0    0 -0.11307854207E+02 -0.10138507928E+02  0.22086777472E+02  0.26804526649E+02  0.00000000000E+00 0.  1.
<mgrwt>
<rscale>  2 0.21092826E+03</rscale>
<asrwt>0</asrwt>
<pdfrwt beam="1">  1       21 0.98707803E-02 0.21250254E+03</pdfrwt>
<pdfrwt beam="2">  1       21 0.12231122E+00 0.21250254E+03</pdfrwt>
<totfact> 0.41365547E+04</totfact>
</mgrwt>
</event>
<event>
12    1  0.1026879E-001  0.2771267E+03  0.7546771E-02  0.1097316E+00
         21   -1    0    0  503  502  0.00000000000E+00  0.00000000000E+00  0.15394719874E+03  0.15394719874E+03  0.00000000000E+00 0.  1.
         21   -1    0    0  501  503 -0.00000000000E+00 -0.00000000000E+00 -0.73443394804E+03  0.73443394804E+03  0.00000000000E+00 0. -1.
          6    2    1    2  501    0  0.91402123607E+02 -0.19675648932E+03 -0.54201397714E+03  0.60859667582E+03  0.17188163983E+03 0.  0.
         24    2    3    3    0    0  0.47001092612E+02 -0.19596205291E+03 -0.33419735786E+03  0.39603628456E+03  0.67428746089E+02 0.  0.
         -6    2    1    2    0  502 -0.91402123607E+02  0.19675648932E+03 -0.38472772153E+02  0.27978447096E+03  0.17242891784E+03 0.  0.
        -24    2    5    5    0    0 -0.97133376395E+02  0.92486900376E+02  0.23171982219E+02  0.15842895944E+03  0.81080668948E+02 0.  0.
          5    1    3    3  501    0  0.44401030995E+02 -0.79443641087E+00 -0.20781661928E+03  0.21256039126E+03  0.47000000000E+01 0. -1.
        -13    1    4    4    0    0  0.64158361340E+02 -0.15877628484E+03 -0.27771259043E+03  0.32626750809E+03  0.00000000000E+00 0.  1.
         14    1    4    4    0    0 -0.17157268728E+02 -0.37185768070E+02 -0.56484767433E+02  0.69768776463E+02  0.00000000000E+00 0. -1.
         -5    1    5    5    0  502  0.57312527880E+01  0.10426958894E+03 -0.61644754372E+02  0.12135551153E+03  0.47000000000E+01 0.  1.
         13    1    6    6    0    0  0.12655108130E+02  0.38790982248E+01 -0.57151622071E+01  0.14417428476E+02  0.00000000000E+00 0. -1.
        -14    1    6    6    0    0 -0.10978848452E+03  0.88607802151E+02  0.28887144426E+02  0.14401153096E+03  0.00000000000E+00 0.  1.
<mgrwt>
<rscale>  2 0.27704159E+03</rscale>
<asrwt>0</asrwt>
<pdfrwt beam="1">  1       21 0.23684184E-01 0.27712668E+03</pdfrwt>
<pdfrwt beam="2">  1       21 0.11298984E+00 0.27712668E+03</pdfrwt>
<totfact> 0.97549689E+03</totfact>
</mgrwt>
</event>
<event>
12    1  0.1026879E-001  0.1762995E+03  0.7546771E-02  0.1171857E+00
         21   -1    0    0  501  502  0.00000000000E+00  0.00000000000E+00  0.40101602577E+03  0.40101602577E+03  0.00000000000E+00 0.  1.
         21   -1    0    0  502  503 -0.00000000000E+00 -0.00000000000E+00 -0.33240178793E+03  0.33240178793E+03  0.00000000000E+00 0.  1.
         -6    2    1    2    0  503  0.10953675198E+02 -0.23738009714E+02 -0.28724415736E+03  0.33703222111E+03  0.17435032556E+03 0.  0.
        -24    2    3    3    0    0 -0.59964403173E+02  0.30103236527E+01 -0.15641726838E+03  0.18576222389E+03  0.80227490806E+02 0.  0.
          6    2    1    2  501    0 -0.10953675198E+02  0.23738009714E+02  0.35585839520E+03  0.39638559260E+03  0.17263506156E+03 0.  0.
         24    2    5    5    0    0 -0.28074957913E+01 -0.33842265447E+02  0.30951509926E+03  0.32187626832E+03  0.81557062669E+02 0.  0.
          5    1    5    5  501    0 -0.81461794072E+01  0.57580275160E+02  0.46343295938E+02  0.74509324282E+02  0.47000000000E+01 0. -1.
        -11    1    6    6    0    0 -0.13096780323E+02  0.12205960335E+01  0.26002575551E+03  0.26035823213E+03  0.00000000000E+00 0.  1.
         12    1    6    6    0    0  0.10289284532E+02 -0.35062861480E+02  0.49489343757E+02  0.61518036192E+02  0.00000000000E+00 0. -1.
         -5    1    3    3    0  503  0.70918078371E+02 -0.26748333366E+02 -0.13082688898E+03  0.15126999722E+03  0.47000000000E+01 0.  1.
         13    1    4    4    0    0 -0.45083822837E+02 -0.10601061025E+02 -0.15883649507E+03  0.16545079553E+03  0.00000000000E+00 0. -1.
        -14    1    4    4    0    0 -0.14880580336E+02  0.13611384678E+02  0.24192266940E+01  0.20311428354E+02  0.00000000000E+00 0.  1.
<mgrwt>
<rscale>  2 0.17587393E+03</rscale>
<asrwt>0</asrwt>
<pdfrwt beam="1">  1       21 0.61694773E-01 0.17629950E+03</pdfrwt>
<pdfrwt beam="2">  1       21 0.51138736E-01 0.17629950E+03</pdfrwt>
<totfact> 0.89761452E+03</totfact>
</mgrwt>
</event>
<event>
11    1  0.1026879E-001  0.1823119E+03  0.7546771E-02  0.1166159E+00
         21   -1    0    0  503  502  0.00000000000E+00  0.00000000000E+00  0.12702910827E+04  0.12702910827E+04  0.00000000000E+00 0.  1.
         21   -1    0    0  501  503 -0.00000000000E+00 -0.00000000000E+00 -0.52768058355E+02  0.52768058355E+02  0.00000000000E+00 0.  1.
          6    2    1    2  501    0 -0.38303766034E+02 -0.36697907979E+02  0.13406673821E+03  0.22437121394E+03  0.17191461952E+03 0.  0.
         24    2    3    3    0    0 -0.68418400445E+02 -0.15766817620E+02  0.25048263896E+02  0.10925336349E+03  0.79869968398E+02 0.  0.
         -6    2    1    2    0  502  0.38303766034E+02  0.36697907979E+02  0.10834562861E+04  0.10986879271E+04  0.17442397283E+03 0.  0.
          5    1    3    3  501    0  0.30114634411E+02 -0.20931090359E+02  0.10901847432E+03  0.11511785045E+03  0.47000000000E+01 0. -1.
        -13    1    4    4    0    0 -0.44498324959E+02  0.30148944962E+02  0.59839814646E+01  0.54082047304E+02  0.00000000000E+00 0.  1.
         14    1    4    4    0    0 -0.23920075486E+02 -0.45915762582E+02  0.19064282431E+02  0.55171316183E+02  0.00000000000E+00 0. -1.
         -5    1    5    5    0  502  0.42046941143E+02  0.77272492009E+02  0.90563578032E+03  0.90991056697E+03  0.47000000000E+01 0.  1.
         13    1    5    5    0    0 -0.24032735734E+02 -0.14536476483E+02  0.10727209568E+03  0.11088816009E+03  0.00000000000E+00 0. -1.
        -14    1    5    5    0    0  0.20289560625E+02 -0.26038107546E+02  0.70548410102E+02  0.77889200040E+02  0.00000000000E+00 0.  1.
<mgrwt>
<rscale>  2 0.18170911E+03</rscale>
<asrwt>0</asrwt>
<pdfrwt beam="1">  1       21 0.19542937E+00 0.18231192E+03</pdfrwt>
<pdfrwt beam="2">  1       21 0.81181638E-02 0.18231192E+03</pdfrwt>
<totfact> 0.16947306E+04</totfact>
</mgrwt>
</event>
<event>
12    1  0.1026879E-001  0.2378589E+03  0.7546771E-02  0.1122305E+00
         21   -1    0    0  501  502  0.00000000000E+00  0.00000000000E+00  0.29699482821E+03  0.29699482821E+03  0.00000000000E+00 0. -1.
         21   -1    0    0  502  503 -0.00000000000E+00 -0.00000000000E+00 -0.28523377209E+03  0.28523377209E+03  0.00000000000E+00 0.  1.
         -6    2    1    2    0  503  0.48414588655E+02  0.14712398326E+03  0.17808009816E+03  0.29713528600E+03  0.18051985481E+03 0.  0.
        -24    2    3    3    0    0 -0.91816966889E+01  0.13437748236E+03  0.17518205958E+03  0.23788755188E+03  0.88091554756E+02 0.  0.
          6    2    1    2  501    0 -0.48414588655E+02 -0.14712398326E+03 -0.16631904204E+03  0.28509331430E+03  0.17212418560E+03 0.  0.
         24    2    5    5    0    0 -0.50603470351E+02 -0.16649242692E+03 -0.10290826272E+03  0.21858809084E+03  0.83127633726E+02 0.  0.
          5    1    5    5  501    0  0.21888816961E+01  0.19368443657E+02 -0.63410779326E+02  0.66505223460E+02  0.47000000000E+01 0. -1.
        -13    1    6    6    0    0 -0.16946355239E+02 -0.41389260905E+02  0.11026652662E+02  0.46063401341E+02  0.00000000000E+00 0.  1.
         14    1    6    6    0    0 -0.33657115112E+02 -0.12510316602E+03 -0.11393491538E+03  0.17252468950E+03  0.00000000000E+00 0. -1.
         -5    1    3    3    0  503  0.57596285344E+02  0.12746500903E+02  0.28980385729E+01  0.59247734119E+02  0.47000000000E+01 0.  1.
         11    1    4    4    0    0 -0.16864848516E+02  0.45188760833E+01  0.65332737799E+02  0.67625512825E+02  0.00000000000E+00 0. -1.
        -12    1    4    4    0    0  0.76831518275E+01  0.12985860628E+03  0.10984932179E+03  0.17026203906E+03  0.00000000000E+00 0.  1.
<mgrwt>
<rscale>  2 0.23626617E+03</rscale>
<asrwt>0</asrwt>
<pdfrwt beam="1">  1       21 0.45691512E-01 0.23785890E+03</pdfrwt>
<pdfrwt beam="2">  1       21 0.43882119E-01 0.23785890E+03</pdfrwt>
<totfact> 0.22353670E+04</totfact>
</mgrwt>
</event>
<event>
12    1  0.1026879E-001  0.1778465E+03  0.7546771E-02  0.1170128E+00
         21   -1    0    0  501  502  0.00000000000E+00  0.00000000000E+00  0.82557527621E+02  0.82557527621E+02  0.00000000000E+00 0.  1.
         21   -1    0    0  502  503 -0.00000000000E+00 -0.00000000000E+00 -0.59028217682E+03  0.59028217682E+03  0.00000000000E+00 0.  1.
         -6    2    1    2    0  503  0.22515491028E+02 -0.25377962807E+02 -0.45452046719E+03  0.48807604404E+03  0.17458058695E+03 0.  0.
        -24    2    3    3    0    0  0.82020666622E+01 -0.14427859006E+01 -0.45271887247E+03  0.45973697994E+03  0.79588678209E+02 0.  0.
          6    2    1    2  501    0 -0.22515491028E+02  0.25377962807E+02 -0.53204182006E+02  0.18476366040E+03  0.17365464834E+03 0.  0.
         24    2    5    5    0    0 -0.13178230021E+02  0.11586101042E+02 -0.10415981059E+03  0.13094948031E+03  0.77398945509E+02 0.  0.
          5    1    5    5  501    0 -0.93372610069E+01  0.13791861765E+02  0.50955628588E+02  0.53814180091E+02  0.47000000000E+01 0. -1.
        -13    1    6    6    0    0 -0.33884317556E+02  0.18139180978E+02 -0.18641207133E+02  0.42716173356E+02  0.00000000000E+00 0.  1.
         14    1    6    6    0    0  0.20706087535E+02 -0.65530799357E+01 -0.85518603461E+02  0.88233306952E+02  0.00000000000E+00 0. -1.
         -5    1    3    3    0  503  0.14313424366E+02 -0.23935176907E+02 -0.18015947146E+01  0.28339064101E+02  0.47000000000E+01 0.  1.
         13    1    4    4    0    0 -0.25534222207E+02  0.17714428503E+02 -0.95773175033E+02  0.10068911826E+03  0.00000000000E+00 0. -1.
        -14    1    4    4    0    0  0.33736288870E+02 -0.19157214403E+02 -0.35694569744E+03  0.35904786167E+03  0.00000000000E+00 0.  1.
<mgrwt>
<rscale>  2 0.17761883E+03</rscale>
<asrwt>0</asrwt>
<pdfrwt beam="1">  1       21 0.12701159E-01 0.17784648E+03</pdfrwt>
<pdfrwt beam="2">  1       21 0.90812640E-01 0.17784648E+03</pdfrwt>
<totfact> 0.54925645E+04</totfact>
</mgrwt>
</event>
<event>
12    1  0.1026879E-001  0.2166397E+03  0.7546771E-02  0.1137061E+00
         21   -1    0    0  501  502  0.00000000000E+00  0.00000000000E+00  0.50172266719E+03  0.50172266719E+03  0.00000000000E+00 0. -1.
         21   -1    0    0  502  503 -0.00000000000E+00 -0.00000000000E+00 -0.12189982666E+03  0.12189982666E+03  0.00000000000E+00 0. -1.
         -6    2    1    2    0  503  0.80020708445E+02  0.10098228050E+03  0.36849420404E+02  0.21975130487E+03  0.17416090679E+03 0.  0.
        -24    2    3    3    0    0  0.63596215177E+02 -0.12286238518E+02  0.17881867659E+02  0.10364196228E+03  0.78907952152E+02 0.  0.
          6    2    1    2  501    0 -0.80020708445E+02 -0.10098228050E+03  0.34297342012E+03  0.40387118898E+03  0.16994244797E+03 0.  0.
         24    2    5    5    0    0 -0.82086022691E+01 -0.10896786653E+03  0.17984048734E+03  0.22539096056E+03  0.80728601676E+02 0.  0.
          5    1    5    5  501    0 -0.71812106176E+02  0.79855860325E+01  0.16313293278E+03  0.17848022842E+03  0.47000000000E+01 0. -1.
        -11    1    6    6    0    0  0.13585612433E+02 -0.99850350796E+02  0.17397030998E+03  0.20104807926E+03  0.00000000000E+00 0.  1.
         12    1    6    6    0    0 -0.21794214702E+02 -0.91175157349E+01  0.58701773527E+01  0.24342881296E+02  0.00000000000E+00 0. -1.
         -5    1    3    3    0  503  0.16424493268E+02  0.11326851902E+03  0.18967552745E+02  0.11610934259E+03  0.47000000000E+01 0.  1.
         13    1    4    4    0    0  0.31948144159E+02  0.25009224314E+02 -0.16556656053E+02  0.43820863475E+02  0.00000000000E+00 0. -1.
        -14    1    4    4    0    0  0.31648071018E+02 -0.37295462832E+02  0.34438523712E+02  0.59821098807E+02  0.00000000000E+00 0.  1.
<mgrwt>
<rscale>  2 0.21579058E+03</rscale>
<asrwt>0</asrwt>
<pdfrwt beam="1">  1       21 0.77188102E-01 0.21663969E+03</pdfrwt>
<pdfrwt beam="2">  1       21 0.18753820E-01 0.21663969E+03</pdfrwt>
<totfact> 0.38313474E+04</totfact>
</mgrwt>
</event>
<event>
12    1  0.1026879E-001  0.1943415E+03  0.7546771E-02  0.1155015E+00
         21   -1    0    0  503  502  0.00000000000E+00  0.00000000000E+00  0.52177557544E+02  0.52177557544E+02  0.00000000000E+00 0. -1.
         21   -1    0    0  501  503 -0.00000000000E+00 -0.00000000000E+00 -0.10349465996E+04  0.10349465996E+04  0.00000000000E+00 0.  1.
          6    2    1    2  501    0  0.64403672751E+02 -0.56244165377E+02 -0.79436118808E+03  0.81778866991E+03  0.17452040655E+03 0.  0.
         24    2    3    3    0    0  0.82036463343E+02 -0.68885465554E+02 -0.38536097478E+03  0.40818644548E+03  0.81473337427E+02 0.  0.
         -6    2    1    2    0  502 -0.64403672751E+02  0.56244165377E+02 -0.18840785393E+03  0.26933548719E+03  0.17243214907E+03 0.  0.
        -24    2    5    5    0    0 -0.64187504382E+02  0.10283514757E+03 -0.14698735053E+03  0.20681737419E+03  0.80455215844E+02 0.  0.
          5    1    3    3  501    0 -0.17632790592E+02  0.12641300177E+02 -0.40900021331E+03  0.40960222443E+03  0.47000000000E+01 0. -1.
        -13    1    4    4    0    0  0.41968156311E+02 -0.30857115438E+02 -0.31218065789E+03  0.31649684182E+03  0.00000000000E+00 0.  1.
         14    1    4    4    0    0  0.40068307032E+02 -0.38028350116E+02 -0.73180316881E+02  0.91689603663E+02  0.00000000000E+00 0. -1.
         -5    1    5    5    0  502 -0.21616836865E+00 -0.46590982196E+02 -0.41420503400E+02  0.62518112997E+02  0.47000000000E+01 0.  1.
         13    1    6    6    0    0 -0.24486817517E+02 -0.18143906522E+00 -0.19824684185E+01  0.24567607398E+02  0.00000000000E+00 0. -1.
        -14    1    6    6    0    0 -0.39700686866E+02  0.10301658664E+03 -0.14500488211E+03  0.18224976679E+03  0.00000000000E+00 0.  1.
<mgrwt>
<rscale>  2 0.19387151E+03</rscale>
<asrwt>0</asrwt>
<pdfrwt beam="1">  1       21 0.80273169E-02 0.19434148E+03</pdfrwt>
<pdfrwt beam="2">  1       21 0.15922255E+00 0.19434148E+03</pdfrwt>
<totfact> 0.30390057E+04</totfact>
</mgrwt>
</event>
<event>
12    1  0.1026879E-001  0.1781882E+03  0.7546771E-02  0.1169690E+00
         21   -1    0    0  503  502  0.00000000000E+00  0.00000000000E+00  0.61920474606E+03  0.61920474606E+03  0.00000000000E+00 0. -1.
         21   -1    0    0  501  503 -0.00000000000E+00 -0.00000000000E+00 -0.51191446248E+02  0.51191446248E+02  0.00000000000E+00 0. -1.
          6    2    1    2  501    0  0.43999092803E+01  0.42549468767E+02  0.27244960252E+03  0.32527455518E+03  0.17246719642E+03 0.  0.
         24    2    3    3    0    0  0.11922319717E+02  0.61767391353E+02  0.28354143414E+03  0.30137823881E+03  0.80472017570E+02 0.  0.
         -6    2    1    2    0  502 -0.43999092803E+01 -0.42549468767E+02  0.29556369730E+03  0.34512163713E+03  0.17297753832E+03 0.  0.
        -24    2    5    5    0    0  0.40407289768E+02 -0.60228153826E+02  0.26884626072E+03  0.28983933970E+03  0.80426061416E+02 0.  0.
          5    1    3    3  501    0 -0.75224104369E+01 -0.19217922586E+02 -0.11091831623E+02  0.23896316370E+02  0.47000000000E+01 0. -1.
        -11    1    4    4    0    0 -0.10395203642E+02  0.96902654583E+01  0.19959852804E+03  0.20010380780E+03  0.00000000000E+00 0.  1.
         12    1    4    4    0    0  0.22317523359E+02  0.52077125895E+02  0.83942906103E+02  0.10127443100E+03  0.00000000000E+00 0. -1.
         -5    1    5    5    0  502 -0.44807199049E+02  0.17678685059E+02  0.26717436577E+02  0.55282297431E+02  0.47000000000E+01 0.  1.
         13    1    6    6    0    0 -0.62900031123E+01 -0.57911988310E+02  0.18351536742E+03  0.19253896387E+03  0.00000000000E+00 0. -1.
        -14    1    6    6    0    0  0.46697292881E+02 -0.23161655158E+01  0.85330893299E+02  0.97300375828E+02  0.00000000000E+00 0.  1.
<mgrwt>
<rscale>  2 0.17806426E+03</rscale>
<asrwt>0</asrwt>
<pdfrwt beam="1">  1       21 0.95262263E-01 0.17818823E+03</pdfrwt>
<pdfrwt beam="2">  1       21 0.78756076E-02 0.17818823E+03</pdfrwt>
<totfact> 0.11414560E+05</totfact>
</mgrwt>
</event>
<event>
12    1  0.1026879E-001  0.1965863E+03  0.7546771E-02  0.1152841E+00
         21   -1    0    0  503  502  0.00000000000E+00  0.00000000000E+00  0.13439913719E+03  0.13439913719E+03  0.00000000000E+00 0. -1.
         21   -1    0    0  501  503 -0.00000000000E+00 -0.00000000000E+00 -0.36895648332E+03  0.36895648332E+03  0.00000000000E+00 0.  1.
          6    2    1    2  501    0  0.54259036304E+02  0.74917882668E+02 -0.23663051046E+03  0.30763644292E+03  0.17346310953E+03 0.  0.
         24    2    3    3    0    0  0.88690803279E+02  0.29564555558E+02 -0.98534831833E+02  0.15818753087E+03  0.81080579102E+02 0.  0.
         -6    2    1    2    0  502 -0.54259036304E+02 -0.74917882668E+02  0.20731643303E+01  0.19571917759E+03  0.17246729052E+03 0.  0.
        -24    2    5    5    0    0 -0.70499813562E+02 -0.46603376732E+02 -0.55190602364E+02  0.12963814348E+03  0.81350766567E+02 0.  0.
          5    1    3    3  501    0 -0.34431766975E+02  0.45353327110E+02 -0.13809567862E+03  0.14944891205E+03  0.47000000000E+01 0. -1.
        -11    1    4    4    0    0  0.66492243719E+02 -0.16457539792E+02 -0.76086062523E+02  0.10237752684E+03  0.00000000000E+00 0.  1.
         12    1    4    4    0    0  0.22198559560E+02  0.46022095350E+02 -0.22448769310E+02  0.55810004036E+02  0.00000000000E+00 0. -1.
         -5    1    5    5    0  502  0.16240777258E+02 -0.28314505936E+02  0.57263766694E+02  0.66081034105E+02  0.47000000000E+01 0.  1.
         13    1    6    6    0    0 -0.59727602439E+02 -0.63667675045E+02 -0.63359539056E+02  0.10786746742E+03  0.00000000000E+00 0. -1.
        -14    1    6    6    0    0 -0.10772211124E+02  0.17064298313E+02  0.81689366922E+01  0.21770676060E+02  0.00000000000E+00 0.  1.
<mgrwt>
<rscale>  2 0.19636642E+03</rscale>
<asrwt>0</asrwt>
<pdfrwt beam="1">  1       21 0.20676790E-01 0.19658632E+03</pdfrwt>
<pdfrwt beam="2">  1       21 0.56762537E-01 0.19658632E+03</pdfrwt>
<totfact> 0.63162926E+04</totfact>
</mgrwt>
</event>
<event>
12    1  0.1026879E-001  0.2217424E+03  0.7546771E-02  0.1133486E+00
         21   -1    0    0  503  502  0.00000000000E+00  0.00000000000E+00  0.11529205298E+03  0.11529205298E+03  0.00000000000E+00 0.  1.
         21   -1    0    0  501  503 -0.00000000000E+00 -0.00000000000E+00 -0.47451363635E+03  0.47451363635E+03  0.00000000000E+00 0. -1.
          6    2    1    2  501    0 -0.91383675926E+02 -0.97011729931E+02 -0.75494212289E+02  0.22970718348E+03  0.17118341650E+03 0.  0.
         24    2    3    3    0    0 -0.10854818691E+03 -0.77953599683E+02 -0.74128598222E+01  0.15680318277E+03  0.81687300436E+02 0.  0.
         -6    2    1    2    0  502  0.91383675926E+02  0.97011729931E+02 -0.28372737108E+03  0.36009850585E+03  0.17722150221E+03 0.  0.
        -24    2    5    5    0    0 -0.60144931785E+01  0.57646301610E+02 -0.20771634388E+03  0.23034563864E+03  0.80955317994E+02 0.  0.
          5    1    3    3  501    0  0.17164510982E+02 -0.19058130248E+02 -0.68081352467E+02  0.72904000710E+02  0.47000000000E+01 0. -1.
        -13    1    4    4    0    0 -0.11085248072E+03 -0.52724636870E+02 -0.25882377224E+02  0.12545141396E+03  0.00000000000E+00 0.  1.
         14    1    4    4    0    0  0.23042938085E+01 -0.25228962813E+02  0.18469517402E+02  0.31351768812E+02  0.00000000000E+00 0. -1.
         -5    1    5    5    0  502  0.97398169105E+02  0.39365428321E+02 -0.76011027199E+02  0.12975286720E+03  0.47000000000E+01 0.  1.
         11    1    6    6    0    0  0.36188879394E+02  0.39093199904E+02 -0.11843046488E+03  0.12986026445E+03  0.00000000000E+00 0. -1.
        -12    1    6    6    0    0 -0.42203372572E+02  0.18553101705E+02 -0.89285878993E+02  0.10048537419E+03  0.00000000000E+00 0.  1.
<mgrwt>
<rscale>  2 0.22053375E+03</rscale>
<asrwt>0</asrwt>
<pdfrwt beam="1">  1       21 0.17737239E-01 0.22174245E+03</pdfrwt>
<pdfrwt beam="2">  1       21 0.73002097E-01 0.22174245E+03</pdfrwt>
<totfact> 0.48028395E+04</totfact>
</mgrwt>
</event>
<event>
12    1  0.1026879E-001  0.1958203E+03  0.7546771E-02  0.1153361E+00
         21   -1    0    0  503  502  0.00000000000E+00  0.00000000000E+00  0.55676940069E+02  0.55676940069E+02  0.00000000000E+00 0.  1.
         21   -1    0    0  501  503 -0.00000000000E+00 -0.00000000000E+00 -0.13929071978E+04  0.13929071978E+04  0.00000000000E+00 0. -1.
          6    2    1    2  501    0 -0.32924457825E+02  0.83465302948E+02 -0.11836998738E+04  0.11997524961E+04  0.17381077085E+03 0.  0.
         24    2    3    3    0    0 -0.41914228020E+02  0.12059556239E+03 -0.79594046288E+03  0.81008735414E+03  0.80126204967E+02 0.  0.
         -6    2    1    2    0  502  0.32924457825E+02 -0.83465302948E+02 -0.15353038400E+03  0.24883164178E+03  0.17405496380E+03 0.  0.
        -24    2    5    5    0    0 -0.24547883142E+02 -0.66495446467E+01 -0.12325964299E+03  0.14812345711E+03  0.78107643320E+02 0.  0.
          5    1    3    3  501    0  0.89897701948E+01 -0.37130259440E+02 -0.38775941088E+03  0.38966514196E+03  0.47000000000E+01 0. -1.
        -13    1    4    4    0    0 -0.50235449972E+02  0.29080250967E+02 -0.26860734139E+03  0.27480750586E+03  0.00000000000E+00 0.  1.
         14    1    4    4    0    0  0.83212219514E+01  0.91515311422E+02 -0.52733312149E+03  0.53527984828E+03  0.00000000000E+00 0. -1.
         -5    1    5    5    0  502  0.57472340967E+02 -0.76815758301E+02 -0.30270741005E+02  0.10070818468E+03  0.47000000000E+01 0.  1.
         13    1    6    6    0    0  0.26938605313E+02  0.15550964033E+01 -0.62408335209E+02  0.67991963382E+02  0.00000000000E+00 0. -1.
        -14    1    6    6    0    0 -0.51486488455E+02 -0.82046410500E+01 -0.60851307782E+02  0.80131493727E+02  0.00000000000E+00 0.  1.
<mgrwt>
<rscale>  2 0.19576607E+03</rscale>
<asrwt>0</asrwt>
<pdfrwt beam="1">  1       21 0.85656844E-02 0.19582034E+03</pdfrwt>
<pdfrwt beam="2">  1       21 0.21429338E+00 0.19582034E+03</pdfrwt>
<totfact> 0.11589748E+04</totfact>
</mgrwt>
</event>
<event>
12    1  0.1026879E-001  0.2094913E+03  0.7546771E-02  0.1143576E+00
         21   -1    0    0  501  502  0.00000000000E+00  0.00000000000E+00  0.23713933451E+03  0.23713933451E+03  0.00000000000E+00 0. -1.
         21   -1    0    0  502  503 -0.00000000000E+00 -0.00000000000E+00 -0.19290258751E+03  0.19290258751E+03  0.00000000000E+00 0. -1.
         -6    2    1    2    0  503  0.59188398785E+02 -0.10098138786E+03 -0.37759694334E+02  0.20507518677E+03  0.16410219519E+03 0.  0.
        -24    2    3    3    0    0  0.69112916394E+02 -0.74453090041E+02 -0.81620685294E+02  0.15265264235E+03  0.79504937707E+02 0.  0.
          6    2    1    2  501    0 -0.59188398785E+02  0.10098138786E+03  0.81996441336E+02  0.22496673526E+03  0.17374149860E+03 0.  0.
         24    2    5    5    0    0  0.28649229971E+02  0.32845488906E+02  0.65363134958E+02  0.11246470580E+03  0.80475872901E+02 0.  0.
          5    1    5    5  501    0 -0.87837628756E+02  0.68135898955E+02  0.16633306379E+02  0.11250202946E+03  0.47000000000E+01 0. -1.
        -13    1    6    6    0    0  0.21516959263E+02 -0.23117450074E+02  0.39027177372E+02  0.50204746862E+02  0.00000000000E+00 0.  1.
         14    1    6    6    0    0  0.71322707086E+01  0.55962938980E+02  0.26335957586E+02  0.62259958935E+02  0.00000000000E+00 0. -1.
         -5    1    3    3    0  503 -0.99245176088E+01 -0.26528297820E+02  0.43860990960E+02  0.52422544415E+02  0.47000000000E+01 0.  1.
         11    1    4    4    0    0 -0.65098507829E+01 -0.44945144840E+02 -0.43816007641E+02  0.63105362114E+02  0.00000000000E+00 0. -1.
        -12    1    4    4    0    0  0.75622767177E+02 -0.29507945201E+02 -0.37804677653E+02  0.89547280237E+02  0.00000000000E+00 0.  1.
<mgrwt>
<rscale>  2 0.20748201E+03</rscale>
<asrwt>0</asrwt>
<pdfrwt beam="1">  1       21 0.36482974E-01 0.20949133E+03</pdfrwt>
<pdfrwt beam="2">  1       21 0.29677321E-01 0.20949133E+03</pdfrwt>
<totfact> 0.78287232E+04</totfact>
</mgrwt>
</event>
<event>
12    1  0.1026879E-001  0.2093008E+03  0.7546771E-02  0.1142251E+00
         21   -1    0    0  503  502  0.00000000000E+00  0.00000000000E+00  0.53507782154E+02  0.53507782154E+02  0.00000000000E+00 0.  1.
         21   -1    0    0  501  503 -0.00000000000E+00 -0.00000000000E+00 -0.88643728679E+03  0.88643728679E+03  0.00000000000E+00 0.  1.
          6    2    1    2  501    0 -0.50308032241E+02  0.10667481088E+03 -0.54820785970E+03  0.58657100517E+03  0.17211412865E+03 0.  0.
         24    2    3    3    0    0 -0.36631676872E+02  0.62201579432E+02 -0.52084945574E+03  0.53239090477E+03  0.83336688846E+02 0.  0.
         -6    2    1    2    0  502  0.50308032241E+02 -0.10667481088E+03 -0.28472164493E+03  0.35337406378E+03  0.17290575604E+03 0.  0.
        -24    2    5    5    0    0  0.92835739700E+02 -0.94939435732E+02 -0.26073173572E+03  0.30293667015E+03  0.78470485459E+02 0.  0.
          5    1    3    3  501    0 -0.13676355369E+02  0.44473231446E+02 -0.27358403964E+02  0.54180100396E+02  0.47000000000E+01 0. -1.
        -13    1    4    4    0    0 -0.40765482966E+02 -0.63290560143E+01 -0.21628056553E+03  0.22017984598E+03  0.00000000000E+00 0.  1.
         14    1    4    4    0    0  0.41338060938E+01  0.68530635446E+02 -0.30456889021E+03  0.31221105879E+03  0.00000000000E+00 0. -1.
         -5    1    5    5    0  502 -0.42527707458E+02 -0.11735375146E+02 -0.23989909212E+02  0.50437393623E+02  0.47000000000E+01 0.  1.
         11    1    6    6    0    0  0.37368128697E+02  0.70245413647E+01 -0.58860185800E+02  0.70073123921E+02  0.00000000000E+00 0. -1.
        -12    1    6    6    0    0  0.55467611003E+02 -0.10196397710E+03 -0.20187154992E+03  0.23286354623E+03  0.00000000000E+00 0.  1.
<mgrwt>
<rscale>  2 0.20913721E+03</rscale>
<asrwt>0</asrwt>
<pdfrwt beam="1">  1       21 0.82319671E-02 0.20930077E+03</pdfrwt>
<pdfrwt beam="2">  1       21 0.13637496E+00 0.20930077E+03</pdfrwt>
<totfact> 0.43301744E+04</totfact>
</mgrwt>
</event>
<event>
12    1  0.1026879E-001  0.1874265E+03  0.7546771E-02  0.1160921E+00
         21   -1    0    0  503  502  0.00000000000E+00  0.00000000000E+00  0.17773601685E+03  0.17773601685E+03  0.00000000000E+00 0.  1.
         21   -1    0    0  501  503 -0.00000000000E+00 -0.00000000000E+00 -0.28414024879E+03  0.28414024879E+03  0.00000000000E+00 0.  1.
          6    2    1    2  501    0 -0.67810782465E+02  0.20661293049E+02 -0.18096588771E+03  0.26016329831E+03  0.17294825244E+03 0.  0.
         24    2    3    3    0    0 -0.38826868127E+01  0.55481545552E+02 -0.46280987362E+02  0.10699227043E+03  0.78817123695E+02 0.  0.
         -6    2    1    2    0  502  0.67810782465E+02 -0.20661293049E+02  0.74561655779E+02  0.20171296733E+03  0.17350357180E+03 0.  0.
        -24    2    5    5    0    0  0.12960379398E+02  0.29883071078E+02  0.91380426390E+02  0.12510839497E+03  0.78998473366E+02 0.  0.
          5    1    3    3  501    0 -0.63928095653E+02 -0.34820252504E+02 -0.13468490035E+03  0.15317102787E+03  0.47000000000E+01 0. -1.
        -11    1    4    4    0    0  0.29247680248E+02  0.19968136239E+02 -0.46467546919E+02  0.58424191748E+02  0.00000000000E+00 0.  1.
         12    1    4    4    0    0 -0.33130367061E+02  0.35513409314E+02  0.18655955783E+00  0.48568078685E+02  0.00000000000E+00 0. -1.
         -5    1    5    5    0  502  0.54850403067E+02 -0.50544364127E+02 -0.16818770611E+02  0.76604572360E+02  0.47000000000E+01 0.  1.
         11    1    6    6    0    0  0.41072687952E+02  0.11380442867E+02  0.21925602815E+02  0.47929241953E+02  0.00000000000E+00 0. -1.
        -12    1    6    6    0    0 -0.28112308554E+02  0.18502628211E+02  0.69454823575E+02  0.77179153019E+02  0.00000000000E+00 0.  1.
<mgrwt>
<rscale>  2 0.18729785E+03</rscale>
<asrwt>0</asrwt>
<pdfrwt beam="1">  1       21 0.27344003E-01 0.18742647E+03</pdfrwt>
<pdfrwt beam="2">  1       21 0.43713884E-01 0.18742647E+03</pdfrwt>
<totfact> 0.64284822E+04</totfact>
</mgrwt>
</event>
<event>
12    1  0.1026879E-001  0.2197195E+03  0.7546771E-02  0.1135338E+00
         21   -1    0    0  501  502  0.00000000000E+00  0.00000000000E+00  0.53847664626E+02  0.53847664626E+02  0.00000000000E+00 0.  1.
         21   -1    0    0  502  503 -0.00000000000E+00 -0.00000000000E+00 -0.19520718474E+04  0.19520718474E+04  0.00000000000E+00 0.  1.
         -6    2    1    2    0  503 -0.23703197945E+02  0.12587773583E+03 -0.16894052420E+04  0.17027990907E+04  0.17037495569E+03 0.  0.
        -24    2    3    3    0    0  0.42226718600E+02  0.37834747011E+02 -0.62575490277E+03  0.63346637541E+03  0.80597063190E+02 0.  0.
          6    2    1    2  501    0  0.23703197945E+02 -0.12587773583E+03 -0.20881894078E+03  0.30312042136E+03  0.17852056981E+03 0.  0.
         24    2    5    5    0    0  0.74479796370E+02 -0.11385122320E+03 -0.19061149663E+03  0.24765420663E+03  0.80563777999E+02 0.  0.
          5    1    5    5  501    0 -0.50776598424E+02 -0.12026512631E+02 -0.18207444152E+02  0.55466214727E+02  0.47000000000E+01 0. -1.
        -11    1    6    6    0    0  0.85321087347E+02 -0.68599124156E+02 -0.11428075813E+03  0.15825807866E+03  0.00000000000E+00 0.  1.
         12    1    6    6    0    0 -0.10841290978E+02 -0.45252099043E+02 -0.76330738494E+02  0.89396127974E+02  0.00000000000E+00 0. -1.
         -5    1    3    3    0  503 -0.65929916545E+02  0.88042988818E+02 -0.10636503393E+04  0.10693327153E+04  0.47000000000E+01 0.  1.
         11    1    4    4    0    0  0.37958901413E+02 -0.15882765390E+02 -0.19082510894E+03  0.19521107201E+03  0.00000000000E+00 0. -1.
        -12    1    4    4    0    0  0.42678171868E+01  0.53717512401E+02 -0.43492979383E+03  0.43825530340E+03  0.00000000000E+00 0.  1.
<mgrwt>
<rscale>  2 0.21805940E+03</rscale>
<asrwt>0</asrwt>
<pdfrwt beam="1">  1       21 0.82842592E-02 0.21971946E+03</pdfrwt>
<pdfrwt beam="2">  1       21 0.30031863E+00 0.21971946E+03</pdfrwt>
<totfact> 0.37227736E+03</totfact>
</mgrwt>
</event>
<event>
12    1  0.1026879E-001  0.2308148E+03  0.7546771E-02  0.1127331E+00
         21   -1    0    0  501  502  0.00000000000E+00  0.00000000000E+00  0.48423317933E+03  0.48423317933E+03  0.00000000000E+00 0. -1.
         21   -1    0    0  502  503 -0.00000000000E+00 -0.00000000000E+00 -0.15256443808E+03  0.15256443808E+03  0.00000000000E+00 0. -1.
         -6    2    1    2    0  503  0.55173421320E+02  0.12898066066E+03 -0.69835013995E+01  0.23092040660E+03  0.18329033703E+03 0.  0.
        -24    2    3    3    0    0  0.20162141121E+02 -0.23913906040E+01 -0.28122586012E+02  0.93249216830E+02  0.86558107141E+02 0.  0.
          6    2    1    2  501    0 -0.55173421320E+02 -0.12898066066E+03  0.33865224265E+03  0.40587721081E+03  0.17427234880E+03 0.  0.
         24    2    5    5    0    0 -0.85047695009E+02 -0.13982962270E+03  0.23357685745E+03  0.29599955711E+03  0.79196942268E+02 0.  0.
          5    1    5    5  501    0  0.29874273689E+02  0.10848962042E+02  0.10507538521E+03  0.10987765370E+03  0.47000000000E+01 0. -1.
        -13    1    6    6    0    0 -0.22170444351E+02  0.79625607682E+00  0.59768087483E+02  0.63752544325E+02  0.00000000000E+00 0.  1.
         14    1    6    6    0    0 -0.62877250658E+02 -0.14062587878E+03  0.17380876996E+03  0.23224701279E+03  0.00000000000E+00 0. -1.
         -5    1    3    3    0  503  0.35011280198E+02  0.13137205126E+03  0.21139084612E+02  0.13767118977E+03  0.47000000000E+01 0.  1.
         11    1    4    4    0    0  0.32842871081E+02  0.34674994160E+02 -0.25108875890E+02  0.53957993377E+02  0.00000000000E+00 0. -1.
        -12    1    4    4    0    0 -0.12680729960E+02 -0.37066384764E+02 -0.30137101219E+01  0.39291223453E+02  0.00000000000E+00 0.  1.
<mgrwt>
<rscale>  2 0.22902046E+03</rscale>
<asrwt>0</asrwt>
<pdfrwt beam="1">  1       21 0.74497411E-01 0.23081478E+03</pdfrwt>
<pdfrwt beam="2">  1       21 0.23471452E-01 0.23081478E+03</pdfrwt>
<totfact> 0.27001418E+04</totfact>
</mgrwt>
</event>
<event>
12    1  0.1026879E-001  0.2617744E+03  0.7546771E-02  0.1106446E+00
         21   -1    0    0  503  502  0.00000000000E+00  0.00000000000E+00  0.24769496245E+03  0.24769496245E+03  0.00000000000E+00 0.  1.
         21   -1    0    0  501  503 -0.00000000000E+00 -0.00000000000E+00 -0.28576392906E+03  0.28576392906E+03  0.00000000000E+00 0. -1.
          6    2    1    2  501    0  0.73776246995E+02 -0.18220493016E+03  0.34964725040E+02  0.26168739014E+03  0.16916319624E+03 0.  0.
         24    2    3    3    0    0  0.10296523325E+02 -0.19065701285E+02  0.19144620850E+02  0.85856650467E+02  0.80841379033E+02 0.  0.
         -6    2    1    2    0  502 -0.73776246995E+02  0.18220493016E+03 -0.73033691645E+02  0.27177150137E+03  0.17287063848E+03 0.  0.
        -24    2    5    5    0    0 -0.53285153975E+02  0.18483586475E+03 -0.10456639039E+03  0.23378192649E+03  0.81952758486E+02 0.  0.
          5    1    3    3  501    0  0.63479723670E+02 -0.16313922888E+03  0.15820104189E+02  0.17583073967E+03  0.47000000000E+01 0. -1.
        -13    1    4    4    0    0 -0.19392139285E+02 -0.33418487654E+02 -0.12040652290E+02  0.40470083898E+02  0.00000000000E+00 0.  1.
         14    1    4    4    0    0  0.29688662610E+02  0.14352786369E+02  0.31185273140E+02  0.45386566570E+02  0.00000000000E+00 0. -1.
         -5    1    5    5    0  502 -0.20491093020E+02 -0.26309345828E+01  0.31532698744E+02  0.37989574886E+02  0.47000000000E+01 0.  1.
         13    1    6    6    0    0 -0.74212361269E+02  0.15891307763E+03 -0.82509315179E+02  0.19382628279E+03  0.00000000000E+00 0. -1.
        -14    1    6    6    0    0  0.20927207294E+02  0.25922787114E+02 -0.22057075210E+02  0.39955643703E+02  0.00000000000E+00 0.  1.
<mgrwt>
<rscale>  2 0.26116391E+03</rscale>
<asrwt>0</asrwt>
<pdfrwt beam="1">  1       21 0.38106917E-01 0.26177439E+03</pdfrwt>
<pdfrwt beam="2">  1       21 0.43963681E-01 0.26177439E+03</pdfrwt>
<totfact> 0.31930231E+04</totfact>
</mgrwt>
</event>
<event>
12    1  0.1026879E-001  0.2052525E+03  0.7546771E-02  0.1145897E+00
         21   -1    0    0  503  502  0.00000000000E+00  0.00000000000E+00  0.47532538532E+03  0.47532538532E+03  0.00000000000E+00 0.  1.
         21   -1    0    0  501  503 -0.00000000000E+00 -0.00000000000E+00 -0.87558697137E+02  0.87558697137E+02  0.00000000000E+00 0.  1.
          6    2    1    2  501    0 -0.91505484592E+02 -0.50753199845E+02  0.19542182789E+03  0.28159216098E+03  0.17365285285E+03 0.  0.
         24    2    3    3    0    0 -0.94153715993E+02 -0.79291299747E+02  0.20413671418E+03  0.25126930626E+03  0.79450825916E+02 0.  0.
         -6    2    1    2    0  502  0.91505484592E+02  0.50753199845E+02  0.19234486030E+03  0.28129192148E+03  0.17657706194E+03 0.  0.
        -24    2    5    5    0    0  0.51806795734E+02  0.31097199284E+02  0.20627486044E+03  0.23461774062E+03  0.94048850476E+02 0.  0.
          5    1    3    3  501    0  0.26482314008E+01  0.28538099901E+02 -0.87148862907E+01  0.30322854724E+02  0.47000000000E+01 0. -1.
        -11    1    4    4    0    0 -0.82385025784E+02 -0.39315680043E+02  0.83783932941E+02  0.12390626534E+03  0.00000000000E+00 0.  1.
         12    1    4    4    0    0 -0.11768690209E+02 -0.39975619704E+02  0.12035278124E+03  0.12736304092E+03  0.00000000000E+00 0. -1.
         -5    1    5    5    0  502  0.39698688858E+02  0.19656000561E+02 -0.13930000145E+02  0.46674180862E+02  0.47000000000E+01 0.  1.
         11    1    6    6    0    0  0.54900580212E+02 -0.20301321430E+02  0.88834647235E+02  0.10638520531E+03  0.00000000000E+00 0. -1.
        -12    1    6    6    0    0 -0.30937844783E+01  0.51398520715E+02  0.11744021321E+03  0.12823253531E+03  0.00000000000E+00 0.  1.
<mgrwt>
<rscale>  2 0.20462208E+03</rscale>
<asrwt>0</asrwt>
<pdfrwt beam="1">  1       21 0.73126981E-01 0.20525253E+03</pdfrwt>
<pdfrwt beam="2">  1       21 0.13470569E-01 0.20525253E+03</pdfrwt>
<totfact> 0.79747363E+04</totfact>
</mgrwt>
</event>
<event>
12    1  0.1026879E-001  0.1864390E+03  0.7546771E-02  0.1162083E+00
         21   -1    0    0  503  502  0.00000000000E+00  0.00000000000E+00  0.63108250680E+02  0.63108250680E+02  0.00000000000E+00 0.  1.
         21   -1    0    0  501  503 -0.00000000000E+00 -0.00000000000E+00 -0.73814817977E+03  0.73814817977E+03  0.00000000000E+00 0.  1.
          6    2    1    2  501    0  0.37678328871E+02 -0.57879518912E+02 -0.54080156402E+03  0.57151870784E+03  0.17145730253E+03 0.  0.
         24    2    3    3    0    0  0.42656705551E+02  0.18744664800E+02 -0.17962882708E+03  0.20224389734E+03  0.80405979292E+02 0.  0.
         -6    2    1    2    0  502 -0.37678328871E+02  0.57879518912E+02 -0.13423836506E+03  0.22973772260E+03  0.17317559688E+03 0.  0.
        -24    2    5    5    0    0  0.28788337402E+02  0.17630342644E+02 -0.11196651722E+02  0.84138384904E+02  0.76251593113E+02 0.  0.
          5    1    3    3  501    0 -0.49783766797E+01 -0.76624183712E+02 -0.36117273694E+03  0.36927481051E+03  0.47000000000E+01 0. -1.
        -11    1    4    4    0    0 -0.17224770735E+02  0.47792676538E+01 -0.10027271569E+03  0.10185357940E+03  0.00000000000E+00 0.  1.
         12    1    4    4    0    0  0.59881476286E+02  0.13965397146E+02 -0.79356111391E+02  0.10039031793E+03  0.00000000000E+00 0. -1.
         -5    1    5    5    0  502 -0.66466666273E+02  0.40249176268E+02 -0.12304171334E+03  0.14559933770E+03  0.47000000000E+01 0.  1.
         13    1    6    6    0    0 -0.19886988507E+02  0.17557140904E+02 -0.21782446378E+02  0.34325216370E+02  0.00000000000E+00 0. -1.
        -14    1    6    6    0    0  0.48675325909E+02  0.73201739902E-01  0.10585794656E+02  0.49813168534E+02  0.00000000000E+00 0.  1.
<mgrwt>
<rscale>  2 0.18603893E+03</rscale>
<asrwt>0</asrwt>
<pdfrwt beam="1">  1       21 0.97089603E-02 0.18643895E+03</pdfrwt>
<pdfrwt beam="2">  1       21 0.11356127E+00 0.18643895E+03</pdfrwt>
<totfact> 0.51840502E+04</totfact>
</mgrwt>
</event>
<event>
12    1  0.1026879E-001  0.2018751E+03  0.7546771E-02  0.1148743E+00
         21   -1    0    0  503  502  0.00000000000E+00  0.00000000000E+00  0.69532852847E+02  0.69532852847E+02  0.00000000000E+00 0. -1.
         21   -1    0    0  501  503 -0.00000000000E+00 -0.00000000000E+00 -0.80507084588E+03  0.80507084588E+03  0.00000000000E+00 0.  1.
          6    2    1    2  501    0 -0.75962989752E+02  0.71300801779E+02 -0.60173593229E+03  0.63469653302E+03  0.17291436224E+03 0.  0.
         24    2    3    3    0    0 -0.76816505272E+02  0.76401708925E+02 -0.60963288557E+03  0.62415141028E+03  0.78579457742E+02 0.  0.
         -6    2    1    2    0  502  0.75962989752E+02 -0.71300801779E+02 -0.13380206074E+03  0.23990716571E+03  0.16970054965E+03 0.  0.
        -24    2    5    5    0    0  0.50652615322E+02  0.44510570410E+00 -0.87250801751E+01  0.93433852910E+02  0.78024818407E+02 0.  0.
          5    1    3    3  501    0  0.85351551924E+00 -0.51009071459E+01  0.78969532792E+01  0.10545122737E+02  0.47000000000E+01 0. -1.
        -13    1    4    4    0    0 -0.58254993437E+02  0.90108356093E+02 -0.54650452786E+03  0.55693837996E+03  0.00000000000E+00 0.  1.
         14    1    4    4    0    0 -0.18561511835E+02 -0.13706647168E+02 -0.63128357709E+02  0.67213030323E+02  0.00000000000E+00 0. -1.
         -5    1    5    5    0  502  0.25310374431E+02 -0.71745907483E+02 -0.12507698057E+03  0.14647331280E+03  0.47000000000E+01 0.  1.
         13    1    6    6    0    0 -0.14590984797E+02 -0.19808790542E+02 -0.43012676619E+01  0.24975706669E+02  0.00000000000E+00 0. -1.
        -14    1    6    6    0    0  0.65243600119E+02  0.20253896247E+02 -0.44238125132E+01  0.68458146241E+02  0.00000000000E+00 0.  1.
<mgrwt>
<rscale>  2 0.20118511E+03</rscale>
<asrwt>0</asrwt>
<pdfrwt beam="1">  1       21 0.10697362E-01 0.20187510E+03</pdfrwt>
<pdfrwt beam="2">  1       21 0.12385706E+00 0.20187510E+03</pdfrwt>
<totfact> 0.34964363E+04</totfact>
</mgrwt>
</event>
<event>
12    1  0.1026879E-001  0.1769154E+03  0.7546771E-02  0.1171377E+00
         21   -1    0    0  501  502  0.00000000000E+00  0.00000000000E+00  0.15899624246E+04  0.15899624246E+04  0.00000000000E+00 0.  1.
         21   -1    0    0  502  503 -0.00000000000E+00 -0.00000000000E+00 -0.27647227081E+03  0.27647227081E+03  0.00000000000E+00 0.  1.
         -6    2    1    2    0  503 -0.51143179899E+01  0.29467834064E+02 -0.24277395608E+03  0.30039684264E+03  0.17436903343E+03 0.  0.
        -24    2    3    3    0    0 -0.35556488147E+02  0.53766052646E+02 -0.23906039761E+03  0.26098859900E+03  0.82523468395E+02 0.  0.
          6    2    1    2  501    0  0.51143179899E+01 -0.29467834064E+02  0.15562641099E+04  0.15660378528E+04  0.17211062469E+03 0.  0.
         24    2    5    5    0    0  0.39532331995E+02 -0.74686496216E+02  0.11391008230E+04  0.11449955449E+04  0.79518770777E+02 0.  0.
          5    1    5    5  501    0 -0.34418014005E+02  0.45218662152E+02  0.41716328688E+03  0.42104230786E+03  0.47000000000E+01 0. -1.
        -11    1    6    6    0    0  0.20396403693E+02 -0.43798825526E+02  0.10019202241E+04  0.10030844859E+04  0.00000000000E+00 0.  1.
         12    1    6    6    0    0  0.19135928302E+02 -0.30887670690E+02  0.13718059891E+03  0.14191105901E+03  0.00000000000E+00 0. -1.
         -5    1    3    3    0  503  0.30442170157E+02 -0.24298218582E+02 -0.37135584777E+01  0.39408243639E+02  0.47000000000E+01 0.  1.
         11    1    4    4    0    0  0.26190823566E+02  0.66430609836E+01 -0.63963587243E+02  0.69436517707E+02  0.00000000000E+00 0. -1.
        -12    1    4    4    0    0 -0.61747311712E+02  0.47122991663E+02 -0.17509681036E+03  0.19155208129E+03  0.00000000000E+00 0.  1.
<mgrwt>
<rscale>  2 0.17635641E+03</rscale>
<asrwt>0</asrwt>
<pdfrwt beam="1">  1       21 0.24460960E+00 0.17691543E+03</pdfrwt>
<pdfrwt beam="2">  1       21 0.42534196E-01 0.17691543E+03</pdfrwt>
<totfact> 0.38894060E+02</totfact>
</mgrwt>
</event>
<event>
12    1  0.1026879E-001  0.1961793E+03  0.7546771E-02  0.1153642E+00
         21   -1    0    0  503  502  0.00000000000E+00  0.00000000000E+00  0.66025661415E+03  0.66025661415E+03  0.00000000000E+00 0.  1.
         21   -1    0    0  501  503 -0.00000000000E+00 -0.00000000000E+00 -0.62074815312E+02  0.62074815312E+02  0.00000000000E+00 0.  1.
          6    2    1    2  501    0  0.80923851854E+02 -0.28774965393E+02  0.20229879650E+03  0.28179975953E+03  0.17637923057E+03 0.  0.
         24    2    3    3    0    0  0.20130299061E+02  0.36587470044E+02  0.76106370218E+02  0.12715590263E+03  0.92911635882E+02 0.  0.
         -6    2    1    2    0  502 -0.80923851854E+02  0.28774965393E+02  0.39588300234E+03  0.44053166992E+03  0.17311306199E+03 0.  0.
        -24    2    5    5    0    0  0.13320257148E+02 -0.84186995542E+01  0.24809650403E+03  0.26128809298E+03  0.80444319050E+02 0.  0.
          5    1    3    3  501    0  0.60793552793E+02 -0.65362435437E+02  0.12619242628E+03  0.15464385690E+03  0.47000000000E+01 0. -1.
        -11    1    4    4    0    0 -0.24278239441E+02  0.49859021190E+02  0.39285350744E+02  0.67960971796E+02  0.00000000000E+00 0.  1.
         12    1    4    4    0    0  0.44408538502E+02 -0.13271551146E+02  0.36821019474E+02  0.59194930837E+02  0.00000000000E+00 0. -1.
         -5    1    5    5    0  502 -0.94244109002E+02  0.37193664947E+02  0.14778649831E+03  0.17924357695E+03  0.47000000000E+01 0.  1.
         13    1    6    6    0    0 -0.74485126400E+01 -0.31549434529E+02  0.43006099388E+02  0.53855099520E+02  0.00000000000E+00 0. -1.
        -14    1    6    6    0    0  0.20768769788E+02  0.23130734975E+02  0.20509040464E+03  0.20743299346E+03  0.00000000000E+00 0.  1.
<mgrwt>
<rscale>  2 0.19544231E+03</rscale>
<asrwt>0</asrwt>
<pdfrwt beam="1">  1       21 0.10157794E+00 0.19617926E+03</pdfrwt>
<pdfrwt beam="2">  1       21 0.95499720E-02 0.19617926E+03</pdfrwt>
<totfact> 0.69494145E+04</totfact>
</mgrwt>
</event>
<event>
12    1  0.1026879E-001  0.2172503E+03  0.7546771E-02  0.1136111E+00
         21   -1    0    0  503  502  0.00000000000E+00  0.00000000000E+00  0.11072393645E+03  0.11072393645E+03  0.00000000000E+00 0. -1.
         21   -1    0    0  501  503 -0.00000000000E+00 -0.00000000000E+00 -0.47606864728E+03  0.47606864728E+03  0.00000000000E+00 0. -1.
          6    2    1    2  501    0 -0.12806690591E+03  0.16751261004E+02 -0.27882174402E+03  0.35294670447E+03  0.17363200778E+03 0.  0.
         24    2    3    3    0    0 -0.69814959431E+02 -0.37470607097E+02 -0.23709222212E+03  0.26296479936E+03  0.81606304637E+02 0.  0.
         -6    2    1    2    0  502  0.12806690591E+03 -0.16751261004E+02 -0.86522966816E+02  0.23384587926E+03  0.17468810585E+03 0.  0.
        -24    2    5    5    0    0 -0.48083358544E+01 -0.20244574343E+02 -0.52850828840E+02  0.96645529452E+02  0.78193256550E+02 0.  0.
          5    1    3    3  501    0 -0.58251946478E+02  0.54221868102E+02 -0.41729521894E+02  0.89981905105E+02  0.47000000000E+01 0. -1.
        -13    1    4    4    0    0 -0.31442549142E+02  0.19502623960E+02 -0.13452731482E+03  0.13952270307E+03  0.00000000000E+00 0.  1.
         14    1    4    4    0    0 -0.38372410288E+02 -0.56973231057E+02 -0.10256490730E+03  0.12344209630E+03  0.00000000000E+00 0. -1.
         -5    1    5    5    0  502  0.13287524176E+03  0.34933133385E+01 -0.33672137976E+02  0.13720034981E+03  0.47000000000E+01 0.  1.
         11    1    6    6    0    0  0.29903327367E+02  0.10100114451E+02 -0.35196000209E+02  0.47275572236E+02  0.00000000000E+00 0. -1.
        -12    1    6    6    0    0 -0.34711663221E+02 -0.30344688793E+02 -0.17654828631E+02  0.49369957216E+02  0.00000000000E+00 0.  1.
<mgrwt>
<rscale>  2 0.21703787E+03</rscale>
<asrwt>0</asrwt>
<pdfrwt beam="1">  1       21 0.17034452E-01 0.21725025E+03</pdfrwt>
<pdfrwt beam="2">  1       21 0.73241331E-01 0.21725025E+03</pdfrwt>
<totfact> 0.51485722E+04</totfact>
</mgrwt>
</event>
<event>
12    1  0.1026879E-001  0.2023519E+03  0.7546771E-02  0.1148088E+00
         21   -1    0    0  503  502  0.00000000000E+00  0.00000000000E+00  0.89273874832E+03  0.89273874832E+03  0.00000000000E+00 0.  1.
         21   -1    0    0  501  503 -0.00000000000E+00 -0.00000000000E+00 -0.45529247017E+02  0.45529247017E+02  0.00000000000E+00 0.  1.
          6    2    1    2  501    0  0.48842607369E+02 -0.92158035443E+02  0.41543244449E+03  0.46142658007E+03  0.17161488593E+03 0.  0.
         24    2    3    3    0    0  0.89902517202E+02 -0.73155900264E+02  0.21175196592E+03  0.25272865319E+03  0.74823984975E+02 0.  0.
         -6    2    1    2    0  502 -0.48842607369E+02  0.92158035443E+02  0.43177705682E+03  0.47684141527E+03  0.17340012898E+03 0.  0.
        -24    2    5    5    0    0 -0.94171319832E+02  0.29618063312E+02  0.24952209343E+03  0.27883913759E+03  0.75792627522E+02 0.  0.
          5    1    3    3  501    0 -0.41059909833E+02 -0.19002135179E+02  0.20368047856E+03  0.20869792688E+03  0.47000000000E+01 0. -1.
        -11    1    4    4    0    0  0.56257090665E+02 -0.62610156744E+02  0.19751709083E+03  0.21470419919E+03  0.00000000000E+00 0.  1.
         12    1    4    4    0    0  0.33645426537E+02 -0.10545743520E+02  0.14234875089E+02  0.38024454000E+02  0.00000000000E+00 0. -1.
         -5    1    5    5    0  502  0.45328712463E+02  0.62539972130E+02  0.18225496339E+03  0.19800227768E+03  0.47000000000E+01 0.  1.
         13    1    6    6    0    0 -0.64581526614E+02  0.19447571754E+02  0.23473413935E+03  0.24423164783E+03  0.00000000000E+00 0. -1.
        -14    1    6    6    0    0 -0.29589793218E+02  0.10170491558E+02  0.14787954083E+02  0.34607489756E+02  0.00000000000E+00 0.  1.
<mgrwt>
<rscale>  2 0.20196893E+03</rscale>
<asrwt>0</asrwt>
<pdfrwt beam="1">  1       21 0.13734441E+00 0.20235194E+03</pdfrwt>
<pdfrwt beam="2">  1       21 0.70045002E-02 0.20235194E+03</pdfrwt>
<totfact> 0.56508167E+04</totfact>
</mgrwt>
</event>
<event>
12    1  0.1026879E-001  0.2232483E+03  0.7546771E-02  0.1135026E+00
         21   -1    0    0  501  502  0.00000000000E+00  0.00000000000E+00  0.68401957991E+03  0.68401957991E+03  0.00000000000E+00 0.  1.
         21   -1    0    0  502  503 -0.00000000000E+00 -0.00000000000E+00 -0.74094147355E+02  0.74094147355E+02  0.00000000000E+00 0.  1.
         -6    2    1    2    0  503 -0.10584901201E+03  0.29901690624E+02  0.17546944429E+03  0.26965513469E+03  0.17270275429E+03 0.  0.
        -24    2    3    3    0    0 -0.52672284597E+02 -0.21777810320E+02  0.16859646334E+03  0.19503702011E+03  0.79787399852E+02 0.  0.
          6    2    1    2  501    0  0.10584901201E+03 -0.29901690624E+02  0.43445598826E+03  0.48845859257E+03  0.19427214539E+03 0.  0.
         24    2    5    5    0    0  0.77104078119E+02  0.41182428561E+02  0.12918491691E+03  0.17367018708E+03  0.76364650462E+02 0.  0.
          5    1    5    5  501    0  0.28744933895E+02 -0.71084119185E+02  0.30527107136E+03  0.31478840549E+03  0.47000000000E+01 0. -1.
        -13    1    6    6    0    0  0.73196474467E+02  0.25951634756E+02  0.13593759565E+03  0.15655746911E+03  0.00000000000E+00 0.  1.
         14    1    6    6    0    0  0.39076036525E+01  0.15230793804E+02 -0.67526787481E+01  0.17112717975E+02  0.00000000000E+00 0. -1.
         -5    1    3    3    0  503 -0.53176727418E+02  0.51679500944E+02  0.68729809522E+01  0.74618114583E+02  0.47000000000E+01 0.  1.
         13    1    4    4    0    0 -0.12872863311E+00  0.21146533936E+02  0.83857612174E+02  0.86482897663E+02  0.00000000000E+00 0. -1.
        -14    1    4    4    0    0 -0.52543555964E+02 -0.42924344256E+02  0.84738851166E+02  0.10855412245E+03  0.00000000000E+00 0.  1.
<mgrwt>
<rscale>  2 0.21847381E+03</rscale>
<asrwt>0</asrwt>
<pdfrwt beam="1">  1       21 0.10523378E+00 0.22324827E+03</pdfrwt>
<pdfrwt beam="2">  1       21 0.11399100E-01 0.22324827E+03</pdfrwt>
<totfact> 0.46020577E+04</totfact>
</mgrwt>
</event>
<event>
12    1  0.1026879E-001  0.2510607E+03  0.7546771E-02  0.1113823E+00
         21   -1    0    0  503  502  0.00000000000E+00  0.00000000000E+00  0.14860917686E+03  0.14860917686E+03  0.00000000000E+00 0.  1.
         21   -1    0    0  501  503 -0.00000000000E+00 -0.00000000000E+00 -0.41296188257E+03  0.41296188257E+03  0.00000000000E+00 0. -1.
          6    2    1    2  501    0 -0.10983452851E+03  0.12695796537E+03 -0.11850125434E+03  0.27762206560E+03  0.18668024911E+03 0.  0.
         24    2    3    3    0    0 -0.47278839694E+02  0.14797907507E+03 -0.48132365218E+02  0.18103546295E+03  0.79523700386E+02 0.  0.
         -6    2    1    2    0  502  0.10983452851E+03 -0.12695796537E+03 -0.14585145138E+03  0.28394899383E+03  0.17655717659E+03 0.  0.
        -24    2    5    5    0    0  0.12200044342E+03 -0.10183963228E+03 -0.53252860270E+02  0.18712167735E+03  0.83205986013E+02 0.  0.
          5    1    3    3  501    0 -0.62555688815E+02 -0.21021109702E+02 -0.70368889117E+02  0.96586602652E+02  0.47000000000E+01 0. -1.
        -13    1    4    4    0    0 -0.39124604563E+02  0.16166685368E+02 -0.87968675467E+01  0.43237498501E+02  0.00000000000E+00 0.  1.
         14    1    4    4    0    0 -0.81542351313E+01  0.13181238970E+03 -0.39335497671E+02  0.13779796445E+03  0.00000000000E+00 0. -1.
         -5    1    5    5    0  502 -0.12165914910E+02 -0.25118333086E+02 -0.92598591108E+02  0.96827316486E+02  0.47000000000E+01 0.  1.
         11    1    6    6    0    0  0.95729686140E+02 -0.38510422568E+02 -0.58047456641E+02  0.11839228301E+03  0.00000000000E+00 0. -1.
        -12    1    6    6    0    0  0.26270757279E+02 -0.63329209713E+02  0.47945963708E+01  0.68729394332E+02  0.00000000000E+00 0.  1.
<mgrwt>
<rscale>  2 0.24918140E+03</rscale>
<asrwt>0</asrwt>
<pdfrwt beam="1">  1       21 0.22862950E-01 0.25106068E+03</pdfrwt>
<pdfrwt beam="2">  1       21 0.63532598E-01 0.25106068E+03</pdfrwt>
<totfact> 0.39995841E+04</totfact>
</mgrwt>
</event>
<event>
12    1  0.1026879E-001  0.2422325E+03  0.7546771E-02  0.1118364E+00
         21   -1    0    0  503  502  0.00000000000E+00  0.00000000000E+00  0.23333692956E+03  0.23333692956E+03  0.00000000000E+00 0.  1.
         21   -1    0    0  501  503 -0.00000000000E+00 -0.00000000000E+00 -0.25767239083E+03  0.25767239083E+03  0.00000000000E+00 0. -1.
          6    2    1    2  501    0  0.12241323303E+03  0.11641233841E+03 -0.51211000808E+02  0.24729045268E+03  0.17318536090E+03 0.  0.
         24    2    3    3    0    0  0.50989426656E+02  0.28563187123E+02 -0.83178280843E+02  0.12954993081E+03  0.80304301747E+02 0.  0.
         -6    2    1    2    0  502 -0.12241323303E+03 -0.11641233841E+03  0.26875539540E+02  0.24371886771E+03  0.17360806345E+03 0.  0.
        -24    2    5    5    0    0 -0.12363780289E+03 -0.14408945816E+03  0.44090633322E+02  0.21076477869E+03  0.80185595533E+02 0.  0.
          5    1    3    3  501    0  0.71423806370E+02  0.87849151289E+02  0.31967280035E+02  0.11774052188E+03  0.47000000000E+01 0. -1.
        -13    1    4    4    0    0  0.27113219900E+02  0.29891027317E+02  0.26595152254E+01  0.40443457180E+02  0.00000000000E+00 0.  1.
         14    1    4    4    0    0  0.23876206756E+02 -0.13278401937E+01 -0.85837796068E+02  0.89106473628E+02  0.00000000000E+00 0. -1.
         -5    1    5    5    0  502  0.12245698661E+01  0.27677119750E+02 -0.17215093782E+02  0.32954089017E+02  0.47000000000E+01 0.  1.
         11    1    6    6    0    0  0.96228729661E+01 -0.26806862662E+02  0.38554436425E+01  0.28741468571E+02  0.00000000000E+00 0. -1.
        -12    1    6    6    0    0 -0.13326067586E+03 -0.11728259550E+03  0.40235189680E+02  0.18202331012E+03  0.00000000000E+00 0.  1.
<mgrwt>
<rscale>  2 0.24215679E+03</rscale>
<asrwt>0</asrwt>
<pdfrwt beam="1">  1       21 0.35897989E-01 0.24223252E+03</pdfrwt>
<pdfrwt beam="2">  1       21 0.39641906E-01 0.24223252E+03</pdfrwt>
<totfact> 0.44857579E+04</totfact>
</mgrwt>
</event>
<event>
12    1  0.1026879E-001  0.1938713E+03  0.7546771E-02  0.1155463E+00
         21   -1    0    0  501  502  0.00000000000E+00  0.00000000000E+00  0.21233642769E+02  0.21233642769E+02  0.00000000000E+00 0. -1.
         21   -1    0    0  502  503 -0.00000000000E+00 -0.00000000000E+00 -0.17540589500E+04  0.17540589500E+04  0.00000000000E+00 0. -1.
         -6    2    1    2    0  503  0.11358608474E+02 -0.86725729635E+02 -0.89474336425E+03  0.91507900202E+03  0.17074402449E+03 0.  0.
        -24    2    3    3    0    0  0.59984346972E+02 -0.52635951493E+02 -0.38077334201E+03  0.39766828588E+03  0.82359348798E+02 0.  0.
          6    2    1    2  501    0 -0.11358608474E+02  0.86725729635E+02 -0.83808194297E+03  0.86021359074E+03  0.17301938734E+03 0.  0.
         24    2    5    5    0    0  0.14651920244E+02 -0.15667833775E+02 -0.46136906408E+03  0.46893916971E+03  0.81131817524E+02 0.  0.
          5    1    5    5  501    0 -0.26010528718E+02  0.10239356341E+03 -0.37671287889E+03  0.39127442103E+03  0.47000000000E+01 0. -1.
        -11    1    6    6    0    0 -0.17175613927E+02 -0.14841190998E+02 -0.37212586252E+02  0.43589439542E+02  0.00000000000E+00 0.  1.
         12    1    6    6    0    0  0.31827534171E+02 -0.82664277716E+00 -0.42415647783E+03  0.42534973017E+03  0.00000000000E+00 0. -1.
         -5    1    3    3    0  503 -0.48625738499E+02 -0.34089778142E+02 -0.51397002224E+03  0.51741071614E+03  0.47000000000E+01 0.  1.
         11    1    4    4    0    0  0.45945159530E+02 -0.31240533991E+02 -0.36120640263E+03  0.36545450326E+03  0.00000000000E+00 0. -1.
        -12    1    4    4    0    0  0.14039187443E+02 -0.21395417501E+02 -0.19566939383E+02  0.32213782624E+02  0.00000000000E+00 0.  1.
<mgrwt>
<rscale>  2 0.19336232E+03</rscale>
<asrwt>0</asrwt>
<pdfrwt beam="1">  1       21 0.32667145E-02 0.19387129E+03</pdfrwt>
<pdfrwt beam="2">  1       21 0.26985520E+00 0.19387129E+03</pdfrwt>
<totfact> 0.27951874E+04</totfact>
</mgrwt>
</event>
<event>
12    1  0.1026879E-001  0.2391476E+03  0.7546771E-02  0.1120500E+00
         21   -1    0    0  503  502  0.00000000000E+00  0.00000000000E+00  0.70806151174E+02  0.70806151174E+02  0.00000000000E+00 0.  1.
         21   -1    0    0  501  503 -0.00000000000E+00 -0.00000000000E+00 -0.10952876074E+04  0.10952876074E+04  0.00000000000E+00 0.  1.
          6    2    1    2  501    0  0.10832977823E+03  0.12377758208E+03 -0.21270099058E+03  0.32005198513E+03  0.17359530844E+03 0.  0.
         24    2    3    3    0    0  0.10495601951E+03  0.14564848178E+03 -0.13163138296E+03  0.23588495011E+03  0.78010527714E+02 0.  0.
         -6    2    1    2    0  502 -0.10832977823E+03 -0.12377758208E+03 -0.81178046560E+03  0.84604177340E+03  0.17246137927E+03 0.  0.
        -24    2    5    5    0    0 -0.56817203124E+02 -0.14968754976E+03 -0.59286780450E+03  0.61961360597E+03  0.82427119107E+02 0.  0.
          5    1    3    3  501    0  0.33737587248E+01 -0.21870899706E+02 -0.81069607628E+02  0.84167035013E+02  0.47000000000E+01 0. -1.
        -11    1    4    4    0    0  0.10409331091E+03  0.12304010994E+03 -0.13822216710E+03  0.21231969647E+03  0.00000000000E+00 0.  1.
         12    1    4    4    0    0  0.86270859359E+00  0.22608371847E+02  0.65907841456E+01  0.23565253644E+02  0.00000000000E+00 0. -1.
         -5    1    5    5    0  502 -0.51512575109E+02  0.25909967678E+02 -0.21891266110E+03  0.22642816744E+03  0.47000000000E+01 0.  1.
         13    1    6    6    0    0  0.83111456208E+01  0.66871240048E+01 -0.37204978098E+02  0.38704045838E+02  0.00000000000E+00 0. -1.
        -14    1    6    6    0    0 -0.65128348744E+02 -0.15637467376E+03 -0.55566282640E+03  0.58090956013E+03  0.00000000000E+00 0.  1.
<mgrwt>
<rscale>  2 0.23894185E+03</rscale>
<asrwt>0</asrwt>
<pdfrwt beam="1">  1       21 0.10893255E-01 0.23914757E+03</pdfrwt>
<pdfrwt beam="2">  1       21 0.16850578E+00 0.23914757E+03</pdfrwt>
<totfact> 0.14767113E+04</totfact>
</mgrwt>
</event>
<event>
12    1  0.1026879E-001  0.2340489E+03  0.7546771E-02  0.1123877E+00
         21   -1    0    0  503  502  0.00000000000E+00  0.00000000000E+00  0.19342197629E+03  0.19342197629E+03  0.00000000000E+00 0. -1.
         21   -1    0    0  501  503 -0.00000000000E+00 -0.00000000000E+00 -0.32195929931E+03  0.32195929931E+03  0.00000000000E+00 0.  1.
          6    2    1    2  501    0 -0.40062992666E+02 -0.15278679174E+03  0.25613345154E+02  0.23512903416E+03  0.17228108469E+03 0.  0.
         24    2    3    3    0    0 -0.14346122448E+02 -0.44541344098E+02 -0.46503337265E+02  0.10245899145E+03  0.78393507307E+02 0.  0.
         -6    2    1    2    0  502  0.40062992666E+02  0.15278679174E+03 -0.15415066817E+03  0.28025224145E+03  0.17271376097E+03 0.  0.
        -24    2    5    5    0    0  0.20223018705E+02  0.72002282304E+02 -0.16269290190E+03  0.19649771149E+03  0.80926331629E+02 0.  0.
          5    1    3    3  501    0 -0.25716870218E+02 -0.10824544765E+03  0.72116682419E+02  0.13267004271E+03  0.47000000000E+01 0. -1.
        -11    1    4    4    0    0 -0.37586800008E+02 -0.49184591017E+02 -0.48550922162E+02  0.78670728808E+02  0.00000000000E+00 0.  1.
         12    1    4    4    0    0  0.23240677560E+02  0.46432469197E+01  0.20475848967E+01  0.23788262638E+02  0.00000000000E+00 0. -1.
         -5    1    5    5    0  502  0.19839973961E+02  0.80784509439E+02  0.85422337228E+01  0.83754529962E+02  0.47000000000E+01 0.  1.
         11    1    6    6    0    0  0.29941405587E+01 -0.43429852774E+01 -0.88493764021E+02  0.88650846975E+02  0.00000000000E+00 0. -1.
        -12    1    6    6    0    0  0.17228878146E+02  0.76345267582E+02 -0.74199137875E+02  0.10784686452E+03  0.00000000000E+00 0.  1.
<mgrwt>
<rscale>  2 0.23396909E+03</rscale>
<asrwt>0</asrwt>
<pdfrwt beam="1">  1       21 0.29757227E-01 0.23404891E+03</pdfrwt>
<pdfrwt beam="2">  1       21 0.49532199E-01 0.23404891E+03</pdfrwt>
<totfact> 0.41236815E+04</totfact>
</mgrwt>
</event>
<event>
12    1  0.1026879E-001  0.2194593E+03  0.7546771E-02  0.1134424E+00
         21   -1    0    0  503  502  0.00000000000E+00  0.00000000000E+00  0.27153572668E+03  0.27153572668E+03  0.00000000000E+00 0.  1.
         21   -1    0    0  501  503 -0.00000000000E+00 -0.00000000000E+00 -0.17751891736E+03  0.17751891736E+03  0.00000000000E+00 0. -1.
          6    2    1    2  501    0  0.11942215520E+03 -0.62420878525E+02  0.32583343798E+02  0.22186496281E+03  0.17321769598E+03 0.  0.
         24    2    3    3    0    0 -0.13597113626E+01 -0.56437070300E+02  0.67012070654E+01  0.98106972146E+02  0.79956738856E+02 0.  0.
         -6    2    1    2    0  502 -0.11942215520E+03  0.62420878525E+02  0.61433465519E+02  0.22718968123E+03  0.17228773416E+03 0.  0.
        -24    2    5    5    0    0 -0.13765746696E+03  0.13939391570E+02  0.69787627841E+02  0.17451271092E+03  0.80252653711E+02 0.  0.
          5    1    3    3  501    0  0.12078186656E+03 -0.59838082253E+01  0.25882136733E+02  0.12375799066E+03  0.47000000000E+01 0. -1.
        -13    1    4    4    0    0 -0.10318098574E+02 -0.40921915740E+02 -0.33637961463E+02  0.53968312901E+02  0.00000000000E+00 0.  1.
         14    1    4    4    0    0  0.89583872111E+01 -0.15515154560E+02  0.40339168528E+02  0.44138659245E+02  0.00000000000E+00 0. -1.
         -5    1    5    5    0  502  0.18235311759E+02  0.48481486955E+02 -0.83541623222E+01  0.52676970305E+02  0.47000000000E+01 0.  1.
         13    1    6    6    0    0 -0.24078128674E+02 -0.87550368123E+01  0.51137151255E+02  0.57196286492E+02  0.00000000000E+00 0. -1.
        -14    1    6    6    0    0 -0.11357933828E+03  0.22694428382E+02  0.18650476587E+02  0.11731642443E+03  0.00000000000E+00 0.  1.
<mgrwt>
<rscale>  2 0.21927576E+03</rscale>
<asrwt>0</asrwt>
<pdfrwt beam="1">  1       21 0.41774727E-01 0.21945931E+03</pdfrwt>
<pdfrwt beam="2">  1       21 0.27310603E-01 0.21945931E+03</pdfrwt>
<totfact> 0.69704666E+04</totfact>
</mgrwt>
</event>
<event>
12    1  0.1026879E-001  0.2029940E+03  0.7546771E-02  0.1147383E+00
         21   -1    0    0  501  502  0.00000000000E+00  0.00000000000E+00  0.31693515045E+03  0.31693515045E+03  0.00000000000E+00 0. -1.
         21   -1    0    0  502  503 -0.00000000000E+00 -0.00000000000E+00 -0.13074898343E+03  0.13074898343E+03  0.00000000000E+00 0. -1.
         -6    2    1    2    0  503 -0.90187987641E+02 -0.53528114215E+02  0.11454585034E+03  0.23308217842E+03  0.17380281338E+03 0.  0.
        -24    2    3    3    0    0 -0.13095733691E+03 -0.39013808555E+02  0.78438374582E+02  0.17652561634E+03  0.79604103327E+02 0.  0.
          6    2    1    2  501    0  0.90187987641E+02  0.53528114215E+02  0.71640316687E+02  0.21460195546E+03  0.17298130588E+03 0.  0.
         24    2    5    5    0    0  0.20808336796E+02  0.69180340278E+02  0.89558003211E+02  0.14110595814E+03  0.81678327118E+02 0.  0.
          5    1    5    5  501    0  0.69379650845E+02 -0.15652226063E+02 -0.17917686524E+02  0.73495997323E+02  0.47000000000E+01 0. -1.
        -13    1    6    6    0    0 -0.23761673502E+02  0.16376657577E+01  0.55383396076E+01  0.24453471786E+02  0.00000000000E+00 0.  1.
         14    1    6    6    0    0  0.44570010298E+02  0.67542674521E+02  0.84019663604E+02  0.11665248635E+03  0.00000000000E+00 0. -1.
         -5    1    3    3    0  503  0.40769349274E+02 -0.14514305660E+02  0.36107475754E+02  0.56556562080E+02  0.47000000000E+01 0.  1.
         13    1    4    4    0    0 -0.44034830311E+02  0.93985567580E+01  0.60515732626E+02  0.75429125972E+02  0.00000000000E+00 0. -1.
        -14    1    4    4    0    0 -0.86922506603E+02 -0.48412365314E+02  0.17922641956E+02  0.10109649037E+03  0.00000000000E+00 0.  1.
<mgrwt>
<rscale>  2 0.20281801E+03</rscale>
<asrwt>0</asrwt>
<pdfrwt beam="1">  1       21 0.48759254E-01 0.20299397E+03</pdfrwt>
<pdfrwt beam="2">  1       21 0.20115228E-01 0.20299397E+03</pdfrwt>
<totfact> 0.91295476E+04</totfact>
</mgrwt>
</event>
<event>
12    1  0.1026879E-001  0.1998243E+03  0.7546771E-02  0.1153394E+00
         21   -1    0    0  503  502  0.00000000000E+00  0.00000000000E+00  0.13606649653E+03  0.13606649653E+03  0.00000000000E+00 0.  1.
         21   -1    0    0  501  503 -0.00000000000E+00 -0.00000000000E+00 -0.27067417340E+03  0.27067417340E+03  0.00000000000E+00 0.  1.
          6    2    1    2  501    0  0.83473708914E+02  0.50736325619E+02 -0.73720815583E+02  0.21298945111E+03  0.17432071827E+03 0.  0.
         24    2    3    3    0    0  0.10903495842E+03  0.81547894129E+02 -0.69159772737E+02  0.17242316779E+03  0.80049943357E+02 0.  0.
         -6    2    1    2    0  502 -0.83473708914E+02 -0.50736325619E+02 -0.60886861284E+02  0.19375121882E+03  0.15585342506E+03 0.  0.
        -24    2    5    5    0    0 -0.60954764093E+02 -0.41646286997E+02  0.18478120589E+02  0.11062106770E+03  0.80285012254E+02 0.  0.
          5    1    3    3  501    0 -0.25561249508E+02 -0.30811568510E+02 -0.45610428455E+01  0.40566283319E+02  0.47000000000E+01 0. -1.
        -11    1    4    4    0    0  0.33347578064E+02 -0.73396196360E+01  0.44111885016E+01  0.34429486827E+02  0.00000000000E+00 0.  1.
         12    1    4    4    0    0  0.75687380358E+02  0.88887513765E+02 -0.73570961239E+02  0.13799368097E+03  0.00000000000E+00 0. -1.
         -5    1    5    5    0  502 -0.22518944821E+02 -0.90900386218E+01 -0.79364981873E+02  0.83130151123E+02  0.47000000000E+01 0.  1.
         13    1    6    6    0    0 -0.25687820799E+02  0.14277210824E+02  0.31667402601E+02  0.43203324801E+02  0.00000000000E+00 0. -1.
        -14    1    6    6    0    0 -0.35266943294E+02 -0.55923497821E+02 -0.13189282012E+02  0.67417742900E+02  0.00000000000E+00 0.  1.
<mgrwt>
<rscale>  2 0.19572788E+03</rscale>
<asrwt>0</asrwt>
<pdfrwt beam="1">  1       21 0.20933307E-01 0.19982429E+03</pdfrwt>
<pdfrwt beam="2">  1       21 0.41642181E-01 0.19982429E+03</pdfrwt>
<totfact> 0.11734578E+05</totfact>
</mgrwt>
</event>
<event>
12    1  0.1026879E-001  0.4036487E+03  0.7546771E-02  0.1042541E+00
         21   -1    0    0  501  502  0.00000000000E+00  0.00000000000E+00  0.21201690641E+03  0.21201690641E+03  0.00000000000E+00 0.  1.
         21   -1    0    0  502  503 -0.00000000000E+00 -0.00000000000E+00 -0.11780035461E+04  0.11780035461E+04  0.00000000000E+00 0.  1.
         -6    2    1    2    0  503  0.19040027832E+03 -0.31059070926E+03 -0.89289279587E+03  0.97980709112E+03  0.17333648269E+03 0.  0.
        -24    2    3    3    0    0  0.11444207865E+01 -0.10609000185E+03 -0.20015846105E+03  0.23312023067E+03  0.55002129257E+02 0.  0.
          6    2    1    2  501    0 -0.19040027832E+03  0.31059070926E+03 -0.73093843849E+02  0.41021336142E+03  0.17382012890E+03 0.  0.
         24    2    5    5    0    0 -0.18369817923E+03  0.25933895702E+03 -0.93139562914E+01  0.32798426500E+03  0.80530817882E+02 0.  0.
          5    1    5    5  501    0 -0.67020990982E+01  0.51251752242E+02 -0.63779887558E+02  0.82229096414E+02  0.47000000000E+01 0. -1.
        -13    1    6    6    0    0 -0.40173713885E+02  0.73786951057E+02 -0.36947690279E+02  0.91780026425E+02  0.00000000000E+00 0.  1.
         14    1    6    6    0    0 -0.14352446534E+03  0.18555200596E+03  0.27633733987E+02  0.23620423858E+03  0.00000000000E+00 0. -1.
         -5    1    3    3    0  503  0.18925585754E+03 -0.20450070741E+03 -0.69273433482E+03  0.74668686046E+03  0.47000000000E+01 0.  1.
         11    1    4    4    0    0  0.12658462145E+02 -0.51864221185E+02 -0.50350227859E+02  0.73384463944E+02  0.00000000000E+00 0. -1.
        -12    1    4    4    0    0 -0.11514041359E+02 -0.54225780667E+02 -0.14980823319E+03  0.15973576672E+03  0.00000000000E+00 0.  1.
<mgrwt>
<rscale>  2 0.40359671E+03</rscale>
<asrwt>0</asrwt>
<pdfrwt beam="1">  1       21 0.32617987E-01 0.40364872E+03</pdfrwt>
<pdfrwt beam="2">  1       21 0.18123131E+00 0.40364872E+03</pdfrwt>
<totfact> 0.13913380E+03</totfact>
</mgrwt>
</event>
<event>
12    1  0.1026879E-001  0.2114780E+03  0.7546771E-02  0.1140592E+00
         21   -1    0    0  503  502  0.00000000000E+00  0.00000000000E+00  0.46400015868E+02  0.46400015868E+02  0.00000000000E+00 0. -1.
         21   -1    0    0  501  503 -0.00000000000E+00 -0.00000000000E+00 -0.12632568079E+04  0.12632568079E+04  0.00000000000E+00 0. -1.
          6    2    1    2  501    0  0.42423986442E+02  0.11308974501E+03 -0.93062867627E+03  0.95435458468E+03  0.17359105725E+03 0.  0.
         24    2    3    3    0    0 -0.35802108339E+02  0.91311589576E+02 -0.62222714816E+03  0.63540756322E+03  0.83405935870E+02 0.  0.
         -6    2    1    2    0  502 -0.42423986442E+02 -0.11308974501E+03 -0.28622811579E+03  0.35530223911E+03  0.17240667562E+03 0.  0.
        -24    2    5    5    0    0  0.15522279783E+02 -0.59278274019E+02 -0.65003694131E+02  0.12032185926E+03  0.80604060839E+02 0.  0.
          5    1    3    3  501    0  0.78226094781E+02  0.21778155435E+02 -0.30840152811E+03  0.31894702146E+03  0.47000000000E+01 0. -1.
        -13    1    4    4    0    0 -0.43846595918E+02  0.50041807048E+02 -0.19340953530E+03  0.20453350525E+03  0.00000000000E+00 0.  1.
         14    1    4    4    0    0  0.80444875793E+01  0.41269782528E+02 -0.42881761286E+03  0.43087405797E+03  0.00000000000E+00 0. -1.
         -5    1    5    5    0  502 -0.57946266225E+02 -0.53811470992E+02 -0.22122442166E+03  0.23498037985E+03  0.47000000000E+01 0.  1.
         11    1    6    6    0    0 -0.18266652827E+02 -0.13724256006E+02  0.11105286435E+02  0.25403802771E+02  0.00000000000E+00 0. -1.
        -12    1    6    6    0    0  0.33788932609E+02 -0.45554018013E+02 -0.76108980566E+02  0.94918056484E+02  0.00000000000E+00 0.  1.
<mgrwt>
<rscale>  2 0.21123479E+03</rscale>
<asrwt>0</asrwt>
<pdfrwt beam="1">  1       21 0.71384646E-02 0.21147799E+03</pdfrwt>
<pdfrwt beam="2">  1       21 0.19434718E+00 0.21147799E+03</pdfrwt>
<totfact> 0.21068210E+04</totfact>
</mgrwt>
</event>
<event>
12    1  0.1026879E-001  0.2105641E+03  0.7546771E-02  0.1142017E+00
         21   -1    0    0  503  502  0.00000000000E+00  0.00000000000E+00  0.12356949416E+03  0.12356949416E+03  0.00000000000E+00 0.  1.
         21   -1    0    0  501  503 -0.00000000000E+00 -0.00000000000E+00 -0.36756823915E+03  0.36756823915E+03  0.00000000000E+00 0.  1.
          6    2    1    2  501    0 -0.10051021140E+03  0.66676069629E+02 -0.71422166140E+02  0.22234743474E+03  0.17259564033E+03 0.  0.
         24    2    3    3    0    0 -0.13263704263E+03  0.25374492046E+02 -0.62372017159E+02  0.16903750328E+03  0.80292957753E+02 0.  0.
         -6    2    1    2    0  502  0.10051021140E+03 -0.66676069629E+02 -0.17257657884E+03  0.26879029857E+03  0.16708545175E+03 0.  0.
        -24    2    5    5    0    0  0.63034315175E+02  0.17920542973E+02 -0.47671016845E+02  0.11327657224E+03  0.79149132783E+02 0.  0.
          5    1    3    3  501    0  0.32126831233E+02  0.41301577583E+02 -0.90501489803E+01  0.53309931462E+02  0.47000000000E+01 0. -1.
        -13    1    4    4    0    0 -0.11895434293E+03  0.48587782865E+02 -0.60504501718E+02  0.14202712091E+03  0.00000000000E+00 0.  1.
         14    1    4    4    0    0 -0.13682699705E+02 -0.23213290819E+02 -0.18675154411E+01  0.27010382370E+02  0.00000000000E+00 0. -1.
         -5    1    5    5    0  502  0.37475896223E+02 -0.84596612602E+02 -0.12490556200E+03  0.15551372634E+03  0.47000000000E+01 0.  1.
         11    1    6    6    0    0  0.87078038281E+01  0.10786583974E+02  0.21161720097E+02  0.25298115321E+02  0.00000000000E+00 0. -1.
        -12    1    6    6    0    0  0.54326511346E+02  0.71339589990E+01 -0.68832736942E+02  0.87978456914E+02  0.00000000000E+00 0.  1.
<mgrwt>
<rscale>  2 0.20943193E+03</rscale>
<asrwt>0</asrwt>
<pdfrwt beam="1">  1       21 0.19010691E-01 0.21056414E+03</pdfrwt>
<pdfrwt beam="2">  1       21 0.56548960E-01 0.21056414E+03</pdfrwt>
<totfact> 0.74029437E+04</totfact>
</mgrwt>
</event>
<event>
12    1  0.1026879E-001  0.2099625E+03  0.7546771E-02  0.1141682E+00
         21   -1    0    0  503  502  0.00000000000E+00  0.00000000000E+00  0.27708010468E+03  0.27708010468E+03  0.00000000000E+00 0. -1.
         21   -1    0    0  501  503 -0.00000000000E+00 -0.00000000000E+00 -0.17294996874E+03  0.17294996874E+03  0.00000000000E+00 0.  1.
          6    2    1    2  501    0 -0.64540218301E+02 -0.97796149719E+02  0.11653615019E+03  0.24013526450E+03  0.17422612972E+03 0.  0.
         24    2    3    3    0    0 -0.44847641865E+02  0.10147376237E+01  0.11464389624E+02  0.94486529894E+02  0.82364624862E+02 0.  0.
         -6    2    1    2    0  502  0.64540218301E+02  0.97796149719E+02 -0.12406014247E+02  0.20989480892E+03  0.17370202919E+03 0.  0.
        -24    2    5    5    0    0 -0.27441555821E+02  0.71114918980E+02  0.56472357517E+01  0.11232153040E+03  0.82303488585E+02 0.  0.
          5    1    3    3  501    0 -0.19692576437E+02 -0.98810887342E+02  0.10507176057E+03  0.14564873461E+03  0.47000000000E+01 0. -1.
        -11    1    4    4    0    0  0.67900909283E+01  0.56953847778E+01 -0.27972822106E+02  0.29343168185E+02  0.00000000000E+00 0.  1.
         12    1    4    4    0    0 -0.51637732793E+02 -0.46806471541E+01  0.39437211729E+02  0.65143361709E+02  0.00000000000E+00 0. -1.
         -5    1    5    5    0  502  0.91981774123E+02  0.26681230739E+02 -0.18053249999E+02  0.97573278514E+02  0.47000000000E+01 0.  1.
         11    1    6    6    0    0  0.81227071803E+00 -0.67159039829E+01  0.26157926106E+02  0.27018516765E+02  0.00000000000E+00 0. -1.
        -12    1    6    6    0    0 -0.28253826539E+02  0.77830822963E+02 -0.20510690354E+02  0.85303013639E+02  0.00000000000E+00 0.  1.
<mgrwt>
<rscale>  2 0.20985379E+03</rscale>
<asrwt>0</asrwt>
<pdfrwt beam="1">  1       21 0.42627708E-01 0.20996255E+03</pdfrwt>
<pdfrwt beam="2">  1       21 0.26607688E-01 0.20996255E+03</pdfrwt>
<totfact> 0.70620725E+04</totfact>
</mgrwt>
</event>
<event>
12    1  0.1026879E-001  0.2273879E+03  0.7546771E-02  0.1129542E+00
         21   -1    0    0  501  502  0.00000000000E+00  0.00000000000E+00  0.93005320963E+02  0.93005320963E+02  0.00000000000E+00 0.  1.
         21   -1    0    0  502  503 -0.00000000000E+00 -0.00000000000E+00 -0.60968641515E+03  0.60968641515E+03  0.00000000000E+00 0.  1.
         -6    2    1    2    0  503  0.11627696682E+03  0.89956767455E+02 -0.37255989061E+03  0.43347776839E+03  0.16579973033E+03 0.  0.
        -24    2    3    3    0    0  0.72119029706E+02  0.16966716533E+02 -0.30778011094E+03  0.32625845671E+03  0.78911089009E+02 0.  0.
          6    2    1    2  501    0 -0.11627696682E+03 -0.89956767455E+02 -0.14412120358E+03  0.26921396773E+03  0.17347243606E+03 0.  0.
         24    2    5    5    0    0 -0.57860138183E+01  0.21395456643E+02 -0.34839593697E+02  0.77975559540E+02  0.66144894554E+02 0.  0.
          5    1    5    5  501    0 -0.11049095300E+03 -0.11135222410E+03 -0.10928160989E+03  0.19123840819E+03  0.47000000000E+01 0. -1.
        -11    1    6    6    0    0 -0.30403454238E+02 -0.78467223646E+01 -0.18133144635E+02  0.36259509316E+02  0.00000000000E+00 0.  1.
         12    1    6    6    0    0  0.24617440420E+02  0.29242179008E+02 -0.16706449063E+02  0.41716050224E+02  0.00000000000E+00 0. -1.
         -5    1    3    3    0  503  0.44157937110E+02  0.72990050923E+02 -0.64779779664E+02  0.10721931168E+03  0.47000000000E+01 0.  1.
         11    1    4    4    0    0  0.22573065116E+02  0.23863896655E+02 -0.23880245178E+03  0.24105111452E+03  0.00000000000E+00 0. -1.
        -12    1    4    4    0    0  0.49545964590E+02 -0.68971801223E+01 -0.68977659161E+02  0.85207342196E+02  0.00000000000E+00 0.  1.
<mgrwt>
<rscale>  2 0.22592431E+03</rscale>
<asrwt>0</asrwt>
<pdfrwt beam="1">  1       21 0.14308511E-01 0.22738786E+03</pdfrwt>
<pdfrwt beam="2">  1       21 0.93797908E-01 0.22738786E+03</pdfrwt>
<totfact> 0.40072254E+04</totfact>
</mgrwt>
</event>
<event>
12    1  0.1026879E-001  0.2538204E+03  0.7546771E-02  0.1111230E+00
         21   -1    0    0  503  502  0.00000000000E+00  0.00000000000E+00  0.29736030747E+03  0.29736030747E+03  0.00000000000E+00 0.  1.
         21   -1    0    0  501  503 -0.00000000000E+00 -0.00000000000E+00 -0.21573419531E+03  0.21573419531E+03  0.00000000000E+00 0.  1.
          6    2    1    2  501    0 -0.15364278010E+03 -0.10219218961E+03  0.25243075977E+02  0.25507257743E+03  0.17428556847E+03 0.  0.
         24    2    3    3    0    0 -0.14258996808E+02 -0.18861009483E+02 -0.19484599584E+02  0.86565664847E+02  0.80962386580E+02 0.  0.
         -6    2    1    2    0  502  0.15364278010E+03  0.10219218961E+03  0.56383036182E+02  0.25802192535E+03  0.17130942677E+03 0.  0.
        -24    2    5    5    0    0  0.15356054000E+03  0.13417959490E+03  0.54747240042E+02  0.22564961172E+03  0.79595752654E+02 0.  0.
          5    1    3    3  501    0 -0.13938378330E+03 -0.83331180122E+02  0.44727675561E+02  0.16850691258E+03  0.47000000000E+01 0. -1.
        -11    1    4    4    0    0 -0.24229179057E+02  0.24794352563E+02 -0.23071844798E+02  0.41642803210E+02  0.00000000000E+00 0.  1.
         12    1    4    4    0    0  0.99701822491E+01 -0.43655362046E+02  0.35872452145E+01  0.44922861637E+02  0.00000000000E+00 0. -1.
         -5    1    5    5    0  502  0.82240100570E-01 -0.31987405300E+02  0.16357961400E+01  0.32372313638E+02  0.47000000000E+01 0.  1.
         11    1    6    6    0    0  0.40013198939E+01  0.29727969635E+02  0.28448157333E+02  0.41340783679E+02  0.00000000000E+00 0. -1.
        -12    1    6    6    0    0  0.14955922011E+03  0.10445162527E+03  0.26299082709E+02  0.18430882804E+03  0.00000000000E+00 0.  1.
<mgrwt>
<rscale>  2 0.25331032E+03</rscale>
<asrwt>0</asrwt>
<pdfrwt beam="1">  1       21 0.45747740E-01 0.25382042E+03</pdfrwt>
<pdfrwt beam="2">  1       21 0.33189876E-01 0.25382042E+03</pdfrwt>
<totfact> 0.38912025E+04</totfact>
</mgrwt>
</event>
<event>
12    1  0.1026879E-001  0.1939288E+03  0.7546771E-02  0.1155202E+00
         21   -1    0    0  503  502  0.00000000000E+00  0.00000000000E+00  0.30245704256E+03  0.30245704256E+03  0.00000000000E+00 0.  1.
         21   -1    0    0  501  503 -0.00000000000E+00 -0.00000000000E+00 -0.19434557333E+03  0.19434557333E+03  0.00000000000E+00 0.  1.
          6    2    1    2  501    0  0.84475786942E+02  0.86658928980E+01 -0.95852361482E+02  0.21536054396E+03  0.17315089492E+03 0.  0.
         24    2    3    3    0    0  0.12066399311E+03  0.13078495489E+02 -0.10246808270E+03  0.17801198180E+03  0.80359886843E+02 0.  0.
         -6    2    1    2    0  502 -0.84475786942E+02 -0.86658928980E+01  0.20396383071E+03  0.28144207194E+03  0.17434775405E+03 0.  0.
        -24    2    5    5    0    0 -0.11688588020E+03 -0.38996314023E+02  0.15299092438E+03  0.21368754611E+03  0.84101860396E+02 0.  0.
          5    1    3    3  501    0 -0.36188206173E+02 -0.44126025905E+01  0.66157212230E+01  0.37348562153E+02  0.47000000000E+01 0. -1.
        -11    1    4    4    0    0  0.49901948088E+02  0.40922571793E+02 -0.24303371919E+02  0.68960243559E+02  0.00000000000E+00 0.  1.
         12    1    4    4    0    0  0.70762045026E+02 -0.27844076304E+02 -0.78164710786E+02  0.10905173824E+03  0.00000000000E+00 0. -1.
         -5    1    5    5    0  502  0.32410093259E+02  0.30330421125E+02  0.50972906329E+02  0.67754525829E+02  0.47000000000E+01 0.  1.
         11    1    6    6    0    0 -0.56905895450E+02 -0.34472588036E+02  0.22899918389E+02  0.70363673334E+02  0.00000000000E+00 0. -1.
        -12    1    6    6    0    0 -0.59979984752E+02 -0.45237259864E+01  0.13009100599E+03  0.14332387278E+03  0.00000000000E+00 0.  1.
<mgrwt>
<rscale>  2 0.19365946E+03</rscale>
<asrwt>0</asrwt>
<pdfrwt beam="1">  1       21 0.46531853E-01 0.19392884E+03</pdfrwt>
<pdfrwt beam="2">  1       21 0.29899319E-01 0.19392884E+03</pdfrwt>
<totfact> 0.47416512E+04</totfact>
</mgrwt>
</event>
<event>
12    1  0.1026879E-001  0.2625083E+03  0.7546771E-02  0.1105842E+00
         21   -1    0    0  501  502  0.00000000000E+00  0.00000000000E+00  0.12433685438E+04  0.12433685438E+04  0.00000000000E+00 0. -1.
         21   -1    0    0  502  503 -0.00000000000E+00 -0.00000000000E+00 -0.55747189749E+02  0.55747189749E+02  0.00000000000E+00 0. -1.
         -6    2    1    2    0  503 -0.17976142147E+03  0.78682956604E+02  0.66288625570E+03  0.71297179464E+03  0.17437148748E+03 0.  0.
        -24    2    3    3    0    0 -0.88189083260E+02  0.70164993437E+01  0.18552531231E+03  0.22162961805E+03  0.82906576456E+02 0.  0.
          6    2    1    2  501    0  0.17976142147E+03 -0.78682956604E+02  0.52473509837E+03  0.58614393893E+03  0.17237348223E+03 0.  0.
         24    2    5    5    0    0  0.16921984255E+03 -0.73862699669E+02  0.53377052768E+03  0.57071381432E+03  0.81928188746E+02 0.  0.
          5    1    5    5  501    0  0.10541578911E+02 -0.48202569351E+01 -0.90354293103E+01  0.15430124617E+02  0.47000000000E+01 0. -1.
        -13    1    6    6    0    0 -0.71529994999E+01 -0.13783989899E+02  0.35630693860E+02  0.38867854640E+02  0.00000000000E+00 0.  1.
         14    1    6    6    0    0  0.17637284205E+03 -0.60078709770E+02  0.49813983382E+03  0.53184595968E+03  0.00000000000E+00 0. -1.
         -5    1    3    3    0  503 -0.91572338206E+02  0.71666457260E+02  0.47736094339E+03  0.49134217659E+03  0.47000000000E+01 0.  1.
         13    1    4    4    0    0 -0.41465607799E+02 -0.34000258935E+02  0.11927836447E+03  0.13077745397E+03  0.00000000000E+00 0. -1.
        -14    1    4    4    0    0 -0.46723475461E+02  0.41016758278E+02  0.66246947844E+02  0.90852164077E+02  0.00000000000E+00 0.  1.
<mgrwt>
<rscale>  2 0.26217692E+03</rscale>
<asrwt>0</asrwt>
<pdfrwt beam="1">  1       21 0.19128745E+00 0.26250827E+03</pdfrwt>
<pdfrwt beam="2">  1       21 0.85764917E-02 0.26250827E+03</pdfrwt>
<totfact> 0.15504497E+04</totfact>
</mgrwt>
</event>
<event>
12    1  0.1026879E-001  0.1772888E+03  0.7546771E-02  0.1170817E+00
         21   -1    0    0  501  502  0.00000000000E+00  0.00000000000E+00  0.42652213977E+03  0.42652213977E+03  0.00000000000E+00 0. -1.
         21   -1    0    0  502  503 -0.00000000000E+00 -0.00000000000E+00 -0.11290190002E+03  0.11290190002E+03  0.00000000000E+00 0. -1.
         -6    2    1    2    0  503 -0.40411711775E+01  0.36849245491E+02 -0.37859139983E+01  0.17586113853E+03  0.17186799860E+03 0.  0.
        -24    2    3    3    0    0 -0.23612245561E+02 -0.21330673489E+02 -0.49098071581E+02  0.99420236198E+02  0.80381757637E+02 0.  0.
          6    2    1    2  501    0  0.40411711775E+01 -0.36849245491E+02  0.31740615375E+03  0.36356290125E+03  0.17336989003E+03 0.  0.
         24    2    5    5    0    0 -0.21114024605E+02 -0.87119030696E+02  0.20698379199E+03  0.23956684020E+03  0.80712162851E+02 0.  0.
          5    1    5    5  501    0  0.25155195782E+02  0.50269785205E+02  0.11042236176E+03  0.12399606105E+03  0.47000000000E+01 0. -1.
        -13    1    6    6    0    0  0.11922874277E+02  0.83349108143E+01  0.56378205709E+02  0.58224803549E+02  0.00000000000E+00 0.  1.
         14    1    6    6    0    0 -0.33036898882E+02 -0.95453941510E+02  0.15060558628E+03  0.18134203665E+03  0.00000000000E+00 0. -1.
         -5    1    3    3    0  503  0.19571074383E+02  0.58179918980E+02  0.45312157582E+02  0.76440902335E+02  0.47000000000E+01 0.  1.
         11    1    4    4    0    0 -0.13757416095E+02  0.30540010307E+02 -0.16161147317E+02  0.37190609161E+02  0.00000000000E+00 0. -1.
        -12    1    4    4    0    0 -0.98548294658E+01 -0.51870683796E+02 -0.32936924264E+02  0.62229627037E+02  0.00000000000E+00 0.  1.
<mgrwt>
<rscale>  2 0.17692055E+03</rscale>
<asrwt>0</asrwt>
<pdfrwt beam="1">  1       21 0.65618790E-01 0.17728879E+03</pdfrwt>
<pdfrwt beam="2">  1       21 0.17369523E-01 0.17728879E+03</pdfrwt>
<totfact> 0.64458418E+04</totfact>
</mgrwt>
</event>
<event>
12    1  0.1026879E-001  0.2172126E+03  0.7546771E-02  0.1136263E+00
         21   -1    0    0  501  502  0.00000000000E+00  0.00000000000E+00  0.19641620904E+03  0.19641620904E+03  0.00000000000E+00 0. -1.
         21   -1    0    0  502  503 -0.00000000000E+00 -0.00000000000E+00 -0.36154091776E+03  0.36154091776E+03  0.00000000000E+00 0.  1.
         -6    2    1    2    0  503 -0.14318817042E+01  0.12960968481E+03 -0.24508199672E+03  0.32649548420E+03  0.17243374207E+03 0.  0.
        -24    2    3    3    0    0 -0.11453350736E+02 -0.92198695260E+00 -0.12421930837E+03  0.14825736647E+03  0.80111053168E+02 0.  0.
          6    2    1    2  501    0  0.14318817042E+01 -0.12960968481E+03  0.79957288006E+02  0.23146164260E+03  0.17430032533E+03 0.  0.
         24    2    5    5    0    0  0.11291791714E+02 -0.13181701855E+03  0.44165044234E+01  0.15510334160E+03  0.80835079784E+02 0.  0.
          5    1    5    5  501    0 -0.98599100095E+01  0.22073337454E+01  0.75540783583E+02  0.76358301002E+02  0.47000000000E+01 0. -1.
        -11    1    6    6    0    0 -0.11885176217E+02 -0.67083676099E+02 -0.34214081343E+02  0.76237001350E+02  0.00000000000E+00 0.  1.
         12    1    6    6    0    0  0.23176967931E+02 -0.64733342456E+02  0.38630585766E+02  0.78866340251E+02  0.00000000000E+00 0. -1.
         -5    1    3    3    0  503  0.10021469032E+02  0.13053167176E+03 -0.12086268836E+03  0.17823811773E+03  0.47000000000E+01 0.  1.
         13    1    4    4    0    0  0.33594702591E+02 -0.15423955999E+01 -0.36408935851E+02  0.49564035713E+02  0.00000000000E+00 0. -1.
        -14    1    4    4    0    0 -0.45048053327E+02  0.62040864734E+00 -0.87810372514E+02  0.98693330760E+02  0.00000000000E+00 0.  1.
<mgrwt>
<rscale>  2 0.21683792E+03</rscale>
<asrwt>0</asrwt>
<pdfrwt beam="1">  1       21 0.30217878E-01 0.21721262E+03</pdfrwt>
<pdfrwt beam="2">  1       21 0.55621680E-01 0.21721262E+03</pdfrwt>
<totfact> 0.31586547E+04</totfact>
</mgrwt>
</event>
<event>
12    1  0.1026879E-001  0.2296065E+03  0.7546771E-02  0.1127871E+00
         21   -1    0    0  503  502  0.00000000000E+00  0.00000000000E+00  0.66265998840E+03  0.66265998840E+03  0.00000000000E+00 0.  1.
         21   -1    0    0  501  503 -0.00000000000E+00 -0.00000000000E+00 -0.18931791194E+03  0.18931791194E+03  0.00000000000E+00 0.  1.
          6    2    1    2  501    0  0.78816630390E+02  0.11817733831E+03 -0.89243593508E+02  0.24634037474E+03  0.18039184219E+03 0.  0.
         24    2    3    3    0    0  0.54378212775E+02  0.11547222037E+03  0.35064376032E+01  0.15027158590E+03  0.79236549151E+02 0.  0.
         -6    2    1    2    0  502 -0.78816630390E+02 -0.11817733831E+03  0.56258566996E+03  0.60563752560E+03  0.17354028886E+03 0.  0.
        -24    2    5    5    0    0 -0.48696333402E+01 -0.98105275497E+02  0.21815966094E+03  0.25276019314E+03  0.81521280436E+02 0.  0.
          5    1    3    3  501    0  0.24438417615E+02  0.27051179379E+01 -0.92750031111E+02  0.96068788843E+02  0.47000000000E+01 0. -1.
        -11    1    4    4    0    0  0.42173924849E+02  0.11948631264E+03 -0.15156556895E+02  0.12761402769E+03  0.00000000000E+00 0.  1.
         12    1    4    4    0    0  0.12204287926E+02 -0.40140922670E+01  0.18662994498E+02  0.22657558212E+02  0.00000000000E+00 0. -1.
         -5    1    5    5    0  502 -0.73946997050E+02 -0.20072062812E+02  0.34442600902E+03  0.35287733246E+03  0.47000000000E+01 0.  1.
         11    1    6    6    0    0 -0.20797173489E+02 -0.62879430561E+02  0.58112705555E+02  0.88110338551E+02  0.00000000000E+00 0. -1.
        -12    1    6    6    0    0  0.15927540149E+02 -0.35225844936E+02  0.16004695539E+03  0.16464985459E+03  0.00000000000E+00 0.  1.
<mgrwt>
<rscale>  2 0.22825899E+03</rscale>
<asrwt>0</asrwt>
<pdfrwt beam="1">  1       21 0.10194769E+00 0.22960654E+03</pdfrwt>
<pdfrwt beam="2">  1       21 0.29125833E-01 0.22960654E+03</pdfrwt>
<totfact> 0.86283708E+03</totfact>
</mgrwt>
</event>
<event>
12    1  0.1026879E-001  0.1764729E+03  0.7546771E-02  0.1171453E+00
         21   -1    0    0  501  502  0.00000000000E+00  0.00000000000E+00  0.84325348944E+03  0.84325348944E+03  0.00000000000E+00 0. -1.
         21   -1    0    0  502  503 -0.00000000000E+00 -0.00000000000E+00 -0.37442708079E+02  0.37442708079E+02  0.00000000000E+00 0. -1.
         -6    2    1    2    0  503  0.36448131937E+02  0.82616134542E+01  0.34476834587E+03  0.38730854350E+03  0.17247021475E+03 0.  0.
        -24    2    3    3    0    0 -0.29324448937E+01  0.58952532185E+02  0.14697018359E+03  0.17930228860E+03  0.84054003777E+02 0.  0.
          6    2    1    2  501    0 -0.36448131937E+02 -0.82616134542E+01  0.46104243549E+03  0.49338765402E+03  0.17168147611E+03 0.  0.
         24    2    5    5    0    0 -0.13399456741E+02  0.60783219351E+02  0.26652735262E+03  0.28564589647E+03  0.81747191269E+02 0.  0.
          5    1    5    5  501    0 -0.23048675196E+02 -0.69044832805E+02  0.19451508287E+03  0.20774175755E+03  0.47000000000E+01 0. -1.
        -11    1    6    6    0    0 -0.36732622343E+02  0.53255246132E+01  0.14973710643E+03  0.15426875185E+03  0.00000000000E+00 0.  1.
         12    1    6    6    0    0  0.23333165602E+02  0.55457694738E+02  0.11679024620E+03  0.13137714462E+03  0.00000000000E+00 0. -1.
         -5    1    3    3    0  503  0.39380576830E+02 -0.50690918731E+02  0.19779816228E+03  0.20800625489E+03  0.47000000000E+01 0.  1.
         13    1    4    4    0    0 -0.26725272677E+02 -0.92125292569E+01  0.59580281059E+02  0.65946347784E+02  0.00000000000E+00 0. -1.
        -14    1    4    4    0    0  0.23792827783E+02  0.68165061442E+02  0.87389902529E+02  0.11335594082E+03  0.00000000000E+00 0.  1.
<mgrwt>
<rscale>  2 0.17627992E+03</rscale>
<asrwt>0</asrwt>
<pdfrwt beam="1">  1       21 0.12973129E+00 0.17647293E+03</pdfrwt>
<pdfrwt beam="2">  1       21 0.57604172E-02 0.17647293E+03</pdfrwt>
<totfact> 0.92542765E+04</totfact>
</mgrwt>
</event>
<event>
12    1  0.1026879E-001  0.2204923E+03  0.7546771E-02  0.1133713E+00
         21   -1    0    0  501  502  0.00000000000E+00  0.00000000000E+00  0.98847248909E+02  0.98847248909E+02  0.00000000000E+00 0. -1.
         21   -1    0    0  502  503 -0.00000000000E+00 -0.00000000000E+00 -0.61759662724E+03  0.61759662724E+03  0.00000000000E+00 0.  1.
         -6    2    1    2    0  503  0.57519652266E+02 -0.12346828643E+03 -0.42301362846E+03  0.47702973809E+03  0.17338948356E+03 0.  0.
        -24    2    3    3    0    0  0.13014254102E+02 -0.13464821717E+03 -0.36667818910E+03  0.40421838565E+03  0.10315083971E+03 0.  0.
          6    2    1    2  501    0 -0.57519652266E+02  0.12346828643E+03 -0.95735749877E+02  0.23941413806E+03  0.17204902659E+03 0.  0.
         24    2    5    5    0    0  0.35731866694E+02  0.49704315618E+02 -0.48457386118E+02  0.11137389885E+03  0.79427588323E+02 0.  0.
          5    1    5    5  501    0 -0.93251518960E+02  0.73763970811E+02 -0.47278363758E+02  0.12804023921E+03  0.47000000000E+01 0. -1.
        -11    1    6    6    0    0  0.38072202093E+02  0.55612750334E+02 -0.51391951168E+01  0.67592025405E+02  0.00000000000E+00 0.  1.
         12    1    6    6    0    0 -0.23403353986E+01 -0.59084347158E+01 -0.43318191002E+02  0.43781873443E+02  0.00000000000E+00 0. -1.
         -5    1    3    3    0  503  0.44505398164E+02  0.11179930743E+02 -0.56335439352E+02  0.72811352440E+02  0.47000000000E+01 0.  1.
         11    1    4    4    0    0  0.48851012814E+02 -0.70458159705E+02 -0.12478498752E+03  0.15140035281E+03  0.00000000000E+00 0. -1.
        -12    1    4    4    0    0 -0.35836758712E+02 -0.64190057467E+02 -0.24189320159E+03  0.25281803283E+03  0.00000000000E+00 0.  1.
<mgrwt>
<rscale>  2 0.22022866E+03</rscale>
<asrwt>0</asrwt>
<pdfrwt beam="1">  1       21 0.15207269E-01 0.22049227E+03</pdfrwt>
<pdfrwt beam="2">  1       21 0.95014868E-01 0.22049227E+03</pdfrwt>
<totfact> 0.34905122E+04</totfact>
</mgrwt>
</event>
<event>
12    1  0.1026879E-001  0.2455612E+03  0.7546771E-02  0.1116186E+00
         21   -1    0    0  501  502  0.00000000000E+00  0.00000000000E+00  0.38721329999E+03  0.38721329999E+03  0.00000000000E+00 0.  1.
         21   -1    0    0  502  503 -0.00000000000E+00 -0.00000000000E+00 -0.26495815854E+03  0.26495815854E+03  0.00000000000E+00 0.  1.
         -6    2    1    2    0  503 -0.11369194103E+03 -0.13317094979E+03 -0.14842308828E+03  0.28670324307E+03  0.17178177182E+03 0.  0.
        -24    2    3    3    0    0 -0.33979222181E+02 -0.11956730617E+03 -0.13825543830E+03  0.20506594907E+03  0.86524846155E+02 0.  0.
          6    2    1    2  501    0  0.11369194103E+03  0.13317094979E+03  0.27067822973E+03  0.36546821546E+03  0.17216257763E+03 0.  0.
         24    2    5    5    0    0  0.43006035889E+02  0.13389447411E+03  0.12834968092E+03  0.20648228375E+03  0.79900210212E+02 0.  0.
          5    1    5    5  501    0  0.70685905141E+02 -0.72352432225E+00  0.14232854881E+03  0.15898593171E+03  0.47000000000E+01 0. -1.
        -13    1    6    6    0    0 -0.15986582201E+01 -0.14361489324E+01  0.37349611346E+02  0.37411384625E+02  0.00000000000E+00 0.  1.
         14    1    6    6    0    0  0.44604694109E+02  0.13533062304E+03  0.91000069569E+02  0.16907089913E+03  0.00000000000E+00 0. -1.
         -5    1    3    3    0  503 -0.79712718849E+02 -0.13603643618E+02 -0.10167649975E+02  0.81637294002E+02  0.47000000000E+01 0.  1.
         11    1    4    4    0    0  0.27843964450E+02 -0.39115540186E+02 -0.60493882090E+02  0.77232257578E+02  0.00000000000E+00 0. -1.
        -12    1    4    4    0    0 -0.61823186632E+02 -0.80451765984E+02 -0.77761556214E+02  0.12783369149E+03  0.00000000000E+00 0.  1.
<mgrwt>
<rscale>  2 0.24549448E+03</rscale>
<asrwt>0</asrwt>
<pdfrwt beam="1">  1       21 0.59571277E-01 0.24556122E+03</pdfrwt>
<pdfrwt beam="2">  1       21 0.40762794E-01 0.24556122E+03</pdfrwt>
<totfact> 0.14790938E+04</totfact>
</mgrwt>
</event>
<event>
12    1  0.1026879E-001  0.2123036E+03  0.7546771E-02  0.1139937E+00
         21   -1    0    0  501  502  0.00000000000E+00  0.00000000000E+00  0.86648088235E+03  0.86648088235E+03  0.00000000000E+00 0. -1.
         21   -1    0    0  502  503 -0.00000000000E+00 -0.00000000000E+00 -0.99197426522E+02  0.99197426522E+02  0.00000000000E+00 0.  1.
         -6    2    1    2    0  503  0.96541927507E+02  0.77009209954E+02  0.49410678176E+02  0.21707017083E+03  0.17154381878E+03 0.  0.
        -24    2    3    3    0    0  0.84780569110E+02  0.11506597766E+03  0.66408787554E+02  0.17350788391E+03  0.72573649498E+02 0.  0.
          6    2    1    2  501    0 -0.96541927507E+02 -0.77009209954E+02  0.71787277765E+03  0.74860813804E+03  0.17269064035E+03 0.  0.
         24    2    5    5    0    0 -0.14823513852E+02 -0.92533891455E+01  0.49481465506E+03  0.50153372326E+03  0.79932289695E+02 0.  0.
          5    1    5    5  501    0 -0.81718413655E+02 -0.67755820808E+02  0.22305812260E+03  0.24707441478E+03  0.47000000000E+01 0. -1.
        -11    1    6    6    0    0  0.25721936271E+02 -0.15676222702E+02  0.34124850841E+03  0.34257540258E+03  0.00000000000E+00 0.  1.
         12    1    6    6    0    0 -0.40545450123E+02  0.64228335568E+01  0.15356614665E+03  0.15895832068E+03  0.00000000000E+00 0. -1.
         -5    1    3    3    0  503  0.11761358397E+02 -0.38056767704E+02 -0.16998109378E+02  0.43562286921E+02  0.47000000000E+01 0.  1.
         13    1    4    4    0    0  0.21761394188E+02 -0.13090547323E+01  0.28424497206E+02  0.35822115274E+02  0.00000000000E+00 0. -1.
        -14    1    4    4    0    0  0.63019174922E+02  0.11637503239E+03  0.37984290348E+02  0.13768576864E+03  0.00000000000E+00 0.  1.
<mgrwt>
<rscale>  2 0.21207027E+03</rscale>
<asrwt>0</asrwt>
<pdfrwt beam="1">  1       21 0.13330475E+00 0.21230360E+03</pdfrwt>
<pdfrwt beam="2">  1       21 0.15261143E-01 0.21230360E+03</pdfrwt>
<totfact> 0.15217652E+04</totfact>
</mgrwt>
</event>
<event>
12    1  0.1026879E-001  0.1868984E+03  0.7546771E-02  0.1161354E+00
         21   -1    0    0  501  502  0.00000000000E+00  0.00000000000E+00  0.10069807506E+04  0.10069807506E+04  0.00000000000E+00 0. -1.
         21   -1    0    0  502  503 -0.00000000000E+00 -0.00000000000E+00 -0.34646350553E+02  0.34646350553E+02  0.00000000000E+00 0. -1.
         -6    2    1    2    0  503  0.67829384188E+02  0.18466986234E+02  0.47695964980E+03  0.51216780835E+03  0.17286845123E+03 0.  0.
        -24    2    3    3    0    0  0.80751530923E+02  0.29596297790E+02  0.47953301817E+03  0.49429168805E+03  0.83520098051E+02 0.  0.
          6    2    1    2  501    0 -0.67829384188E+02 -0.18466986234E+02  0.49537475021E+03  0.52945929277E+03  0.17317374112E+03 0.  0.
         24    2    5    5    0    0 -0.14054644276E+02  0.42500431530E+02  0.16487382363E+03  0.18907465570E+03  0.81006345454E+02 0.  0.
          5    1    5    5  501    0 -0.53774739912E+02 -0.60967417765E+02  0.33050092658E+03  0.34038463707E+03  0.47000000000E+01 0. -1.
        -13    1    6    6    0    0  0.29260359681E+02  0.38293080888E+02  0.99256750953E+02  0.11033780541E+03  0.00000000000E+00 0.  1.
         14    1    6    6    0    0 -0.43315003957E+02  0.42073506421E+01  0.65617072676E+02  0.78736850291E+02  0.00000000000E+00 0. -1.
         -5    1    3    3    0  503 -0.12922146734E+02 -0.11129311555E+02 -0.25733683693E+01  0.17876120291E+02  0.47000000000E+01 0.  1.
         13    1    4    4    0    0  0.73141481231E+02  0.24470025904E+02  0.19626845916E+03  0.21087855866E+03  0.00000000000E+00 0. -1.
        -14    1    4    4    0    0  0.76100496912E+01  0.51262718860E+01  0.28326455901E+03  0.28341312939E+03  0.00000000000E+00 0.  1.
<mgrwt>
<rscale>  2 0.18682762E+03</rscale>
<asrwt>0</asrwt>
<pdfrwt beam="1">  1       21 0.15492009E+00 0.18689837E+03</pdfrwt>
<pdfrwt beam="2">  1       21 0.53302086E-02 0.18689837E+03</pdfrwt>
<totfact> 0.66429993E+04</totfact>
</mgrwt>
</event>
<event>
12    1  0.1026879E-001  0.1797310E+03  0.7546771E-02  0.1168313E+00
         21   -1    0    0  503  502  0.00000000000E+00  0.00000000000E+00  0.17321779240E+04  0.17321779240E+04  0.00000000000E+00 0. -1.
         21   -1    0    0  501  503 -0.00000000000E+00 -0.00000000000E+00 -0.30282085823E+02  0.30282085823E+02  0.00000000000E+00 0. -1.
          6    2    1    2  501    0 -0.33371611548E+02  0.36704853866E+02  0.30375962722E+03  0.35294922960E+03  0.17274934670E+03 0.  0.
         24    2    3    3    0    0 -0.32697907778E+02  0.70239484795E+02  0.29909073633E+03  0.31875984688E+03  0.78420871128E+02 0.  0.
         -6    2    1    2    0  502  0.33371611548E+02 -0.36704853866E+02  0.13981362109E+04  0.14095107802E+04  0.17168245233E+03 0.  0.
        -24    2    5    5    0    0  0.23247869791E+02 -0.72875477374E+02  0.12946602668E+04  0.12993283625E+04  0.79105553325E+02 0.  0.
          5    1    3    3  501    0 -0.67370376985E+00 -0.33534630929E+02  0.46688908963E+01  0.34189382717E+02  0.47000000000E+01 0. -1.
        -13    1    4    4    0    0 -0.38652852408E+02  0.41124010629E+02  0.27433866535E+03  0.28008379202E+03  0.00000000000E+00 0.  1.
         14    1    4    4    0    0  0.59549446299E+01  0.29115474166E+02  0.24752070980E+02  0.38676054857E+02  0.00000000000E+00 0. -1.
         -5    1    5    5    0  502  0.10123741757E+02  0.36170623508E+02  0.10347594408E+03  0.11018241763E+03  0.47000000000E+01 0.  1.
         11    1    6    6    0    0  0.31052160516E+02  0.52017441581E+01  0.34746315222E+03  0.34888671079E+03  0.00000000000E+00 0. -1.
        -12    1    6    6    0    0 -0.78042907242E+01 -0.78077221532E+02  0.94719711460E+03  0.95044165175E+03  0.00000000000E+00 0.  1.
<mgrwt>
<rscale>  2 0.17947419E+03</rscale>
<asrwt>0</asrwt>
<pdfrwt beam="1">  1       21 0.26648883E+00 0.17973104E+03</pdfrwt>
<pdfrwt beam="2">  1       21 0.46587838E-02 0.17973104E+03</pdfrwt>
<totfact> 0.16353740E+04</totfact>
</mgrwt>
</event>
<event>
12    1  0.1026879E-001  0.1775580E+03  0.7546771E-02  0.1170664E+00
         21   -1    0    0  501  502  0.00000000000E+00  0.00000000000E+00  0.78641309900E+03  0.78641309900E+03  0.00000000000E+00 0. -1.
         21   -1    0    0  502  503 -0.00000000000E+00 -0.00000000000E+00 -0.45172208175E+02  0.45172208175E+02  0.00000000000E+00 0. -1.
         -6    2    1    2    0  503  0.33123210565E+02 -0.46768921732E+01  0.22709700310E+03  0.28827049915E+03  0.17437835721E+03 0.  0.
        -24    2    3    3    0    0  0.85234295822E+02 -0.28706476006E+02  0.15545688472E+03  0.19636085511E+03  0.79383848883E+02 0.  0.
          6    2    1    2  501    0 -0.33123210565E+02  0.46768921732E+01  0.51414388773E+03  0.54331480803E+03  0.17241816301E+03 0.  0.
         24    2    5    5    0    0 -0.15159293619E+02  0.68692840003E+02  0.35856951572E+03  0.37406286826E+03  0.80015132066E+02 0.  0.
          5    1    5    5  501    0 -0.17963916946E+02 -0.64015947830E+02  0.15557437201E+03  0.16925193977E+03  0.47000000000E+01 0. -1.
        -11    1    6    6    0    0  0.27022228363E+02  0.14248282415E+02  0.56380737400E+02  0.64124893195E+02  0.00000000000E+00 0.  1.
         12    1    6    6    0    0 -0.42181521981E+02  0.54444557589E+02  0.30218877832E+03  0.30993797507E+03  0.00000000000E+00 0. -1.
         -5    1    3    3    0  503 -0.52111085257E+02  0.24029583832E+02  0.71640118373E+02  0.91909644033E+02  0.47000000000E+01 0.  1.
         11    1    4    4    0    0  0.64636197865E+02 -0.71377667136E+01  0.38304976470E+02  0.75472226749E+02  0.00000000000E+00 0. -1.
        -12    1    4    4    0    0  0.20598097957E+02 -0.21568709292E+02  0.11715190825E+03  0.12088862836E+03  0.00000000000E+00 0.  1.
<mgrwt>
<rscale>  2 0.17707482E+03</rscale>
<asrwt>0</asrwt>
<pdfrwt beam="1">  1       21 0.12098662E+00 0.17755797E+03</pdfrwt>
<pdfrwt beam="2">  1       21 0.69495711E-02 0.17755797E+03</pdfrwt>
<totfact> 0.79816872E+04</totfact>
</mgrwt>
</event>
<event>
12    1  0.1026879E-001  0.1738830E+03  0.7546771E-02  0.1173872E+00
         21   -1    0    0  501  502  0.00000000000E+00  0.00000000000E+00  0.65490038413E+02  0.65490038413E+02  0.00000000000E+00 0. -1.
         21   -1    0    0  502  503 -0.00000000000E+00 -0.00000000000E+00 -0.60131470269E+03  0.60131470269E+03  0.00000000000E+00 0. -1.
         -6    2    1    2    0  503 -0.11055856103E+02  0.19805500245E+02 -0.42869367483E+03  0.46261599292E+03  0.17239721652E+03 0.  0.
        -24    2    3    3    0    0 -0.49460166582E+02 -0.17877442417E+02 -0.37308190482E+03  0.38509403348E+03  0.79632881978E+02 0.  0.
          6    2    1    2  501    0  0.11055856103E+02 -0.19805500245E+02 -0.10713098944E+03  0.20418874818E+03  0.17234124925E+03 0.  0.
         24    2    5    5    0    0 -0.50784476741E+02 -0.59081834526E+01 -0.10313985902E+03  0.14050687241E+03  0.80562900673E+02 0.  0.
          5    1    5    5  501    0  0.61840332845E+02 -0.13897316792E+02 -0.39911304171E+01  0.63681875776E+02  0.47000000000E+01 0. -1.
        -11    1    6    6    0    0 -0.15584693680E+02  0.29775620248E+02 -0.76916377559E+02  0.83938068688E+02  0.00000000000E+00 0.  1.
         12    1    6    6    0    0 -0.35199783062E+02 -0.35683803701E+02 -0.26223481464E+02  0.56568803719E+02  0.00000000000E+00 0. -1.
         -5    1    3    3    0  503  0.38404310478E+02  0.37682942662E+02 -0.55611770019E+02  0.77521959441E+02  0.47000000000E+01 0.  1.
         13    1    4    4    0    0 -0.28943556828E+02  0.26611884197E+02 -0.96431919541E+02  0.10413950724E+03  0.00000000000E+00 0. -1.
        -14    1    4    4    0    0 -0.20516609753E+02 -0.44489326615E+02 -0.27664998527E+03  0.28095452623E+03  0.00000000000E+00 0.  1.
<mgrwt>
<rscale>  2 0.17386910E+03</rscale>
<asrwt>0</asrwt>
<pdfrwt beam="1">  1       21 0.10075391E-01 0.17388298E+03</pdfrwt>
<pdfrwt beam="2">  1       21 0.92509953E-01 0.17388298E+03</pdfrwt>
<totfact> 0.79574955E+04</totfact>
</mgrwt>
</event>
<event>
12    1  0.1026879E-001  0.1966362E+03  0.7546771E-02  0.1153274E+00
         21   -1    0    0  501  502  0.00000000000E+00  0.00000000000E+00  0.24244104722E+03  0.24244104722E+03  0.00000000000E+00 0.  1.
         21   -1    0    0  502  503 -0.00000000000E+00 -0.00000000000E+00 -0.16739154374E+03  0.16739154374E+03  0.00000000000E+00 0.  1.
         -6    2    1    2    0  503  0.85612728433E+02 -0.83160646088E+01  0.88823427252E+02  0.21576702101E+03  0.17682508285E+03 0.  0.
        -24    2    3    3    0    0  0.27551277167E+02 -0.36413000240E+02 -0.15163591153E+02  0.93309028571E+02  0.79947863362E+02 0.  0.
          6    2    1    2  501    0 -0.85612728433E+02  0.83160646088E+01 -0.13773923772E+02  0.19406556995E+03  0.17341576706E+03 0.  0.
         24    2    5    5    0    0 -0.11729810715E+03 -0.11503307697E+02 -0.39440780502E+02  0.14848434270E+03  0.81245632707E+02 0.  0.
          5    1    5    5  501    0  0.31685378712E+02  0.19819372306E+02  0.25666856730E+02  0.45581227245E+02  0.47000000000E+01 0. -1.
        -11    1    6    6    0    0 -0.51813651696E+02  0.35222924863E+02 -0.15282749981E+02  0.64489312176E+02  0.00000000000E+00 0.  1.
         12    1    6    6    0    0 -0.65484455450E+02 -0.46726232560E+02 -0.24158030521E+02  0.83995030528E+02  0.00000000000E+00 0. -1.
         -5    1    3    3    0  503  0.58061451267E+02  0.28096935631E+02  0.10398701840E+03  0.12245799244E+03  0.47000000000E+01 0.  1.
         13    1    4    4    0    0  0.49105444127E+02 -0.47026477326E+02 -0.98271442596E+01  0.68697940121E+02  0.00000000000E+00 0. -1.
        -14    1    4    4    0    0 -0.21554166960E+02  0.10613477086E+02 -0.53364468935E+01  0.24611088449E+02  0.00000000000E+00 0.  1.
<mgrwt>
<rscale>  2 0.19586670E+03</rscale>
<asrwt>0</asrwt>
<pdfrwt beam="1">  1       21 0.37298622E-01 0.19663623E+03</pdfrwt>
<pdfrwt beam="2">  1       21 0.25752545E-01 0.19663623E+03</pdfrwt>
<totfact> 0.99059932E+04</totfact>
</mgrwt>
</event>
<event>
12    1  0.1026879E-001  0.2026453E+03  0.7546771E-02  0.1148657E+00
         21   -1    0    0  503  502  0.00000000000E+00  0.00000000000E+00  0.34681309382E+03  0.34681309382E+03  0.00000000000E+00 0. -1.
         21   -1    0    0  501  503 -0.00000000000E+00 -0.00000000000E+00 -0.39819151399E+03  0.39819151399E+03  0.00000000000E+00 0. -1.
          6    2    1    2  501    0  0.77263251596E+02  0.54786183866E+02 -0.33976210811E+03  0.39560510856E+03  0.17914791604E+03 0.  0.
         24    2    3    3    0    0  0.49044051755E+02 -0.39158157311E+00 -0.31471745163E+03  0.32859590131E+03  0.80763355850E+02 0.  0.
         -6    2    1    2    0  502 -0.77263251596E+02 -0.54786183866E+02  0.28838368795E+03  0.34939949925E+03  0.17304254567E+03 0.  0.
        -24    2    5    5    0    0 -0.41303380575E+02 -0.98216245929E+02  0.15627998935E+03  0.20568881837E+03  0.80821127943E+02 0.  0.
          5    1    3    3  501    0  0.28219199841E+02  0.55177765439E+02 -0.25044656482E+02  0.67009207254E+02  0.47000000000E+01 0. -1.
        -13    1    4    4    0    0 -0.18607716193E+02  0.89968171373E+01 -0.34878782094E+02  0.40542807758E+02  0.00000000000E+00 0.  1.
         14    1    4    4    0    0  0.67651767949E+02 -0.93883987104E+01 -0.27983866953E+03  0.28805309355E+03  0.00000000000E+00 0. -1.
         -5    1    5    5    0  502 -0.35959871021E+02  0.43430062064E+02  0.13210369860E+03  0.14371068088E+03  0.47000000000E+01 0.  1.
         11    1    6    6    0    0 -0.89584318438E+01 -0.23773454470E+01  0.75971698584E+02  0.76534987151E+02  0.00000000000E+00 0. -1.
        -12    1    6    6    0    0 -0.32344948731E+02 -0.95838900482E+02  0.80308290764E+02  0.12915383122E+03  0.00000000000E+00 0.  1.
<mgrwt>
<rscale>  2 0.20128750E+03</rscale>
<asrwt>0</asrwt>
<pdfrwt beam="1">  1       21 0.53355861E-01 0.20264529E+03</pdfrwt>
<pdfrwt beam="2">  1       21 0.61260233E-01 0.20264529E+03</pdfrwt>
<totfact> 0.81816837E+03</totfact>
</mgrwt>
</event>
<event>
12    1  0.1026879E-001  0.2113393E+03  0.7546771E-02  0.1141024E+00
         21   -1    0    0  503  502  0.00000000000E+00  0.00000000000E+00  0.93273955080E+02  0.93273955080E+02  0.00000000000E+00 0.  1.
         21   -1    0    0  501  503 -0.00000000000E+00 -0.00000000000E+00 -0.49466305194E+03  0.49466305194E+03  0.00000000000E+00 0.  1.
          6    2    1    2  501    0 -0.28350126801E+01  0.12265617571E+03 -0.26343449587E+03  0.33773070905E+03  0.17208057265E+03 0.  0.
         24    2    3    3    0    0 -0.19914064642E+02  0.15397382562E+03 -0.22190901167E+03  0.28278578163E+03  0.81361415193E+02 0.  0.
         -6    2    1    2    0  502  0.28350126801E+01 -0.12265617571E+03 -0.13795460100E+03  0.25020629798E+03  0.16887612286E+03 0.  0.
        -24    2    5    5    0    0 -0.39572793070E+02 -0.22893553826E+02 -0.13546662804E+02  0.85129262023E+02  0.70522042095E+02 0.  0.
          5    1    3    3  501    0  0.17079051961E+02 -0.31317649907E+02 -0.41525484198E+02  0.54944927422E+02  0.47000000000E+01 0. -1.
        -13    1    4    4    0    0 -0.50937445214E+02  0.11110448204E+03 -0.16000724040E+03  0.20134832067E+03  0.00000000000E+00 0.  1.
         14    1    4    4    0    0  0.31023380573E+02  0.42869343579E+02 -0.61901771268E+02  0.81437460958E+02  0.00000000000E+00 0. -1.
         -5    1    5    5    0  502  0.42407805750E+02 -0.99762621886E+02 -0.12440793819E+03  0.16507703595E+03  0.47000000000E+01 0.  1.
         11    1    6    6    0    0 -0.56927792253E+02 -0.25058508263E+02 -0.21642757668E+02  0.65856748528E+02  0.00000000000E+00 0. -1.
        -12    1    6    6    0    0  0.17354999184E+02  0.21649544366E+01  0.80960948634E+01  0.19272513495E+02  0.00000000000E+00 0.  1.
<mgrwt>
<rscale>  2 0.21068605E+03</rscale>
<asrwt>0</asrwt>
<pdfrwt beam="1">  1       21 0.14349839E-01 0.21133930E+03</pdfrwt>
<pdfrwt beam="2">  1       21 0.76102008E-01 0.21133930E+03</pdfrwt>
<totfact> 0.64870435E+04</totfact>
</mgrwt>
</event>
<event>
12    1  0.1026879E-001  0.2010516E+03  0.7546771E-02  0.1149340E+00
         21   -1    0    0  501  502  0.00000000000E+00  0.00000000000E+00  0.17043644103E+03  0.17043644103E+03  0.00000000000E+00 0.  1.
         21   -1    0    0  502  503 -0.00000000000E+00 -0.00000000000E+00 -0.26023297405E+03  0.26023297405E+03  0.00000000000E+00 0.  1.
         -6    2    1    2    0  503  0.99729447803E+02  0.19636031924E+01 -0.11289590242E+03  0.23058017037E+03  0.17456205683E+03 0.  0.
        -24    2    3    3    0    0  0.41613401619E+02  0.67184471713E+02 -0.51860797161E+02  0.12390959997E+03  0.80116279549E+02 0.  0.
          6    2    1    2  501    0 -0.99729447803E+02 -0.19636031924E+01  0.23099369405E+02  0.20008924472E+03  0.17190784301E+03 0.  0.
         24    2    5    5    0    0 -0.57099912801E+02  0.47988789352E+02  0.59176148318E+02  0.12501499646E+03  0.81016102499E+02 0.  0.
          5    1    5    5  501    0 -0.42629535001E+02 -0.49952392544E+02 -0.36076778913E+02  0.75074248262E+02  0.47000000000E+01 0. -1.
        -11    1    6    6    0    0 -0.64057177388E+02  0.55379669702E+02  0.23434718587E+02  0.87860206159E+02  0.00000000000E+00 0.  1.
         12    1    6    6    0    0  0.69572645862E+01 -0.73908803497E+01  0.35741429731E+02  0.37154790298E+02  0.00000000000E+00 0. -1.
         -5    1    3    3    0  503  0.58116046184E+02 -0.65220868521E+02 -0.61035105262E+02  0.10667057040E+03  0.47000000000E+01 0.  1.
         11    1    4    4    0    0 -0.63078652799E+01  0.56145673561E+02 -0.48769340529E+02  0.74636280720E+02  0.00000000000E+00 0. -1.
        -12    1    4    4    0    0  0.47921266899E+02  0.11038798152E+02 -0.30914566319E+01  0.49273319250E+02  0.00000000000E+00 0.  1.
<mgrwt>
<rscale>  2 0.20047404E+03</rscale>
<asrwt>0</asrwt>
<pdfrwt beam="1">  1       21 0.26220991E-01 0.20105156E+03</pdfrwt>
<pdfrwt beam="2">  1       21 0.40035842E-01 0.20105156E+03</pdfrwt>
<totfact> 0.82831540E+04</totfact>
</mgrwt>
</event>
<event>
12    1  0.1026879E-001  0.1755834E+03  0.7546771E-02  0.1172311E+00
         21   -1    0    0  501  502  0.00000000000E+00  0.00000000000E+00  0.87031263212E+02  0.87031263212E+02  0.00000000000E+00 0. -1.
         21   -1    0    0  502  503 -0.00000000000E+00 -0.00000000000E+00 -0.35848989508E+03  0.35848989508E+03  0.00000000000E+00 0. -1.
         -6    2    1    2    0  503  0.20117126250E+02  0.16861754909E+02 -0.10821181326E+03  0.20625062939E+03  0.17361021872E+03 0.  0.
        -24    2    3    3    0    0 -0.43040050665E+02  0.49228814561E+02 -0.66900629012E+02  0.12400003978E+03  0.81390377558E+02 0.  0.
          6    2    1    2  501    0 -0.20117126250E+02 -0.16861754909E+02 -0.16324681861E+03  0.23927052891E+03  0.17295041102E+03 0.  0.
         24    2    5    5    0    0 -0.36505709231E+02  0.48912711041E+02 -0.12506162457E+03  0.16132782517E+03  0.81615789675E+02 0.  0.
          5    1    5    5  501    0  0.16388582981E+02 -0.65774465950E+02 -0.38185194037E+02  0.77942703743E+02  0.47000000000E+01 0. -1.
        -11    1    6    6    0    0 -0.14878470988E+02  0.36690828665E+02 -0.64157474521E+01  0.40109196233E+02  0.00000000000E+00 0.  1.
         12    1    6    6    0    0 -0.21627238243E+02  0.12221882376E+02 -0.11864587712E+03  0.12121862893E+03  0.00000000000E+00 0. -1.
         -5    1    3    3    0  503  0.63157176915E+02 -0.32367059652E+02 -0.41311184251E+02  0.82250589607E+02  0.47000000000E+01 0.  1.
         11    1    4    4    0    0  0.97034834760E+01  0.47424305111E+02 -0.47367800793E+02  0.67726884313E+02  0.00000000000E+00 0. -1.
        -12    1    4    4    0    0 -0.52743534141E+02  0.18045094506E+01 -0.19532828219E+02  0.56273155467E+02  0.00000000000E+00 0.  1.
<mgrwt>
<rscale>  2 0.17542007E+03</rscale>
<asrwt>0</asrwt>
<pdfrwt beam="1">  1       21 0.13389425E-01 0.17558339E+03</pdfrwt>
<pdfrwt beam="2">  1       21 0.55152291E-01 0.17558339E+03</pdfrwt>
<totfact> 0.15030279E+05</totfact>
</mgrwt>
</event>
<event>
12    1  0.1026879E-001  0.1886966E+03  0.7546771E-02  0.1160649E+00
         21   -1    0    0  501  502  0.00000000000E+00  0.00000000000E+00  0.13792724769E+03  0.13792724769E+03  0.00000000000E+00 0. -1.
         21   -1    0    0  502  503 -0.00000000000E+00 -0.00000000000E+00 -0.25604534316E+03  0.25604534316E+03  0.00000000000E+00 0. -1.
         -6    2    1    2    0  503  0.53618936180E+02  0.35825526228E+02 -0.83853636049E+02  0.20648935537E+03  0.17733573513E+03 0.  0.
        -24    2    3    3    0    0  0.16017117611E+02 -0.11828960315E+02 -0.11190428989E+03  0.13945372284E+03  0.80797885860E+02 0.  0.
          6    2    1    2  501    0 -0.53618936180E+02 -0.35825526228E+02 -0.34264459419E+02  0.18748323549E+03  0.17267730529E+03 0.  0.
         24    2    5    5    0    0 -0.49144921291E+02 -0.87243492979E+02 -0.73714205341E+01  0.12909531161E+03  0.81145617775E+02 0.  0.
          5    1    5    5  501    0 -0.44740148889E+01  0.51417966752E+02 -0.26893038885E+02  0.58387923876E+02  0.47000000000E+01 0. -1.
        -13    1    6    6    0    0  0.11297386263E+02 -0.12030942947E+02 -0.26027506758E+02  0.30818916798E+02  0.00000000000E+00 0.  1.
         14    1    6    6    0    0 -0.60442307554E+02 -0.75212550033E+02  0.18656086224E+02  0.98276394816E+02  0.00000000000E+00 0. -1.
         -5    1    3    3    0  503  0.37601818569E+02  0.47654486542E+02  0.28050653842E+02  0.67035632527E+02  0.47000000000E+01 0.  1.
         11    1    4    4    0    0  0.89027176102E+01 -0.39806333555E+02 -0.10041526701E+03  0.10838370920E+03  0.00000000000E+00 0. -1.
        -12    1    4    4    0    0  0.71144000009E+01  0.27977373241E+02 -0.11489022886E+02  0.31070013641E+02  0.00000000000E+00 0.  1.
<mgrwt>
<rscale>  2 0.18759425E+03</rscale>
<asrwt>0</asrwt>
<pdfrwt beam="1">  1       21 0.21219577E-01 0.18869664E+03</pdfrwt>
<pdfrwt beam="2">  1       21 0.39391591E-01 0.18869664E+03</pdfrwt>
<totfact> 0.12853547E+05</totfact>
</mgrwt>
</event>
<event>
12    1  0.1026879E-001  0.1802662E+03  0.7546771E-02  0.1168762E+00
         21   -1    0    0  501  502  0.00000000000E+00  0.00000000000E+00  0.41447820102E+03  0.41447820102E+03  0.00000000000E+00 0.  1.
         21   -1    0    0  502  503 -0.00000000000E+00 -0.00000000000E+00 -0.89665370902E+02  0.89665370902E+02  0.00000000000E+00 0.  1.
         -6    2    1    2    0  503  0.19533343423E+02 -0.30280548493E+02  0.25793884386E+03  0.31187285601E+03  0.17156272327E+03 0.  0.
        -24    2    3    3    0    0 -0.68023640110E+01 -0.52738277993E+01  0.26231380973E+03  0.27499283578E+03  0.82087998729E+02 0.  0.
          6    2    1    2  501    0 -0.19533343423E+02  0.30280548493E+02  0.66873986256E+02  0.19227071592E+03  0.17662795656E+03 0.  0.
         24    2    5    5    0    0 -0.57854255716E+02 -0.32605871424E+02  0.65642253247E+02  0.11846826816E+03  0.72907937794E+02 0.  0.
          5    1    5    5  501    0  0.38320912292E+02  0.62886419917E+02  0.12317330085E+01  0.73802447758E+02  0.47000000000E+01 0. -1.
        -13    1    6    6    0    0 -0.42272246235E+01  0.14648978985E+02 -0.68051214681E+01  0.16696457454E+02  0.00000000000E+00 0.  1.
         14    1    6    6    0    0 -0.53627031092E+02 -0.47254850409E+02  0.72447374716E+02  0.10177181070E+03  0.00000000000E+00 0. -1.
         -5    1    3    3    0  503  0.26335707434E+02 -0.25006720694E+02 -0.43749658681E+01  0.36880020231E+02  0.47000000000E+01 0.  1.
         11    1    4    4    0    0 -0.36351119538E+02  0.38600726362E+01  0.59485091267E+02  0.69819625719E+02  0.00000000000E+00 0. -1.
        -12    1    4    4    0    0  0.29548755527E+02 -0.91339004355E+01  0.20282871847E+03  0.20517321006E+03  0.00000000000E+00 0.  1.
<mgrwt>
<rscale>  2 0.17901316E+03</rscale>
<asrwt>0</asrwt>
<pdfrwt beam="1">  1       21 0.63765876E-01 0.18026619E+03</pdfrwt>
<pdfrwt beam="2">  1       21 0.13794673E-01 0.18026619E+03</pdfrwt>
<totfact> 0.10425739E+05</totfact>
</mgrwt>
</event>
<event>
12    1  0.1026879E-001  0.2476966E+03  0.7546771E-02  0.1116895E+00
         21   -1    0    0  501  502  0.00000000000E+00  0.00000000000E+00  0.36442527768E+03  0.36442527768E+03  0.00000000000E+00 0.  1.
         21   -1    0    0  502  503 -0.00000000000E+00 -0.00000000000E+00 -0.18257423721E+03  0.18257423721E+03  0.00000000000E+00 0.  1.
         -6    2    1    2    0  503 -0.17598410325E+03  0.25868104638E+02  0.18559420251E+03  0.29927459270E+03  0.15323351590E+03 0.  0.
        -24    2    3    3    0    0 -0.86722205862E+02 -0.38274840838E+02  0.99278900462E+02  0.15943745476E+03  0.81106704240E+02 0.  0.
          6    2    1    2  501    0  0.17598410325E+03 -0.25868104638E+02 -0.37431620429E+01  0.24772492219E+03  0.17237767366E+03 0.  0.
         24    2    5    5    0    0  0.66440909370E+02 -0.46216402168E+02 -0.51615193044E+02  0.12636765669E+03  0.82184586368E+02 0.  0.
          5    1    5    5  501    0  0.10954319388E+03  0.20348297531E+02  0.47872031001E+02  0.12135726550E+03  0.47000000000E+01 0. -1.
        -11    1    6    6    0    0 -0.43632026658E+01  0.15532608012E+02 -0.23121579772E+02  0.28194093359E+02  0.00000000000E+00 0.  1.
         12    1    6    6    0    0  0.70804112035E+02 -0.61749010181E+02 -0.28493613272E+02  0.98173563329E+02  0.00000000000E+00 0. -1.
         -5    1    3    3    0  503 -0.89261897391E+02  0.64142945476E+02  0.86315302046E+02  0.13983713794E+03  0.47000000000E+01 0.  1.
         11    1    4    4    0    0 -0.69638870456E+02 -0.43929570158E+02  0.29637340391E+02  0.87508578769E+02  0.00000000000E+00 0. -1.
        -12    1    4    4    0    0 -0.17083335405E+02  0.56547293199E+01  0.69641560071E+02  0.71928875991E+02  0.00000000000E+00 0.  1.
<mgrwt>
<rscale>  2 0.24440147E+03</rscale>
<asrwt>0</asrwt>
<pdfrwt beam="1">  1       21 0.56065427E-01 0.24769664E+03</pdfrwt>
<pdfrwt beam="2">  1       21 0.28088344E-01 0.24769664E+03</pdfrwt>
<totfact> 0.35309639E+04</totfact>
</mgrwt>
</event>
<event>
12    1  0.1026879E-001  0.1937704E+03  0.7546771E-02  0.1155115E+00
         21   -1    0    0  503  502  0.00000000000E+00  0.00000000000E+00  0.51091133740E+03  0.51091133740E+03  0.00000000000E+00 0.  1.
         21   -1    0    0  501  503 -0.00000000000E+00 -0.00000000000E+00 -0.10063491820E+03  0.10063491820E+03  0.00000000000E+00 0.  1.
          6    2    1    2  501    0  0.14147433976E+01 -0.86216321111E+02  0.46296626737E+02  0.19922440054E+03  0.17352731370E+03 0.  0.
         24    2    3    3    0    0  0.36441233097E+02 -0.85482597170E+02  0.83173502253E+02  0.14814223849E+03  0.79956572341E+02 0.  0.
         -6    2    1    2    0  502 -0.14147433976E+01  0.86216321111E+02  0.36397979246E+03  0.41232185506E+03  0.17347267023E+03 0.  0.
        -24    2    5    5    0    0 -0.76264338449E+01  0.72803575579E+01  0.65606485965E+02  0.10358541168E+03  0.79464208382E+02 0.  0.
          5    1    3    3  501    0 -0.35026489699E+02 -0.73372394113E+00 -0.36876875516E+02  0.51082162046E+02  0.47000000000E+01 0. -1.
        -13    1    4    4    0    0  0.25373883335E+02 -0.35340004195E+01  0.55184769204E+02  0.60841448590E+02  0.00000000000E+00 0.  1.
         14    1    4    4    0    0  0.11067349761E+02 -0.81948596751E+02  0.27988733049E+02  0.87300789904E+02  0.00000000000E+00 0. -1.
         -5    1    5    5    0  502  0.62116904473E+01  0.78935963554E+02  0.29837330649E+03  0.30873644337E+03  0.47000000000E+01 0.  1.
         11    1    6    6    0    0  0.11095804550E+02  0.30234372626E+02  0.66567132288E+02  0.73948747573E+02  0.00000000000E+00 0. -1.
        -12    1    6    6    0    0 -0.18722238395E+02 -0.22954015068E+02 -0.96064632230E+00  0.29636664111E+02  0.00000000000E+00 0.  1.
<mgrwt>
<rscale>  2 0.19375821E+03</rscale>
<asrwt>0</asrwt>
<pdfrwt beam="1">  1       21 0.78601743E-01 0.19377044E+03</pdfrwt>
<pdfrwt beam="2">  1       21 0.15482295E-01 0.19377044E+03</pdfrwt>
<totfact> 0.52969113E+04</totfact>
</mgrwt>
</event>
<event>
12    1  0.1026879E-001  0.1896850E+03  0.7546771E-02  0.1158986E+00
         21   -1    0    0  503  502  0.00000000000E+00  0.00000000000E+00  0.93408785363E+02  0.93408785363E+02  0.00000000000E+00 0. -1.
         21   -1    0    0  501  503 -0.00000000000E+00 -0.00000000000E+00 -0.45862715537E+03  0.45862715537E+03  0.00000000000E+00 0. -1.
          6    2    1    2  501    0 -0.49128879057E+02  0.58302423747E+02 -0.29508915089E+03  0.35079625052E+03  0.17368817758E+03 0.  0.
         24    2    3    3    0    0  0.33215206422E+02  0.14187101445E+02 -0.19437321644E+03  0.21334626133E+03  0.80194489646E+02 0.  0.
         -6    2    1    2    0  502  0.49128879057E+02 -0.58302423747E+02 -0.70129219116E+02  0.20123969022E+03  0.17252966751E+03 0.  0.
        -24    2    5    5    0    0  0.10037238414E+02 -0.68691562168E+02  0.12953453264E+02  0.10871449897E+03  0.82654542930E+02 0.  0.
          5    1    3    3  501    0 -0.82344085479E+02  0.44115322302E+02 -0.10071593446E+03  0.13744998919E+03  0.47000000000E+01 0. -1.
        -13    1    4    4    0    0 -0.15945382872E+02 -0.17818216851E+02 -0.27388619875E+02  0.36357675741E+02  0.00000000000E+00 0.  1.
         14    1    4    4    0    0  0.49160589293E+02  0.32005318296E+02 -0.16698459656E+03  0.17698858559E+03  0.00000000000E+00 0. -1.
         -5    1    5    5    0  502  0.39091640643E+02  0.10389138421E+02 -0.83082672380E+02  0.92525191246E+02  0.47000000000E+01 0.  1.
         11    1    6    6    0    0  0.14406253032E+02 -0.54481065415E+02  0.45827314502E+02  0.72635179972E+02  0.00000000000E+00 0. -1.
        -12    1    6    6    0    0 -0.43690146182E+01 -0.14210496753E+02 -0.32873861238E+02  0.36079318999E+02  0.00000000000E+00 0.  1.
<mgrwt>
<rscale>  2 0.18941939E+03</rscale>
<asrwt>0</asrwt>
<pdfrwt beam="1">  1       21 0.14370583E-01 0.18968501E+03</pdfrwt>
<pdfrwt beam="2">  1       21 0.70558023E-01 0.18968501E+03</pdfrwt>
<totfact> 0.77310246E+04</totfact>
</mgrwt>
</event>
<event>
12    1  0.1026879E-001  0.2467276E+03  0.7546771E-02  0.1115807E+00
         21   -1    0    0  503  502  0.00000000000E+00  0.00000000000E+00  0.52549959258E+03  0.52549959258E+03  0.00000000000E+00 0. -1.
         21   -1    0    0  501  503 -0.00000000000E+00 -0.00000000000E+00 -0.11656068736E+03  0.11656068736E+03  0.00000000000E+00 0.  1.
          6    2    1    2  501    0 -0.10207739126E+03 -0.13906932985E+03  0.16215114009E+03  0.29309222603E+03  0.17277149190E+03 0.  0.
         24    2    3    3    0    0 -0.35174024331E+02 -0.93172697328E+02  0.16976619953E+03  0.21146722671E+03  0.77326980778E+02 0.  0.
         -6    2    1    2    0  502  0.10207739126E+03  0.13906932985E+03  0.24678776513E+03  0.34896805391E+03  0.17639282672E+03 0.  0.
        -24    2    5    5    0    0  0.12557180104E+03  0.87384848793E+02  0.11564972989E+03  0.20599061807E+03  0.75185674778E+02 0.  0.
          5    1    3    3  501    0 -0.66903366925E+02 -0.45896632524E+02 -0.76150594357E+01  0.81624999315E+02  0.47000000000E+01 0. -1.
        -13    1    4    4    0    0 -0.47423881359E+02 -0.68705961259E+02  0.72973182999E+02  0.11088110332E+03  0.00000000000E+00 0.  1.
         14    1    4    4    0    0  0.12249857028E+02 -0.24466736069E+02  0.96793016529E+02  0.10058612340E+03  0.00000000000E+00 0. -1.
         -5    1    5    5    0  502 -0.23494409786E+02  0.51684481059E+02  0.13113803524E+03  0.14297743584E+03  0.47000000000E+01 0.  1.
         13    1    6    6    0    0  0.12805069436E+03  0.57421162174E+02  0.93134636418E+02  0.16842871101E+03  0.00000000000E+00 0. -1.
        -14    1    6    6    0    0 -0.24788933135E+01  0.29963686620E+02  0.22515093475E+02  0.37561907062E+02  0.00000000000E+00 0.  1.
<mgrwt>
<rscale>  2 0.24608108E+03</rscale>
<asrwt>0</asrwt>
<pdfrwt beam="1">  1       21 0.80846090E-01 0.24672759E+03</pdfrwt>
<pdfrwt beam="2">  1       21 0.17932414E-01 0.24672759E+03</pdfrwt>
<totfact> 0.36974310E+04</totfact>
</mgrwt>
</event>
<event>
12    1  0.1026879E-001  0.1899995E+03  0.7546771E-02  0.1158844E+00
         21   -1    0    0  501  502  0.00000000000E+00  0.00000000000E+00  0.22204781435E+03  0.22204781435E+03  0.00000000000E+00 0. -1.
         21   -1    0    0  502  503 -0.00000000000E+00 -0.00000000000E+00 -0.38004194780E+03  0.38004194780E+03  0.00000000000E+00 0.  1.
         -6    2    1    2    0  503 -0.27209973679E+02  0.75188568127E+02 -0.30762386042E+03  0.36156916958E+03  0.17235463860E+03 0.  0.
        -24    2    3    3    0    0 -0.12497003295E+02  0.15203982023E+02 -0.28293914009E+03  0.29489048119E+03  0.80737245068E+02 0.  0.
          6    2    1    2  501    0  0.27209973679E+02 -0.75188568127E+02  0.14962972697E+03  0.24052059257E+03  0.17049163268E+03 0.  0.
         24    2    5    5    0    0  0.11461035781E+02 -0.69473955270E+02  0.22095253266E+02  0.11180455694E+03  0.83988528586E+02 0.  0.
          5    1    5    5  501    0  0.15748937898E+02 -0.57146128571E+01  0.12753447370E+03  0.12871603563E+03  0.47000000000E+01 0. -1.
        -11    1    6    6    0    0 -0.30948022668E+02 -0.20609449497E+02 -0.11474816397E+02  0.38912734766E+02  0.00000000000E+00 0.  1.
         12    1    6    6    0    0  0.42409058449E+02 -0.48864505773E+02  0.33570069662E+02  0.72891822176E+02  0.00000000000E+00 0. -1.
         -5    1    3    3    0  503 -0.14712970384E+02  0.59984586104E+02 -0.24684720327E+02  0.66678688388E+02  0.47000000000E+01 0.  1.
         13    1    4    4    0    0  0.11226056598E+02 -0.13461400189E+02 -0.11615680329E+02  0.21027545537E+02  0.00000000000E+00 0. -1.
        -14    1    4    4    0    0 -0.23723059893E+02  0.28665382212E+02 -0.27132345976E+03  0.27386293565E+03  0.00000000000E+00 0.  1.
<mgrwt>
<rscale>  2 0.18957604E+03</rscale>
<asrwt>0</asrwt>
<pdfrwt beam="1">  1       21 0.34161202E-01 0.18999954E+03</pdfrwt>
<pdfrwt beam="2">  1       21 0.58467992E-01 0.18999954E+03</pdfrwt>
<totfact> 0.22649789E+04</totfact>
</mgrwt>
</event>
<event>
12    1  0.1026879E-001  0.1801839E+03  0.7546771E-02  0.1168036E+00
         21   -1    0    0  501  502  0.00000000000E+00  0.00000000000E+00  0.13817961921E+03  0.13817961921E+03  0.00000000000E+00 0. -1.
         21   -1    0    0  502  503 -0.00000000000E+00 -0.00000000000E+00 -0.33099322435E+03  0.33099322435E+03  0.00000000000E+00 0. -1.
         -6    2    1    2    0  503  0.30912267295E+02  0.29417074215E+02 -0.22452470722E+03  0.28788466228E+03  0.17505799639E+03 0.  0.
        -24    2    3    3    0    0 -0.23344752684E+02  0.46912033147E+02 -0.20813727395E+03  0.22838226086E+03  0.78048804854E+02 0.  0.
          6    2    1    2  501    0 -0.30912267295E+02 -0.29417074215E+02  0.31711102073E+02  0.18128818128E+03  0.17331727598E+03 0.  0.
         24    2    5    5    0    0 -0.65528907506E+02  0.11182057690E+02 -0.21909340205E+02  0.10550003497E+03  0.78937709985E+02 0.  0.
          5    1    5    5  501    0  0.34616640210E+02 -0.40599131905E+02  0.53620442277E+02  0.75788146309E+02  0.47000000000E+01 0. -1.
        -11    1    6    6    0    0 -0.65474390656E+02  0.27696754340E+02  0.77908005232E+01  0.71517149032E+02  0.00000000000E+00 0.  1.
         12    1    6    6    0    0 -0.54516849284E-01 -0.16514696650E+02 -0.29700140728E+02  0.33982885940E+02  0.00000000000E+00 0. -1.
         -5    1    3    3    0  503  0.54257019979E+02 -0.17494958933E+02 -0.16387433274E+02  0.59502401417E+02  0.47000000000E+01 0.  1.
         13    1    4    4    0    0  0.84310504651E+01  0.46337030349E+02 -0.17958808808E+03  0.18566120859E+03  0.00000000000E+00 0. -1.
        -14    1    4    4    0    0 -0.31775803149E+02  0.57500279814E+00 -0.28549185867E+02  0.42721052277E+02  0.00000000000E+00 0.  1.
<mgrwt>
<rscale>  2 0.17975971E+03</rscale>
<asrwt>0</asrwt>
<pdfrwt beam="1">  1       21 0.21258403E-01 0.18018389E+03</pdfrwt>
<pdfrwt beam="2">  1       21 0.50922033E-01 0.18018389E+03</pdfrwt>
<totfact> 0.75911112E+04</totfact>
</mgrwt>
</event>
<event>
12    1  0.1026879E-001  0.2003812E+03  0.7546771E-02  0.1149458E+00
         21   -1    0    0  501  502  0.00000000000E+00  0.00000000000E+00  0.18946074796E+03  0.18946074796E+03  0.00000000000E+00 0.  1.
         21   -1    0    0  502  503 -0.00000000000E+00 -0.00000000000E+00 -0.24872650257E+03  0.24872650257E+03  0.00000000000E+00 0.  1.
         -6    2    1    2    0  503 -0.33517777302E+02  0.92499197545E+02 -0.11411818478E+03  0.23043400636E+03  0.17434829580E+03 0.  0.
        -24    2    3    3    0    0 -0.39789684928E+02  0.20155365772E+01 -0.47845369570E+01  0.88298274494E+02  0.78653747974E+02 0.  0.
          6    2    1    2  501    0  0.33517777302E+02 -0.92499197545E+02  0.54852430163E+02  0.20775324417E+03  0.17456539871E+03 0.  0.
         24    2    5    5    0    0  0.51692115071E+02 -0.11762086816E+03  0.76015720543E+02  0.16991966454E+03  0.81163780339E+02 0.  0.
          5    1    5    5  501    0 -0.18174337769E+02  0.25121670616E+02 -0.21163290380E+02  0.37833579630E+02  0.47000000000E+01 0. -1.
        -13    1    6    6    0    0  0.14035000390E+02  0.10381409641E+02  0.26630637717E+01  0.17659184883E+02  0.00000000000E+00 0.  1.
         14    1    6    6    0    0  0.37657114682E+02 -0.12800227780E+03  0.73352656772E+02  0.15226047965E+03  0.00000000000E+00 0. -1.
         -5    1    3    3    0  503  0.62719076254E+01  0.90483660968E+02 -0.10933364782E+03  0.14213573187E+03  0.47000000000E+01 0.  1.
         13    1    4    4    0    0 -0.55707456268E+02  0.23843359141E+02  0.12861352751E+01  0.60609245193E+02  0.00000000000E+00 0. -1.
        -14    1    4    4    0    0  0.15917771340E+02 -0.21827822563E+02 -0.60706722321E+01  0.27689029301E+02  0.00000000000E+00 0.  1.
<mgrwt>
<rscale>  2 0.20033390E+03</rscale>
<asrwt>0</asrwt>
<pdfrwt beam="1">  1       21 0.29147807E-01 0.20038119E+03</pdfrwt>
<pdfrwt beam="2">  1       21 0.38265616E-01 0.20038119E+03</pdfrwt>
<totfact> 0.73976802E+04</totfact>
</mgrwt>
</event>
<event>
12    1  0.1026879E-001  0.2009062E+03  0.7546771E-02  0.1148987E+00
         21   -1    0    0  501  502  0.00000000000E+00  0.00000000000E+00  0.41990911122E+02  0.41990911122E+02  0.00000000000E+00 0.  1.
         21   -1    0    0  502  503 -0.00000000000E+00 -0.00000000000E+00 -0.96849222803E+03  0.96849222803E+03  0.00000000000E+00 0. -1.
         -6    2    1    2    0  503  0.97047320936E+02  0.25261350251E+02 -0.50775553217E+03  0.54605767481E+03  0.17408901589E+03 0.  0.
        -24    2    3    3    0    0  0.61364045561E+02  0.63315769523E+02 -0.46014452285E+03  0.47527396781E+03  0.79861942233E+02 0.  0.
          6    2    1    2  501    0 -0.97047320936E+02 -0.25261350251E+02 -0.41874578474E+03  0.46442546434E+03  0.17403063344E+03 0.  0.
         24    2    5    5    0    0 -0.13202478243E+03 -0.43507745202E+02 -0.34715658235E+03  0.38255081845E+03  0.80647188172E+02 0.  0.
          5    1    5    5  501    0  0.34977461494E+02  0.18246394950E+02 -0.71589202390E+02  0.81874645893E+02  0.47000000000E+01 0. -1.
        -11    1    6    6    0    0 -0.19589039820E+02 -0.21304190995E+02 -0.18167885733E+02  0.34171202892E+02  0.00000000000E+00 0.  1.
         12    1    6    6    0    0 -0.11243574261E+03 -0.22203554207E+02 -0.32898869662E+03  0.34837961556E+03  0.00000000000E+00 0. -1.
         -5    1    3    3    0  503  0.35683275375E+02 -0.38054419272E+02 -0.47611009324E+02  0.70783706999E+02  0.47000000000E+01 0.  1.
         11    1    4    4    0    0  0.56590570363E+00  0.53698348779E+02 -0.15661676324E+03  0.16556764007E+03  0.00000000000E+00 0. -1.
        -12    1    4    4    0    0  0.60798139857E+02  0.96174207444E+01 -0.30352775961E+03  0.30970632774E+03  0.00000000000E+00 0.  1.
<mgrwt>
<rscale>  2 0.20089356E+03</rscale>
<asrwt>0</asrwt>
<pdfrwt beam="1">  1       21 0.64601407E-02 0.20090621E+03</pdfrwt>
<pdfrwt beam="2">  1       21 0.14899879E+00 0.20090621E+03</pdfrwt>
<totfact> 0.52597722E+04</totfact>
</mgrwt>
</event>
<event>
12    1  0.1026879E-001  0.2154507E+03  0.7546771E-02  0.1137476E+00
         21   -1    0    0  501  502  0.00000000000E+00  0.00000000000E+00  0.60923869213E+03  0.60923869213E+03  0.00000000000E+00 0.  1.
         21   -1    0    0  502  503 -0.00000000000E+00 -0.00000000000E+00 -0.16120298152E+03  0.16120298152E+03  0.00000000000E+00 0.  1.
         -6    2    1    2    0  503 -0.58595674254E+02  0.11328231874E+03 -0.55998273731E+02  0.22260907054E+03  0.17364519817E+03 0.  0.
        -24    2    3    3    0    0 -0.67000705434E+02  0.66998910511E+02 -0.98814594184E+02  0.15882721008E+03  0.80522109393E+02 0.  0.
          6    2    1    2  501    0  0.58595674254E+02 -0.11328231874E+03  0.50403398434E+03  0.54783260310E+03  0.17263825436E+03 0.  0.
         24    2    5    5    0    0  0.77709981584E+02 -0.14103545952E+03  0.40980290973E+03  0.44764688061E+03  0.80743190552E+02 0.  0.
          5    1    5    5  501    0 -0.19114307331E+02  0.27753140780E+02  0.94231074619E+02  0.10018572249E+03  0.47000000000E+01 0. -1.
        -11    1    6    6    0    0  0.64039227981E+02 -0.58020844557E+02  0.27940813853E+03  0.29246597922E+03  0.00000000000E+00 0.  1.
         12    1    6    6    0    0  0.13670753604E+02 -0.83014614963E+02  0.13039477119E+03  0.15518090139E+03  0.00000000000E+00 0. -1.
         -5    1    3    3    0  503  0.84050311801E+01  0.46283408229E+02  0.42816320453E+02  0.63781860459E+02  0.47000000000E+01 0.  1.
         11    1    4    4    0    0  0.22265780942E+00  0.76176325128E+01  0.13251458564E+02  0.15286564548E+02  0.00000000000E+00 0. -1.
        -12    1    4    4    0    0 -0.67223363243E+02  0.59381277998E+02 -0.11206605275E+03  0.14354064554E+03  0.00000000000E+00 0.  1.
<mgrwt>
<rscale>  2 0.21524770E+03</rscale>
<asrwt>0</asrwt>
<pdfrwt beam="1">  1       21 0.93729029E-01 0.21545067E+03</pdfrwt>
<pdfrwt beam="2">  1       21 0.24800459E-01 0.21545067E+03</pdfrwt>
<totfact> 0.14489720E+04</totfact>
</mgrwt>
</event>
<event>
12    1  0.1026879E-001  0.2095786E+03  0.7546771E-02  0.1141910E+00
         21   -1    0    0  503  502  0.00000000000E+00  0.00000000000E+00  0.35379094405E+03  0.35379094405E+03  0.00000000000E+00 0.  1.
         21   -1    0    0  501  503 -0.00000000000E+00 -0.00000000000E+00 -0.18854587756E+03  0.18854587756E+03  0.00000000000E+00 0.  1.
          6    2    1    2  501    0 -0.11750219081E+03 -0.20218054230E+02 -0.75892429222E+02  0.22285214010E+03  0.17230171495E+03 0.  0.
         24    2    3    3    0    0 -0.10940863647E+03 -0.59615483921E+00 -0.11516029674E+03  0.17796806746E+03  0.80250445217E+02 0.  0.
         -6    2    1    2    0  502  0.11750219081E+03  0.20218054230E+02  0.24113749571E+03  0.31948468150E+03  0.17235903027E+03 0.  0.
        -24    2    5    5    0    0  0.26038028631E+01  0.13669123963E+02  0.15802249193E+03  0.17744693337E+03  0.79515290780E+02 0.  0.
          5    1    3    3  501    0 -0.80935543446E+01 -0.19621899391E+02  0.39267867516E+02  0.44884072641E+02  0.47000000000E+01 0. -1.
        -13    1    4    4    0    0 -0.76930964144E+02 -0.24786890627E+02 -0.11092785984E+03  0.13725069501E+03  0.00000000000E+00 0.  1.
         14    1    4    4    0    0 -0.32477672322E+02  0.24190735788E+02 -0.42324368950E+01  0.40717372453E+02  0.00000000000E+00 0. -1.
         -5    1    5    5    0  502  0.11489838795E+03  0.65489302664E+01  0.83115003781E+02  0.14203774813E+03  0.47000000000E+01 0.  1.
         13    1    6    6    0    0 -0.15722468411E+02  0.38976862863E+02  0.51698917325E+02  0.66627095870E+02  0.00000000000E+00 0. -1.
        -14    1    6    6    0    0  0.18326271274E+02 -0.25307738899E+02  0.10632357460E+03  0.11081983750E+03  0.00000000000E+00 0.  1.
<mgrwt>
<rscale>  2 0.20956677E+03</rscale>
<asrwt>0</asrwt>
<pdfrwt beam="1">  1       21 0.54429376E-01 0.20957855E+03</pdfrwt>
<pdfrwt beam="2">  1       21 0.29007058E-01 0.20957855E+03</pdfrwt>
<totfact> 0.35958074E+04</totfact>
</mgrwt>
</event>
<event>
12    1  0.1026879E-001  0.1966491E+03  0.7546771E-02  0.1153342E+00
         21   -1    0    0  503  502  0.00000000000E+00  0.00000000000E+00  0.20225821678E+03  0.20225821678E+03  0.00000000000E+00 0. -1.
         21   -1    0    0  501  503 -0.00000000000E+00 -0.00000000000E+00 -0.29719215462E+03  0.29719215462E+03  0.00000000000E+00 0. -1.
          6    2    1    2  501    0  0.52291098449E+02 -0.73072187195E+02 -0.19917631004E+03  0.27989652908E+03  0.17491987021E+03 0.  0.
         24    2    3    3    0    0  0.13670221013E+02 -0.11394951686E+03 -0.13509889568E+03  0.19451190936E+03  0.80073740588E+02 0.  0.
         -6    2    1    2    0  502 -0.52291098449E+02  0.73072187195E+02  0.10424237220E+03  0.21955384232E+03  0.17106581773E+03 0.  0.
        -24    2    5    5    0    0 -0.38259064236E+02  0.43920057198E+02  0.13993317090E+03  0.17115272891E+03  0.79493627884E+02 0.  0.
          5    1    3    3  501    0  0.38620877435E+02  0.40877329668E+02 -0.64077414360E+02  0.85384619726E+02  0.47000000000E+01 0. -1.
        -11    1    4    4    0    0  0.35923871644E+01 -0.14411153997E+02  0.10259273407E+02  0.18051019249E+02  0.00000000000E+00 0.  1.
         12    1    4    4    0    0  0.10077833849E+02 -0.99538362866E+02 -0.14535816909E+03  0.17646089011E+03  0.00000000000E+00 0. -1.
         -5    1    5    5    0  502 -0.14032034213E+02  0.29152129997E+02 -0.35690798701E+02  0.48401113411E+02  0.47000000000E+01 0.  1.
         13    1    6    6    0    0 -0.54982293980E+02  0.55544641609E+02  0.10934971656E+03  0.13440840886E+03  0.00000000000E+00 0. -1.
        -14    1    6    6    0    0  0.16723229744E+02 -0.11624584412E+02  0.30583454344E+02  0.36744320043E+02  0.00000000000E+00 0.  1.
<mgrwt>
<rscale>  2 0.19578841E+03</rscale>
<asrwt>0</asrwt>
<pdfrwt beam="1">  1       21 0.31116649E-01 0.19664909E+03</pdfrwt>
<pdfrwt beam="2">  1       21 0.45721870E-01 0.19664909E+03</pdfrwt>
<totfact> 0.45414182E+04</totfact>
</mgrwt>
</event>
<event>
12    1  0.1026879E-001  0.1901669E+03  0.7546771E-02  0.1158342E+00
         21   -1    0    0  503  502  0.00000000000E+00  0.00000000000E+00  0.88593963724E+02  0.88593963724E+02  0.00000000000E+00 0. -1.
         21   -1    0    0  501  503 -0.00000000000E+00 -0.00000000000E+00 -0.46559066425E+03  0.46559066425E+03  0.00000000000E+00 0. -1.
          6    2    1    2  501    0 -0.79120236436E+02 -0.29354253865E+01 -0.90895991999E+02  0.21064853504E+03  0.17274864809E+03 0.  0.
         24    2    3    3    0    0 -0.28916737850E+01 -0.47035098373E+02 -0.31652593987E+02  0.10440614646E+03  0.87624736560E+02 0.  0.
         -6    2    1    2    0  502  0.79120236436E+02  0.29354253865E+01 -0.28610070853E+03  0.34353609294E+03  0.17290113706E+03 0.  0.
        -24    2    5    5    0    0  0.95694957881E+02 -0.59204805270E+01 -0.29631198515E+03  0.32163840742E+03  0.80361032429E+02 0.  0.
          5    1    3    3  501    0 -0.76228562651E+02  0.44099672987E+02 -0.59243398012E+02  0.10624238857E+03  0.47000000000E+01 0. -1.
        -13    1    4    4    0    0  0.30048097065E+02 -0.43641390751E+01  0.14309055571E+02  0.33566097754E+02  0.00000000000E+00 0.  1.
         14    1    4    4    0    0 -0.32939770850E+02 -0.42670959298E+02 -0.45961649558E+02  0.70840048710E+02  0.00000000000E+00 0. -1.
         -5    1    5    5    0  502 -0.16574721445E+02  0.88559059135E+01  0.10211276624E+02  0.21897685513E+02  0.47000000000E+01 0.  1.
         11    1    6    6    0    0  0.51876246133E+02 -0.27419246552E+02 -0.76167147559E+02  0.96147773566E+02  0.00000000000E+00 0. -1.
        -12    1    6    6    0    0  0.43818711748E+02  0.21498766025E+02 -0.22014483759E+03  0.22549063386E+03  0.00000000000E+00 0.  1.
<mgrwt>
<rscale>  2 0.19013218E+03</rscale>
<asrwt>0</asrwt>
<pdfrwt beam="1">  1       21 0.13629841E-01 0.19016685E+03</pdfrwt>
<pdfrwt beam="2">  1       21 0.71629332E-01 0.19016685E+03</pdfrwt>
<totfact> 0.82280201E+04</totfact>
</mgrwt>
</event>
<event>
12    1  0.1026879E-001  0.2206384E+03  0.7546771E-02  0.1134968E+00
         21   -1    0    0  501  502  0.00000000000E+00  0.00000000000E+00  0.85435576795E+03  0.85435576795E+03  0.00000000000E+00 0. -1.
         21   -1    0    0  502  503 -0.00000000000E+00 -0.00000000000E+00 -0.11845945487E+03  0.11845945487E+03  0.00000000000E+00 0. -1.
         -6    2    1    2    0  503 -0.58587910420E+02 -0.12412267233E+03  0.14852895153E+02  0.22113776007E+03  0.17274929638E+03 0.  0.
        -24    2    3    3    0    0  0.96145343454E+01 -0.34510842081E+02  0.51781864831E+02  0.10253045678E+03  0.80917832087E+02 0.  0.
          6    2    1    2  501    0  0.58587910420E+02  0.12412267233E+03  0.72104341793E+03  0.75167746274E+03  0.16210001982E+03 0.  0.
         24    2    5    5    0    0  0.61539952190E+02  0.14797469332E+03  0.68366426406E+03  0.70699050044E+03  0.82189209667E+02 0.  0.
          5    1    5    5  501    0 -0.29520417696E+01 -0.23852020988E+02  0.37379153869E+02  0.44686962302E+02  0.47000000000E+01 0. -1.
        -11    1    6    6    0    0  0.17569511139E+02  0.31052557719E+02  0.51808867947E+02  0.62905547136E+02  0.00000000000E+00 0.  1.
         12    1    6    6    0    0  0.43970441051E+02  0.11692213560E+03  0.63185539611E+03  0.64408495330E+03  0.00000000000E+00 0. -1.
         -5    1    3    3    0  503 -0.68202444766E+02 -0.89611830251E+02 -0.36928969678E+02  0.11860730329E+03  0.47000000000E+01 0.  1.
         13    1    4    4    0    0  0.12624626319E+02 -0.40323633096E+02  0.70781833878E+02  0.82434486612E+02  0.00000000000E+00 0. -1.
        -14    1    4    4    0    0 -0.30100919740E+01  0.58127910150E+01 -0.18999969047E+02  0.20095970165E+02  0.00000000000E+00 0.  1.
<mgrwt>
<rscale>  2 0.21855030E+03</rscale>
<asrwt>0</asrwt>
<pdfrwt beam="1">  1       21 0.13143934E+00 0.22063839E+03</pdfrwt>
<pdfrwt beam="2">  1       21 0.18224532E-01 0.22063839E+03</pdfrwt>
<totfact> 0.11313384E+04</totfact>
</mgrwt>
</event>
<event>
12    1  0.1026879E-001  0.2409535E+03  0.7546771E-02  0.1121097E+00
         21   -1    0    0  503  502  0.00000000000E+00  0.00000000000E+00  0.31791274648E+02  0.31791274648E+02  0.00000000000E+00 0. -1.
         21   -1    0    0  501  503 -0.00000000000E+00 -0.00000000000E+00 -0.31235354509E+04  0.31235354509E+04  0.00000000000E+00 0.  1.
          6    2    1    2  501    0 -0.89187564559E+02  0.11459204125E+03 -0.25744884815E+04  0.25847024712E+04  0.17779247841E+03 0.  0.
         24    2    3    3    0    0 -0.19646595383E+02 -0.97299425840E-01 -0.64712479512E+03  0.65267181383E+03  0.82607493136E+02 0.  0.
         -6    2    1    2    0  502  0.89187564559E+02 -0.11459204125E+03 -0.51725569474E+03  0.57062425439E+03  0.19228319835E+03 0.  0.
        -24    2    5    5    0    0  0.11304141095E+03 -0.76977376326E+02 -0.24522668095E+03  0.29493286288E+03  0.90251822732E+02 0.  0.
          5    1    3    3  501    0 -0.69540969176E+02  0.11468934067E+03 -0.19273636864E+04  0.19320306574E+04  0.47000000000E+01 0. -1.
        -11    1    4    4    0    0 -0.40689545792E+02  0.11455774768E+02 -0.57710766536E+03  0.57865372316E+03  0.00000000000E+00 0.  1.
         12    1    4    4    0    0  0.21042950409E+02 -0.11553074194E+02 -0.70017129768E+02  0.74018090668E+02  0.00000000000E+00 0. -1.
         -5    1    5    5    0  502 -0.23853846389E+02 -0.37614664922E+02 -0.27202901380E+03  0.27569139151E+03  0.47000000000E+01 0.  1.
         11    1    6    6    0    0  0.85123175670E+02 -0.90603162376E+02 -0.22727360919E+03  0.25905246863E+03  0.00000000000E+00 0. -1.
        -12    1    6    6    0    0  0.27918235278E+02  0.13625786050E+02 -0.17953071758E+02  0.35880394257E+02  0.00000000000E+00 0.  1.
<mgrwt>
<rscale>  2 0.23805212E+03</rscale>
<asrwt>0</asrwt>
<pdfrwt beam="1">  1       21 0.48909631E-02 0.24095349E+03</pdfrwt>
<pdfrwt beam="2">  1       21 0.48054414E+00 0.24095349E+03</pdfrwt>
<totfact> 0.67283107E+02</totfact>
</mgrwt>
</event>
<event>
12    1  0.1026879E-001  0.3357588E+03  0.7546771E-02  0.1068745E+00
         21   -1    0    0  503  502  0.00000000000E+00  0.00000000000E+00  0.12742197375E+03  0.12742197375E+03  0.00000000000E+00 0. -1.
         21   -1    0    0  501  503 -0.00000000000E+00 -0.00000000000E+00 -0.16661683883E+04  0.16661683883E+04  0.00000000000E+00 0.  1.
          6    2    1    2  501    0  0.11385308788E+03  0.26354415626E+03 -0.13854769113E+04  0.14255806642E+04  0.17411464725E+03 0.  0.
         24    2    3    3    0    0  0.14543238662E+03  0.22741832338E+03 -0.12599653772E+04  0.12911278357E+04  0.81416603332E+02 0.  0.
         -6    2    1    2    0  502 -0.11385308788E+03 -0.26354415626E+03 -0.15326950324E+03  0.36800969787E+03  0.17181836103E+03 0.  0.
        -24    2    5    5    0    0 -0.10532086183E+03 -0.26255531858E+03 -0.17635736583E+03  0.34293149856E+03  0.80450686603E+02 0.  0.
          5    1    3    3  501    0 -0.31579298744E+02  0.36125832880E+02 -0.12551153407E+03  0.13445282851E+03  0.47000000000E+01 0. -1.
        -11    1    4    4    0    0  0.87752191945E+02  0.66545805336E+02 -0.54561934866E+03  0.55662309064E+03  0.00000000000E+00 0.  1.
         12    1    4    4    0    0  0.57680194677E+02  0.16087251804E+03 -0.71434602856E+03  0.73450474501E+03  0.00000000000E+00 0. -1.
         -5    1    5    5    0  502 -0.85322260518E+01 -0.98883768094E+00  0.23087862593E+02  0.25078199307E+02  0.47000000000E+01 0.  1.
         11    1    6    6    0    0 -0.47923176842E+02 -0.21190428165E+03 -0.12349402511E+03  0.24990164005E+03  0.00000000000E+00 0. -1.
        -12    1    6    6    0    0 -0.57397684985E+02 -0.50651036926E+02 -0.52863340717E+02  0.93029858514E+02  0.00000000000E+00 0.  1.
<mgrwt>
<rscale>  2 0.33546213E+03</rscale>
<asrwt>0</asrwt>
<pdfrwt beam="1">  1       21 0.19603379E-01 0.33575878E+03</pdfrwt>
<pdfrwt beam="2">  1       21 0.25633361E+00 0.33575878E+03</pdfrwt>
<totfact> 0.12849030E+03</totfact>
</mgrwt>
</event>
<event>
11    1  0.1026879E-001  0.1958930E+03  0.7546771E-02  0.1153409E+00
         21   -1    0    0  501  502  0.00000000000E+00  0.00000000000E+00  0.63252002847E+02  0.63252002847E+02  0.00000000000E+00 0. -1.
         21   -1    0    0  502  503 -0.00000000000E+00 -0.00000000000E+00 -0.12333731375E+04  0.12333731375E+04  0.00000000000E+00 0.  1.
         -6    2    1    2    0  503  0.54050747092E+02 -0.73990103386E+02 -0.10485470344E+04  0.10666887747E+04  0.17314167675E+03 0.  0.
          6    2    1    2  501    0 -0.54050747092E+02  0.73990103386E+02 -0.12157410027E+03  0.22993636559E+03  0.17232078140E+03 0.  0.
         24    2    4    4    0    0  0.27391548573E+02  0.57069055164E+01 -0.34643891003E+02  0.92552254723E+02  0.81134795043E+02 0.  0.
          5    1    4    4  501    0 -0.81442295666E+02  0.68283197869E+02 -0.86930209267E+02  0.13738411086E+03  0.47000000000E+01 0. -1.
        -11    1    5    5    0    0 -0.43761334331E+01  0.37253722901E+02 -0.29029875748E+02  0.47431256569E+02  0.00000000000E+00 0.  1.
         12    1    5    5    0    0  0.31767682006E+02 -0.31546817384E+02 -0.56140152559E+01  0.45120998154E+02  0.00000000000E+00 0. -1.
         -5    1    3    3    0  503  0.51893065394E+02 -0.62128335500E+02 -0.35656668378E+03  0.36567022068E+03  0.47000000000E+01 0.  1.
         11    1    3    3    0    0  0.46257062501E+01  0.48622663943E+02 -0.38863190952E+03  0.39168906253E+03  0.00000000000E+00 0. -1.
        -12    1    3    3    0    0 -0.24680245519E+01 -0.60484431828E+02 -0.30334844105E+03  0.30932949153E+03  0.00000000000E+00 0.  1.
<mgrwt>
<rscale>  2 0.19571143E+03</rscale>
<asrwt>0</asrwt>
<pdfrwt beam="1">  1       21 0.97310776E-02 0.19589298E+03</pdfrwt>
<pdfrwt beam="2">  1       21 0.18974971E+00 0.19589298E+03</pdfrwt>
<totfact> 0.13296596E+04</totfact>
</mgrwt>
</event>
<event>
12    1  0.1026879E-001  0.1949117E+03  0.7546771E-02  0.1154716E+00
         21   -1    0    0  503  502  0.00000000000E+00  0.00000000000E+00  0.14864086149E+04  0.14864086149E+04  0.00000000000E+00 0. -1.
         21   -1    0    0  501  503 -0.00000000000E+00 -0.00000000000E+00 -0.36467668547E+02  0.36467668547E+02  0.00000000000E+00 0. -1.
          6    2    1    2  501    0 -0.37277514906E+02 -0.76810775644E+02  0.30523493694E+03  0.36215872391E+03  0.17521719723E+03 0.  0.
         24    2    3    3    0    0  0.57419770698E+01 -0.19611369085E+02  0.51657211910E+02  0.98632251940E+02  0.81500168603E+02 0.  0.
         -6    2    1    2    0  502  0.37277514906E+02  0.76810775644E+02  0.11447060094E+04  0.11607175595E+04  0.17211593955E+03 0.  0.
        -24    2    5    5    0    0 -0.15663898394E+02  0.10083641549E+03  0.71657183007E+03  0.72862845977E+03  0.83731143152E+02 0.  0.
          5    1    3    3  501    0 -0.43019491975E+02 -0.57199406560E+02  0.25357772503E+03  0.26352647197E+03  0.47000000000E+01 0. -1.
        -11    1    4    4    0    0 -0.30986460475E+02  0.11478794363E+02  0.33898351835E+02  0.47339430816E+02  0.00000000000E+00 0.  1.
         12    1    4    4    0    0  0.36728437545E+02 -0.31090163448E+02  0.17758860075E+02  0.51292821124E+02  0.00000000000E+00 0. -1.
         -5    1    5    5    0  502  0.52941413300E+02 -0.24025639847E+02  0.42813417932E+03  0.43208909974E+03  0.47000000000E+01 0.  1.
         13    1    6    6    0    0 -0.85645678633E+01  0.11531048464E+03  0.61309171772E+03  0.62390008337E+03  0.00000000000E+00 0. -1.
        -14    1    6    6    0    0 -0.70993305310E+01 -0.14474069145E+02  0.10348011235E+03  0.10472837640E+03  0.00000000000E+00 0.  1.
<mgrwt>
<rscale>  2 0.19421218E+03</rscale>
<asrwt>0</asrwt>
<pdfrwt beam="1">  1       21 0.22867820E+00 0.19491171E+03</pdfrwt>
<pdfrwt beam="2">  1       21 0.56104117E-02 0.19491171E+03</pdfrwt>
<totfact> 0.19662359E+04</totfact>
</mgrwt>
</event>
<event>
12    1  0.1026879E-001  0.2408832E+03  0.7546771E-02  0.1119372E+00
         21   -1    0    0  501  502  0.00000000000E+00  0.00000000000E+00  0.33122346149E+02  0.33122346149E+02  0.00000000000E+00 0. -1.
         21   -1    0    0  502  503 -0.00000000000E+00 -0.00000000000E+00 -0.18298980353E+04  0.18298980353E+04  0.00000000000E+00 0. -1.
         -6    2    1    2    0  503 -0.32185031159E+02  0.16320367687E+03 -0.11013536788E+04  0.11273884205E+04  0.17422229584E+03 0.  0.
        -24    2    3    3    0    0 -0.55082283038E+02  0.18457273947E+03 -0.97432648989E+03  0.99647273115E+03  0.80898955295E+02 0.  0.
          6    2    1    2  501    0  0.32185031159E+02 -0.16320367687E+03 -0.69542201035E+03  0.73563196101E+03  0.17283313688E+03 0.  0.
         24    2    5    5    0    0  0.50911292174E+02 -0.93774571375E+02 -0.24320138032E+03  0.27770548027E+03  0.81165217132E+02 0.  0.
          5    1    5    5  501    0 -0.18726261014E+02 -0.69429105494E+02 -0.45222063003E+03  0.45792648074E+03  0.47000000000E+01 0. -1.
        -11    1    6    6    0    0 -0.16705890964E+02 -0.50813437538E+02 -0.86213195419E+02  0.10145840178E+03  0.00000000000E+00 0.  1.
         12    1    6    6    0    0  0.67617183138E+02 -0.42961133837E+02 -0.15698818490E+03  0.17624707849E+03  0.00000000000E+00 0. -1.
         -5    1    3    3    0  503  0.22897251879E+02 -0.21369062602E+02 -0.12702718896E+03  0.13091568934E+03  0.47000000000E+01 0.  1.
         11    1    4    4    0    0 -0.62955206224E+02  0.11429701696E+03 -0.74991807747E+03  0.76118610668E+03  0.00000000000E+00 0. -1.
        -12    1    4    4    0    0  0.78729231858E+01  0.70275722505E+02 -0.22440841242E+03  0.23528662447E+03  0.00000000000E+00 0.  1.
<mgrwt>
<rscale>  2 0.24063212E+03</rscale>
<asrwt>0</asrwt>
<pdfrwt beam="1">  1       21 0.50957429E-02 0.24088322E+03</pdfrwt>
<pdfrwt beam="2">  1       21 0.28152292E+00 0.24088322E+03</pdfrwt>
<totfact> 0.10862116E+04</totfact>
</mgrwt>
</event>
<event>
12    1  0.1026879E-001  0.2104767E+03  0.7546771E-02  0.1141396E+00
         21   -1    0    0  503  502  0.00000000000E+00  0.00000000000E+00  0.63759376192E+03  0.63759376192E+03  0.00000000000E+00 0. -1.
         21   -1    0    0  501  503 -0.00000000000E+00 -0.00000000000E+00 -0.83234140251E+02  0.83234140251E+02  0.00000000000E+00 0. -1.
          6    2    1    2  501    0 -0.10707398077E+03 -0.51651015778E+02  0.12827544841E+03  0.24559304940E+03  0.17242009877E+03 0.  0.
         24    2    3    3    0    0 -0.48446557643E+02  0.52827441434E+01  0.10034421290E+01  0.94269286085E+02  0.80689002160E+02 0.  0.
         -6    2    1    2    0  502  0.10707398077E+03  0.51651015778E+02  0.42608417325E+03  0.47523485276E+03  0.17368873826E+03 0.  0.
        -24    2    5    5    0    0  0.22358517518E+02 -0.50973426254E+01  0.84255151881E+02  0.11849088891E+03  0.80095405166E+02 0.  0.
          5    1    3    3  501    0 -0.58627423126E+02 -0.56933759921E+02  0.12727200628E+03  0.15132376332E+03  0.47000000000E+01 0. -1.
        -11    1    4    4    0    0  0.15625360715E+02 -0.18259287247E+02 -0.81973165349E+01  0.25391917348E+02  0.00000000000E+00 0.  1.
         12    1    4    4    0    0 -0.64071918358E+02  0.23542031390E+02  0.92007586638E+01  0.68877368737E+02  0.00000000000E+00 0. -1.
         -5    1    5    5    0  502  0.84715463251E+02  0.56748358403E+02  0.34182902137E+03  0.35674396385E+03  0.47000000000E+01 0.  1.
         13    1    6    6    0    0  0.48812137488E+02  0.13678437516E+02  0.47522073589E+02  0.69484328429E+02  0.00000000000E+00 0. -1.
        -14    1    6    6    0    0 -0.26453619969E+02 -0.18775780141E+02  0.36733078292E+02  0.49006560481E+02  0.00000000000E+00 0.  1.
<mgrwt>
<rscale>  2 0.21021480E+03</rscale>
<asrwt>0</asrwt>
<pdfrwt beam="1">  1       21 0.98091345E-01 0.21047670E+03</pdfrwt>
<pdfrwt beam="2">  1       21 0.12805253E-01 0.21047670E+03</pdfrwt>
<totfact> 0.44463173E+04</totfact>
</mgrwt>
</event>
<event>
12    1  0.1026879E-001  0.2333803E+03  0.7546771E-02  0.1124673E+00
         21   -1    0    0  501  502  0.00000000000E+00  0.00000000000E+00  0.33821796327E+04  0.33821796327E+04  0.00000000000E+00 0.  1.
         21   -1    0    0  502  503 -0.00000000000E+00 -0.00000000000E+00 -0.33048881607E+02  0.33048881607E+02  0.00000000000E+00 0. -1.
         -6    2    1    2    0  503 -0.12344789549E+03  0.99029597941E+02  0.45018159906E+03  0.50707969148E+03  0.17152287663E+03 0.  0.
        -24    2    3    3    0    0 -0.76029505514E+02  0.83848708861E+02  0.15566907688E+03  0.20835125489E+03  0.79789048332E+02 0.  0.
          6    2    1    2  501    0  0.12344789549E+03 -0.99029597941E+02  0.28989491520E+04  0.29081488228E+04  0.16845517352E+03 0.  0.
         24    2    5    5    0    0  0.33855391746E+01 -0.25186536639E+02  0.75259298477E+03  0.75716424505E+03  0.79092792034E+02 0.  0.
          5    1    5    5  501    0  0.12006235631E+03 -0.73843061301E+02  0.21463561672E+04  0.21509845777E+04  0.47000000000E+01 0. -1.
        -11    1    6    6    0    0  0.10804267192E+02 -0.50306980968E+02  0.61147061616E+03  0.61363168021E+03  0.00000000000E+00 0.  1.
         12    1    6    6    0    0 -0.74187280170E+01  0.25120444328E+02  0.14112236861E+03  0.14353256484E+03  0.00000000000E+00 0. -1.
         -5    1    3    3    0  503 -0.47418389975E+02  0.15180889079E+02  0.29451252218E+03  0.29872843658E+03  0.47000000000E+01 0.  1.
         13    1    4    4    0    0 -0.25527382315E+02  0.25680205654E+02  0.17735331353E+01  0.36252801686E+02  0.00000000000E+00 0. -1.
        -14    1    4    4    0    0 -0.50502123199E+02  0.58168503208E+02  0.15389554374E+03  0.17209845321E+03  0.00000000000E+00 0.  1.
<mgrwt>
<rscale>  2 0.23281690E+03</rscale>
<asrwt>0</asrwt>
<pdfrwt beam="1">  1       21 0.52033505E+00 0.23338025E+03</pdfrwt>
<pdfrwt beam="2">  1       21 0.50844460E-02 0.23338025E+03</pdfrwt>
<totfact> 0.33255514E+02</totfact>
</mgrwt>
</event>
<event>
12    1  0.1026879E-001  0.1813290E+03  0.7546771E-02  0.1166597E+00
         21   -1    0    0  501  502  0.00000000000E+00  0.00000000000E+00  0.52596882493E+02  0.52596882493E+02  0.00000000000E+00 0. -1.
         21   -1    0    0  502  503 -0.00000000000E+00 -0.00000000000E+00 -0.65443577763E+03  0.65443577763E+03  0.00000000000E+00 0. -1.
         -6    2    1    2    0  503  0.51653729739E+02  0.20455348633E+02 -0.37731145641E+03  0.41862170674E+03  0.17260842718E+03 0.  0.
        -24    2    3    3    0    0  0.14421414535E+02  0.44248226742E+02 -0.35586992425E+03  0.36928434113E+03  0.86957684252E+02 0.  0.
          6    2    1    2  501    0 -0.51653729739E+02 -0.20455348633E+02 -0.22452743873E+03  0.28841095338E+03  0.17228400450E+03 0.  0.
         24    2    5    5    0    0  0.20058363198E+01 -0.28677311447E+02 -0.21721186140E+03  0.23343316356E+03  0.80521037903E+02 0.  0.
          5    1    5    5  501    0 -0.53659566059E+02  0.82219628137E+01 -0.73155773277E+01  0.54977789822E+02  0.47000000000E+01 0. -1.
        -11    1    6    6    0    0 -0.96232795118E+01 -0.58588882083E+01 -0.20455579150E+03  0.20486582417E+03  0.00000000000E+00 0.  1.
         12    1    6    6    0    0  0.11629115832E+02 -0.22818423238E+02 -0.12656069902E+02  0.28567339384E+02  0.00000000000E+00 0. -1.
         -5    1    3    3    0  503  0.37232315204E+02 -0.23792878109E+02 -0.21441532157E+02  0.49337365611E+02  0.47000000000E+01 0.  1.
         11    1    4    4    0    0  0.13008257925E+02 -0.13410286004E+01 -0.29196702306E+01  0.13399164384E+02  0.00000000000E+00 0. -1.
        -12    1    4    4    0    0  0.14131566105E+01  0.45589255343E+02 -0.35295025402E+03  0.35588517674E+03  0.00000000000E+00 0.  1.
<mgrwt>
<rscale>  2 0.18125173E+03</rscale>
<asrwt>0</asrwt>
<pdfrwt beam="1">  1       21 0.80918281E-02 0.18132898E+03</pdfrwt>
<pdfrwt beam="2">  1       21 0.10068243E+00 0.18132898E+03</pdfrwt>
<totfact> 0.95478788E+04</totfact>
</mgrwt>
</event>
<event>
12    1  0.1026879E-001  0.2092955E+03  0.7546771E-02  0.1142348E+00
         21   -1    0    0  501  502  0.00000000000E+00  0.00000000000E+00  0.28079570336E+03  0.28079570336E+03  0.00000000000E+00 0.  1.
         21   -1    0    0  502  503 -0.00000000000E+00 -0.00000000000E+00 -0.15767592216E+03  0.15767592216E+03  0.00000000000E+00 0.  1.
         -6    2    1    2    0  503 -0.10941615725E+03  0.40206674208E+02  0.34090997057E+02  0.21205376936E+03  0.17382788298E+03 0.  0.
        -24    2    3    3    0    0 -0.98214747133E+02 -0.34805034639E+02  0.13295792020E+02  0.13327078513E+03  0.82017053666E+02 0.  0.
          6    2    1    2  501    0  0.10941615725E+03 -0.40206674208E+02  0.89028784145E+02  0.22641785616E+03  0.17248318487E+03 0.  0.
         24    2    5    5    0    0  0.11520112994E+03  0.17026157334E+02  0.93337982570E+02  0.16854107233E+03  0.78312985502E+02 0.  0.
          5    1    5    5  501    0 -0.57849726970E+01 -0.57232831541E+02 -0.43091984249E+01  0.57876783829E+02  0.47000000000E+01 0. -1.
        -13    1    6    6    0    0  0.39127141121E+02 -0.30004597822E+02  0.21351603702E+02  0.53731741488E+02  0.00000000000E+00 0.  1.
         14    1    6    6    0    0  0.76073988824E+02  0.47030755155E+02  0.71986378868E+02  0.11480933084E+03  0.00000000000E+00 0. -1.
         -5    1    3    3    0  503 -0.11201410114E+02  0.75011708846E+02  0.20795205037E+02  0.78782984236E+02  0.47000000000E+01 0.  1.
         11    1    4    4    0    0 -0.25504397298E+02 -0.47586827940E+02  0.23237888860E+02  0.58779077515E+02  0.00000000000E+00 0. -1.
        -12    1    4    4    0    0 -0.72710349836E+02  0.12781793301E+02 -0.99420968400E+01  0.74491707611E+02  0.00000000000E+00 0.  1.
<mgrwt>
<rscale>  2 0.20901607E+03</rscale>
<asrwt>0</asrwt>
<pdfrwt beam="1">  1       21 0.43199339E-01 0.20929550E+03</pdfrwt>
<pdfrwt beam="2">  1       21 0.24257834E-01 0.20929550E+03</pdfrwt>
<totfact> 0.82067936E+04</totfact>
</mgrwt>
</event>
<event>
12    1  0.1026879E-001  0.2755818E+03  0.7546771E-02  0.1098225E+00
         21   -1    0    0  501  502  0.00000000000E+00  0.00000000000E+00  0.79540134688E+03  0.79540134688E+03  0.00000000000E+00 0.  1.
         21   -1    0    0  502  503 -0.00000000000E+00 -0.00000000000E+00 -0.97268296889E+02  0.97268296889E+02  0.00000000000E+00 0.  1.
         -6    2    1    2    0  503  0.83450930722E+02  0.19723551995E+03  0.28501085853E+03  0.39645494377E+03  0.17343420881E+03 0.  0.
        -24    2    3    3    0    0 -0.22310801653E+02  0.88775961881E+02  0.87045596101E+02  0.14713315390E+03  0.75447239166E+02 0.  0.
          6    2    1    2  501    0 -0.83450930722E+02 -0.19723551995E+03  0.41312219146E+03  0.49621470001E+03  0.17231707766E+03 0.  0.
         24    2    5    5    0    0 -0.12310566022E+03 -0.15231450948E+03  0.28746273215E+03  0.35692082193E+03  0.80018356517E+02 0.  0.
          5    1    5    5  501    0  0.39654729496E+02 -0.44921010475E+02  0.12565945932E+03  0.13929387807E+03  0.47000000000E+01 0. -1.
        -11    1    6    6    0    0 -0.71231947415E+02 -0.62699244124E+02  0.20003151621E+03  0.22139962291E+03  0.00000000000E+00 0.  1.
         12    1    6    6    0    0 -0.51873712803E+02 -0.89615265354E+02  0.87431215933E+02  0.13552119902E+03  0.00000000000E+00 0. -1.
         -5    1    3    3    0  503  0.10576173238E+03  0.10845955807E+03  0.19796526243E+03  0.24932178986E+03  0.47000000000E+01 0.  1.
         13    1    4    4    0    0 -0.33046601911E+02  0.20644352570E+02  0.63025859393E+02  0.74098084611E+02  0.00000000000E+00 0. -1.
        -14    1    4    4    0    0  0.10735800258E+02  0.68131609311E+02  0.24019736708E+02  0.73035069289E+02  0.00000000000E+00 0.  1.
<mgrwt>
<rscale>  2 0.27540622E+03</rscale>
<asrwt>0</asrwt>
<pdfrwt beam="1">  1       21 0.12236943E+00 0.27558181E+03</pdfrwt>
<pdfrwt beam="2">  1       21 0.14964354E-01 0.27558181E+03</pdfrwt>
<totfact> 0.18924258E+04</totfact>
</mgrwt>
</event>
<event>
12    1  0.1026879E-001  0.1830490E+03  0.7546771E-02  0.1165104E+00
         21   -1    0    0  501  502  0.00000000000E+00  0.00000000000E+00  0.12587248004E+03  0.12587248004E+03  0.00000000000E+00 0. -1.
         21   -1    0    0  502  503 -0.00000000000E+00 -0.00000000000E+00 -0.43581287520E+03  0.43581287520E+03  0.00000000000E+00 0. -1.
         -6    2    1    2    0  503 -0.52172717507E+02  0.23779447386E+02 -0.33110733964E+03  0.37833714956E+03  0.17383749252E+03 0.  0.
        -24    2    3    3    0    0 -0.70960058729E+02 -0.46588043775E+02 -0.20646709790E+03  0.23390090804E+03  0.69822607454E+02 0.  0.
          6    2    1    2  501    0  0.52172717507E+02 -0.23779447386E+02  0.21166944483E+02  0.18334820568E+03  0.17286141969E+03 0.  0.
         24    2    5    5    0    0  0.94885920708E+02 -0.15292087225E+02  0.11085005471E+02  0.13840169854E+03  0.98969525265E+02 0.  0.
          5    1    5    5  501    0 -0.42713203201E+02 -0.84873601606E+01  0.10081939012E+02  0.44946507144E+02  0.47000000000E+01 0. -1.
        -13    1    6    6    0    0  0.74713543177E+00 -0.38720098884E+02 -0.79671226018E+01  0.39538327121E+02  0.00000000000E+00 0.  1.
         14    1    6    6    0    0  0.94138785277E+02  0.23428011659E+02  0.19052128073E+02  0.98863371416E+02  0.00000000000E+00 0. -1.
         -5    1    3    3    0  503  0.18787341221E+02  0.70367491161E+02 -0.12464024174E+03  0.14443624152E+03  0.47000000000E+01 0.  1.
         11    1    4    4    0    0 -0.72946765757E+02 -0.19095045207E+02 -0.18215913397E+03  0.19714918583E+03  0.00000000000E+00 0. -1.
        -12    1    4    4    0    0  0.19867070280E+01 -0.27492998568E+02 -0.24307963924E+02  0.36751722207E+02  0.00000000000E+00 0.  1.
<mgrwt>
<rscale>  2 0.18281686E+03</rscale>
<asrwt>0</asrwt>
<pdfrwt beam="1">  1       21 0.19364997E-01 0.18304898E+03</pdfrwt>
<pdfrwt beam="2">  1       21 0.67048135E-01 0.18304898E+03</pdfrwt>
<totfact> 0.50160358E+04</totfact>
</mgrwt>
</event>
<event>
12    1  0.1026879E-001  0.2941921E+03  0.7546771E-02  0.1088814E+00
         21   -1    0    0  503  502  0.00000000000E+00  0.00000000000E+00  0.30173005711E+03  0.30173005711E+03  0.00000000000E+00 0.  1.
         21   -1    0    0  501  503 -0.00000000000E+00 -0.00000000000E+00 -0.28350977881E+03  0.28350977881E+03  0.00000000000E+00 0. -1.
          6    2    1    2  501    0 -0.11928856262E+03 -0.19808436548E+03 -0.11558751917E+02  0.29441906485E+03  0.18188403993E+03 0.  0.
         24    2    3    3    0    0 -0.18817505275E+02 -0.16778009929E+03  0.10707897894E+02  0.18703808140E+03  0.79776717107E+02 0.  0.
         -6    2    1    2    0  502  0.11928856262E+03  0.19808436548E+03  0.29779030210E+02  0.29082077107E+03  0.17384692470E+03 0.  0.
        -24    2    5    5    0    0  0.48085653501E+02  0.76437149838E+02  0.75444309598E+02  0.14258006451E+03  0.80513123132E+02 0.  0.
          5    1    3    3  501    0 -0.10047105735E+03 -0.30304266183E+02 -0.22266649811E+02  0.10738098345E+03  0.47000000000E+01 0. -1.
        -13    1    4    4    0    0 -0.38390975430E+02 -0.13623111715E+03 -0.14324080675E+02  0.14226019669E+03  0.00000000000E+00 0.  1.
         14    1    4    4    0    0  0.19573470156E+02 -0.31548982146E+02  0.25031978568E+02  0.44777884714E+02  0.00000000000E+00 0. -1.
         -5    1    5    5    0  502  0.71202909119E+02  0.12164721564E+03 -0.45665279388E+02  0.14824070656E+03  0.47000000000E+01 0.  1.
         11    1    6    6    0    0 -0.20132454049E+02  0.34436894839E+02  0.33839741746E+02  0.52310071245E+02  0.00000000000E+00 0. -1.
        -12    1    6    6    0    0  0.68218107549E+02  0.42000254998E+02  0.41604567853E+02  0.90269993263E+02  0.00000000000E+00 0.  1.
<mgrwt>
<rscale>  2 0.29295936E+03</rscale>
<asrwt>0</asrwt>
<pdfrwt beam="1">  1       21 0.46420009E-01 0.29419208E+03</pdfrwt>
<pdfrwt beam="2">  1       21 0.43616889E-01 0.29419208E+03</pdfrwt>
<totfact> 0.21362522E+04</totfact>
</mgrwt>
</event>
<event>
12    1  0.1026879E-001  0.1893457E+03  0.7546771E-02  0.1159141E+00
         21   -1    0    0  503  502  0.00000000000E+00  0.00000000000E+00  0.37702180675E+03  0.37702180675E+03  0.00000000000E+00 0. -1.
         21   -1    0    0  501  503 -0.00000000000E+00 -0.00000000000E+00 -0.94899231804E+02  0.94899231804E+02  0.00000000000E+00 0. -1.
          6    2    1    2  501    0 -0.66271428182E+02 -0.42535640097E+02  0.14208688193E+03  0.23672871089E+03  0.17219354712E+03 0.  0.
         24    2    3    3    0    0  0.14278731873E+02 -0.31548488750E+01  0.18355214224E+02  0.83853629214E+02  0.80502683109E+02 0.  0.
         -6    2    1    2    0  502  0.66271428182E+02  0.42535640097E+02  0.14003569301E+03  0.23519232767E+03  0.17176802032E+03 0.  0.
        -24    2    5    5    0    0 -0.18315468605E+02  0.58926812019E+02  0.91434902981E+02  0.13615829101E+03  0.79818000240E+02 0.  0.
          5    1    3    3  501    0 -0.80550160056E+02 -0.39380791222E+02  0.12373166771E+03  0.15287508167E+03  0.47000000000E+01 0. -1.
        -11    1    4    4    0    0  0.43178867589E+02 -0.29017879867E+01  0.30039100391E+02  0.52680001254E+02  0.00000000000E+00 0.  1.
         12    1    4    4    0    0 -0.28900135716E+02 -0.25306088828E+00 -0.11683886168E+02  0.31173627960E+02  0.00000000000E+00 0. -1.
         -5    1    5    5    0  502  0.84586896787E+02 -0.16391171922E+02  0.48600790031E+02  0.99034036657E+02  0.47000000000E+01 0.  1.
         13    1    6    6    0    0  0.12565231822E+02 -0.70953073610E+01  0.50588063681E+02  0.52605899140E+02  0.00000000000E+00 0. -1.
        -14    1    6    6    0    0 -0.30880700426E+02  0.66022119380E+02  0.40846839299E+02  0.83552391869E+02  0.00000000000E+00 0.  1.
<mgrwt>
<rscale>  2 0.18924892E+03</rscale>
<asrwt>0</asrwt>
<pdfrwt beam="1">  1       21 0.58003354E-01 0.18934572E+03</pdfrwt>
<pdfrwt beam="2">  1       21 0.14599882E-01 0.18934572E+03</pdfrwt>
<totfact> 0.11493719E+05</totfact>
</mgrwt>
</event>
<event>
12    1  0.1026879E-001  0.1829370E+03  0.7546771E-02  0.1165088E+00
         21   -1    0    0  503  502  0.00000000000E+00  0.00000000000E+00  0.21119801427E+03  0.21119801427E+03  0.00000000000E+00 0. -1.
         21   -1    0    0  501  503 -0.00000000000E+00 -0.00000000000E+00 -0.20352792982E+03  0.20352792982E+03  0.00000000000E+00 0. -1.
          6    2    1    2  501    0 -0.43450734598E+02 -0.42111217722E+02 -0.94125646632E+02  0.20573183040E+03  0.17264016825E+03 0.  0.
         24    2    3    3    0    0  0.71962288618E+01 -0.60879091903E+02 -0.41875678106E+01  0.10071613619E+03  0.79800719448E+02 0.  0.
         -6    2    1    2    0  502  0.43450734598E+02  0.42111217722E+02  0.10179573109E+03  0.20899411368E+03  0.17220582943E+03 0.  0.
        -24    2    5    5    0    0  0.23141997296E+02  0.18674630719E+02 -0.15486559616E+02  0.87590060480E+02  0.80919041608E+02 0.  0.
          5    1    3    3  501    0 -0.50646963460E+02  0.18767874182E+02 -0.89938078821E+02  0.10501569421E+03  0.47000000000E+01 0. -1.
        -11    1    4    4    0    0 -0.93803732707E+01  0.17346891365E+02 -0.63680461096E+01  0.20723369755E+02  0.00000000000E+00 0.  1.
         12    1    4    4    0    0  0.16576602133E+02 -0.78225983269E+02  0.21804782991E+01  0.79992766437E+02  0.00000000000E+00 0. -1.
         -5    1    5    5    0  502  0.20308737302E+02  0.23436587003E+02  0.11728229070E+03  0.12140405320E+03  0.47000000000E+01 0.  1.
         11    1    6    6    0    0  0.24938305045E+02  0.48887790742E+02 -0.33575743969E+01  0.54983710752E+02  0.00000000000E+00 0. -1.
        -12    1    6    6    0    0 -0.17963077497E+01 -0.30213160023E+02 -0.12128985219E+02  0.32606349728E+02  0.00000000000E+00 0.  1.
<mgrwt>
<rscale>  2 0.18283446E+03</rscale>
<asrwt>0</asrwt>
<pdfrwt beam="1">  1       21 0.32492002E-01 0.18293701E+03</pdfrwt>
<pdfrwt beam="2">  1       21 0.31311989E-01 0.18293701E+03</pdfrwt>
<totfact> 0.89674566E+04</totfact>
</mgrwt>
</event>
<event>
12    1  0.1026879E-001  0.2348456E+03  0.7546771E-02  0.1123567E+00
         21   -1    0    0  501  502  0.00000000000E+00  0.00000000000E+00  0.20360377418E+03  0.20360377418E+03  0.00000000000E+00 0.  1.
         21   -1    0    0  502  503 -0.00000000000E+00 -0.00000000000E+00 -0.35348281042E+03  0.35348281042E+03  0.00000000000E+00 0.  1.
         -6    2    1    2    0  503  0.52983802012E+02 -0.14667883596E+03 -0.21137912767E+03  0.31596451909E+03  0.17558609715E+03 0.  0.
        -24    2    3    3    0    0  0.42382316697E+01 -0.16400129907E+03 -0.16662624455E+03  0.24739988604E+03  0.80796098530E+02 0.  0.
          6    2    1    2  501    0 -0.52983802012E+02  0.14667883596E+03  0.61500091433E+02  0.24112206551E+03  0.17330789087E+03 0.  0.
         24    2    5    5    0    0  0.93583111227E+00  0.12899082441E+02 -0.50329298302E+01  0.82209881569E+02  0.81030069340E+02 0.  0.
          5    1    5    5  501    0 -0.53919633124E+02  0.13377975352E+03  0.66533021263E+02  0.15891218394E+03  0.47000000000E+01 0. -1.
        -11    1    6    6    0    0 -0.74814332138E+01  0.11473205897E+02 -0.42048223877E+02  0.44222838304E+02  0.00000000000E+00 0.  1.
         12    1    6    6    0    0  0.84172643261E+01  0.14258765441E+01  0.37015294047E+02  0.37987043265E+02  0.00000000000E+00 0. -1.
         -5    1    3    3    0  503  0.48745570342E+02  0.17322463114E+02 -0.44752883127E+02  0.68564633044E+02  0.47000000000E+01 0.  1.
         13    1    4    4    0    0  0.16016146812E+02 -0.45170047300E+02 -0.99432089442E+02  0.11037930305E+03  0.00000000000E+00 0. -1.
        -14    1    4    4    0    0 -0.11777915142E+02 -0.11883125177E+03 -0.67194155105E+02  0.13702058299E+03  0.00000000000E+00 0.  1.
<mgrwt>
<rscale>  2 0.23441981E+03</rscale>
<asrwt>0</asrwt>
<pdfrwt beam="1">  1       21 0.31323658E-01 0.23484557E+03</pdfrwt>
<pdfrwt beam="2">  1       21 0.54381970E-01 0.23484557E+03</pdfrwt>
<totfact> 0.30614333E+04</totfact>
</mgrwt>
</event>
<event>
12    1  0.1026879E-001  0.1919625E+03  0.7546771E-02  0.1157534E+00
         21   -1    0    0  501  502  0.00000000000E+00  0.00000000000E+00  0.61089558943E+02  0.61089558943E+02  0.00000000000E+00 0. -1.
         21   -1    0    0  502  503 -0.00000000000E+00 -0.00000000000E+00 -0.11786318183E+04  0.11786318183E+04  0.00000000000E+00 0. -1.
         -6    2    1    2    0  503 -0.63544550931E+02 -0.19542630792E+02 -0.99347310363E+03  0.10111545941E+04  0.17613909597E+03 0.  0.
        -24    2    3    3    0    0 -0.78602026155E+02  0.47036066545E+02 -0.59283954005E+03  0.60472035246E+03  0.76402319066E+02 0.  0.
          6    2    1    2  501    0  0.63544550931E+02  0.19542630792E+02 -0.12406915571E+03  0.22856678314E+03  0.18008274372E+03 0.  0.
         24    2    5    5    0    0  0.10333913838E+03  0.24871660728E+02 -0.13183775584E+03  0.18740309893E+03  0.80256779119E+02 0.  0.
          5    1    5    5  501    0 -0.39794587445E+02 -0.53290299358E+01  0.77686001341E+01  0.41163684213E+02  0.47000000000E+01 0. -1.
        -11    1    6    6    0    0 -0.15551178656E+01  0.25480750203E+02 -0.42698218853E+02  0.49747612160E+02  0.00000000000E+00 0.  1.
         12    1    6    6    0    0  0.10489425624E+03 -0.60908947516E+00 -0.89139536990E+02  0.13765548677E+03  0.00000000000E+00 0. -1.
         -5    1    3    3    0  503  0.15057475224E+02 -0.66578697337E+02 -0.40063356358E+03  0.40643424163E+03  0.47000000000E+01 0.  1.
         13    1    4    4    0    0 -0.17846546864E+02 -0.68152216520E+01 -0.30647510972E+03  0.30706992584E+03  0.00000000000E+00 0. -1.
        -14    1    4    4    0    0 -0.60755479290E+02  0.53851288197E+02 -0.28636443034E+03  0.29765042662E+03  0.00000000000E+00 0.  1.
<mgrwt>
<rscale>  2 0.19103214E+03</rscale>
<asrwt>0</asrwt>
<pdfrwt beam="1">  1       21 0.93983937E-02 0.19196255E+03</pdfrwt>
<pdfrwt beam="2">  1       21 0.18132797E+00 0.19196255E+03</pdfrwt>
<totfact> 0.16142243E+04</totfact>
</mgrwt>
</event>
<event>
12    1  0.1026879E-001  0.2254651E+03  0.7546771E-02  0.1130492E+00
         21   -1    0    0  501  502  0.00000000000E+00  0.00000000000E+00  0.43358250123E+03  0.43358250123E+03  0.00000000000E+00 0. -1.
         21   -1    0    0  502  503 -0.00000000000E+00 -0.00000000000E+00 -0.36041802856E+03  0.36041802856E+03  0.00000000000E+00 0. -1.
         -6    2    1    2    0  503  0.76101457761E+02 -0.12456758647E+03 -0.29078103730E+03  0.36587571358E+03  0.16734070235E+03 0.  0.
        -24    2    3    3    0    0  0.78353056645E+02 -0.61717240412E+02 -0.92163038509E+02  0.15748561031E+03  0.79746301095E+02 0.  0.
          6    2    1    2  501    0 -0.76101457761E+02  0.12456758647E+03  0.36394550997E+03  0.42812481621E+03  0.17183133752E+03 0.  0.
         24    2    5    5    0    0 -0.82745405441E+01  0.13577837492E+02  0.79282370230E+02  0.11511617702E+03  0.81934207086E+02 0.  0.
          5    1    5    5  501    0 -0.67826917216E+02  0.11098974898E+03  0.28466313974E+03  0.31300863918E+03  0.47000000000E+01 0. -1.
        -13    1    6    6    0    0 -0.10951029803E+02 -0.30823519658E+02  0.56138822451E+02  0.64973700864E+02  0.00000000000E+00 0.  1.
         14    1    6    6    0    0  0.26764892593E+01  0.44401357149E+02  0.23143547779E+02  0.50142476158E+02  0.00000000000E+00 0. -1.
         -5    1    3    3    0  503 -0.22515988841E+01 -0.62850346062E+02 -0.19861799879E+03  0.20839010327E+03  0.47000000000E+01 0.  1.
         11    1    4    4    0    0 -0.80174631455E+01 -0.21664780183E+02 -0.46443715550E+02  0.51871583066E+02  0.00000000000E+00 0. -1.
        -12    1    4    4    0    0  0.86370519790E+02 -0.40052460229E+02 -0.45719322959E+02  0.10561402725E+03  0.00000000000E+00 0.  1.
<mgrwt>
<rscale>  2 0.22460943E+03</rscale>
<asrwt>0</asrwt>
<pdfrwt beam="1">  1       21 0.66705000E-01 0.22546513E+03</pdfrwt>
<pdfrwt beam="2">  1       21 0.55448927E-01 0.22546513E+03</pdfrwt>
<totfact> 0.61683239E+03</totfact>
</mgrwt>
</event>
<event>
12    1  0.1026879E-001  0.2343503E+03  0.7546771E-02  0.1124112E+00
         21   -1    0    0  501  502  0.00000000000E+00  0.00000000000E+00  0.42146408359E+03  0.42146408359E+03  0.00000000000E+00 0.  1.
         21   -1    0    0  502  503 -0.00000000000E+00 -0.00000000000E+00 -0.15289873088E+03  0.15289873088E+03  0.00000000000E+00 0. -1.
         -6    2    1    2    0  503 -0.13851831289E+03  0.67275649849E+02  0.20766374752E+02  0.23526856987E+03  0.17665424303E+03 0.  0.
        -24    2    3    3    0    0 -0.11654168053E+03  0.24495807344E+02 -0.48179898269E+02  0.15107376090E+03  0.79498243732E+02 0.  0.
          6    2    1    2  501    0  0.13851831289E+03 -0.67275649849E+02  0.24779897796E+03  0.33909424460E+03  0.17282140252E+03 0.  0.
         24    2    5    5    0    0  0.91858058147E+02 -0.10841325457E+03  0.21297382877E+03  0.26764942035E+03  0.78019381312E+02 0.  0.
          5    1    5    5  501    0  0.46660254744E+02  0.41137604723E+02  0.34825149194E+02  0.71444824246E+02  0.47000000000E+01 0. -1.
        -13    1    6    6    0    0  0.38877975530E+02 -0.23817164802E+02  0.13028184040E+03  0.13802938911E+03  0.00000000000E+00 0.  1.
         14    1    6    6    0    0  0.52980082617E+02 -0.84596089770E+02  0.82691988373E+02  0.12962003124E+03  0.00000000000E+00 0. -1.
         -5    1    3    3    0  503 -0.21976632357E+02  0.42779842505E+02  0.68946273021E+02  0.84194808973E+02  0.47000000000E+01 0.  1.
         11    1    4    4    0    0 -0.72719620206E+01  0.27677815107E+02  0.57335201580E+01  0.29185889298E+02  0.00000000000E+00 0. -1.
        -12    1    4    4    0    0 -0.10926971851E+03 -0.31820077628E+01 -0.53913418428E+02  0.12188787160E+03  0.00000000000E+00 0.  1.
<mgrwt>
<rscale>  2 0.23362808E+03</rscale>
<asrwt>0</asrwt>
<pdfrwt beam="1">  1       21 0.64840628E-01 0.23435029E+03</pdfrwt>
<pdfrwt beam="2">  1       21 0.23522882E-01 0.23435029E+03</pdfrwt>
<totfact> 0.36499485E+04</totfact>
</mgrwt>
</event>
<event>
12    1  0.1026879E-001  0.2109080E+03  0.7546771E-02  0.1140939E+00
         21   -1    0    0  501  502  0.00000000000E+00  0.00000000000E+00  0.68484693979E+03  0.68484693979E+03  0.00000000000E+00 0. -1.
         21   -1    0    0  502  503 -0.00000000000E+00 -0.00000000000E+00 -0.72165672089E+02  0.72165672089E+02  0.00000000000E+00 0. -1.
         -6    2    1    2    0  503  0.11115462169E+03 -0.47139979958E+02  0.18521677702E+03  0.28034912171E+03  0.17237415097E+03 0.  0.
        -24    2    3    3    0    0  0.23724899506E+02 -0.69264685782E+02  0.66070699991E+02  0.13084548764E+03  0.85992654839E+02 0.  0.
          6    2    1    2  501    0 -0.11115462169E+03  0.47139979958E+02  0.42746449068E+03  0.47666349017E+03  0.17292965168E+03 0.  0.
         24    2    5    5    0    0  0.71797309624E+01  0.42839104167E+02  0.16742258912E+03  0.19089190810E+03  0.80762985629E+02 0.  0.
          5    1    5    5  501    0 -0.11833435265E+03  0.43008757917E+01  0.26004190157E+03  0.28577158207E+03  0.47000000000E+01 0. -1.
        -13    1    6    6    0    0  0.20144326377E+02  0.28264977076E+02  0.16783012563E+03  0.17138160311E+03  0.00000000000E+00 0.  1.
         14    1    6    6    0    0 -0.12964595414E+02  0.14574127090E+02 -0.40753651566E+00  0.19510304988E+02  0.00000000000E+00 0. -1.
         -5    1    3    3    0  503  0.87429722180E+02  0.22124705824E+02  0.11914607702E+03  0.14950363406E+03  0.47000000000E+01 0.  1.
         13    1    4    4    0    0  0.55343985483E+02 -0.34577234223E+02  0.30954141142E+02  0.72226731267E+02  0.00000000000E+00 0. -1.
        -14    1    4    4    0    0 -0.31619085977E+02 -0.34687451559E+02  0.35116558849E+02  0.58618756376E+02  0.00000000000E+00 0.  1.
<mgrwt>
<rscale>  2 0.21079412E+03</rscale>
<asrwt>0</asrwt>
<pdfrwt beam="1">  1       21 0.10536106E+00 0.21090802E+03</pdfrwt>
<pdfrwt beam="2">  1       21 0.11102412E-01 0.21090802E+03</pdfrwt>
<totfact> 0.48390673E+04</totfact>
</mgrwt>
</event>
<event>
12    1  0.1026879E-001  0.2394556E+03  0.7546771E-02  0.1121062E+00
         21   -1    0    0  501  502  0.00000000000E+00  0.00000000000E+00  0.23222033035E+03  0.23222033035E+03  0.00000000000E+00 0.  1.
         21   -1    0    0  502  503 -0.00000000000E+00 -0.00000000000E+00 -0.41016094446E+03  0.41016094446E+03  0.00000000000E+00 0.  1.
         -6    2    1    2    0  503 -0.56108845673E+02  0.15762570281E+03 -0.29556760921E+03  0.38039345158E+03  0.17130353658E+03 0.  0.
        -24    2    3    3    0    0  0.36846472230E+01  0.94448803851E+01 -0.91117322554E+02  0.12086536516E+03  0.78760952483E+02 0.  0.
          6    2    1    2  501    0  0.56108845673E+02 -0.15762570281E+03  0.11762699510E+03  0.26198782322E+03  0.16372979200E+03 0.  0.
         24    2    5    5    0    0 -0.89329534576E+01 -0.41723044510E+02  0.86652782491E+02  0.12543983282E+03  0.80036471957E+02 0.  0.
          5    1    5    5  501    0  0.65041799131E+02 -0.11590265830E+03  0.30974212610E+02  0.13654799040E+03  0.47000000000E+01 0. -1.
        -11    1    6    6    0    0  0.35175948006E+02 -0.15219160095E+02  0.28331316509E+02  0.47661658041E+02  0.00000000000E+00 0.  1.
         12    1    6    6    0    0 -0.44108901463E+02 -0.26503884414E+02  0.58321465982E+02  0.77778174777E+02  0.00000000000E+00 0. -1.
         -5    1    3    3    0  503 -0.59793492896E+02  0.14818082243E+03 -0.20445028665E+03  0.25952808642E+03  0.47000000000E+01 0.  1.
         13    1    4    4    0    0  0.25559853858E+02  0.24368438844E+00  0.11580036612E+01  0.25587232828E+02  0.00000000000E+00 0. -1.
        -14    1    4    4    0    0 -0.21875206635E+02  0.92011959966E+01 -0.92275326215E+02  0.95278132335E+02  0.00000000000E+00 0.  1.
<mgrwt>
<rscale>  2 0.23810459E+03</rscale>
<asrwt>0</asrwt>
<pdfrwt beam="1">  1       21 0.35726205E-01 0.23945556E+03</pdfrwt>
<pdfrwt beam="2">  1       21 0.63101683E-01 0.23945556E+03</pdfrwt>
<totfact> 0.17091247E+04</totfact>
</mgrwt>
</event>
<event>
12    1  0.1026879E-001  0.2113355E+03  0.7546771E-02  0.1140618E+00
         21   -1    0    0  503  502  0.00000000000E+00  0.00000000000E+00  0.79503483023E+03  0.79503483023E+03  0.00000000000E+00 0. -1.
         21   -1    0    0  501  503 -0.00000000000E+00 -0.00000000000E+00 -0.62284495951E+02  0.62284495951E+02  0.00000000000E+00 0.  1.
          6    2    1    2  501    0  0.11319756028E+03  0.44411369982E+02  0.23016341250E+03  0.31210714584E+03  0.17219064026E+03 0.  0.
         24    2    3    3    0    0  0.12475940581E+03  0.80002436885E+02  0.21499831370E+03  0.27145655498E+03  0.74155829880E+02 0.  0.
         -6    2    1    2    0  502 -0.11319756028E+03 -0.44411369982E+02  0.50258692178E+03  0.54521218034E+03  0.17284863381E+03 0.  0.
        -24    2    5    5    0    0 -0.19800538555E+02 -0.57114466165E+02  0.36601443883E+03  0.37920463407E+03  0.78584104588E+02 0.  0.
          5    1    3    3  501    0 -0.11561845527E+02 -0.35591066904E+02  0.15165098803E+02  0.40650590857E+02  0.47000000000E+01 0. -1.
        -13    1    4    4    0    0  0.16679831058E+02  0.22130485593E+02  0.98538504992E+02  0.10236118465E+03  0.00000000000E+00 0.  1.
         14    1    4    4    0    0  0.10807957475E+03  0.57871951293E+02  0.11645980871E+03  0.16909537034E+03  0.00000000000E+00 0. -1.
         -5    1    5    5    0  502 -0.93397021728E+02  0.12703096184E+02  0.13657248294E+03  0.16600754627E+03  0.47000000000E+01 0.  1.
         13    1    6    6    0    0 -0.44274399723E+02 -0.31409907914E+02  0.29341026483E+03  0.29838965849E+03  0.00000000000E+00 0. -1.
        -14    1    6    6    0    0  0.24473861168E+02 -0.25704558252E+02  0.72604173999E+02  0.80814975577E+02  0.00000000000E+00 0.  1.
<mgrwt>
<rscale>  2 0.21120095E+03</rscale>
<asrwt>0</asrwt>
<pdfrwt beam="1">  1       21 0.12231304E+00 0.21133553E+03</pdfrwt>
<pdfrwt beam="2">  1       21 0.95822307E-02 0.21133553E+03</pdfrwt>
<totfact> 0.43617382E+04</totfact>
</mgrwt>
</event>
<event>
12    1  0.1026879E-001  0.1818180E+03  0.7546771E-02  0.1166723E+00
         21   -1    0    0  503  502  0.00000000000E+00  0.00000000000E+00  0.17083261931E+04  0.17083261931E+04  0.00000000000E+00 0. -1.
         21   -1    0    0  501  503 -0.00000000000E+00 -0.00000000000E+00 -0.30070215629E+02  0.30070215629E+02  0.00000000000E+00 0.  1.
          6    2    1    2  501    0  0.42463798933E+02  0.10443661633E+02  0.30902056047E+03  0.35714212441E+03  0.17362184755E+03 0.  0.
         24    2    3    3    0    0  0.55493327478E+02 -0.48657490184E+01  0.79779355482E+02  0.12697312838E+03  0.81573554916E+02 0.  0.
         -6    2    1    2    0  502 -0.42463798933E+02 -0.10443661633E+02  0.13692354170E+04  0.13812542843E+04  0.17648095220E+03 0.  0.
        -24    2    5    5    0    0  0.94456624629E+01 -0.56764340726E+01  0.31932994345E+03  0.33004502255E+03  0.82684107793E+02 0.  0.
          5    1    3    3  501    0 -0.13029528545E+02  0.15309410651E+02  0.22924120499E+03  0.23016899603E+03  0.47000000000E+01 0. -1.
        -13    1    4    4    0    0  0.14079111531E+02 -0.96813371603E+01  0.83391236316E+02  0.85123721517E+02  0.00000000000E+00 0.  1.
         14    1    4    4    0    0  0.41414215947E+02  0.48155881419E+01 -0.36118808335E+01  0.41849406864E+02  0.00000000000E+00 0. -1.
         -5    1    5    5    0  502 -0.51909461396E+02 -0.47672275604E+01  0.10499054735E+04  0.10512092617E+04  0.47000000000E+01 0.  1.
         11    1    6    6    0    0 -0.19618140286E+00  0.36709462913E+02  0.10185763019E+03  0.10827095632E+03  0.00000000000E+00 0. -1.
        -12    1    6    6    0    0  0.96418438658E+01 -0.42385896986E+02  0.21747231327E+03  0.22177406623E+03  0.00000000000E+00 0.  1.
<mgrwt>
<rscale>  2 0.18112049E+03</rscale>
<asrwt>0</asrwt>
<pdfrwt beam="1">  1       21 0.26281934E+00 0.18181796E+03</pdfrwt>
<pdfrwt beam="2">  1       21 0.46261884E-02 0.18181796E+03</pdfrwt>
<totfact> 0.17342368E+04</totfact>
</mgrwt>
</event>
<event>
12    1  0.1026879E-001  0.2413725E+03  0.7546771E-02  0.1119002E+00
         21   -1    0    0  501  502  0.00000000000E+00  0.00000000000E+00  0.43509283655E+03  0.43509283655E+03  0.00000000000E+00 0.  1.
         21   -1    0    0  502  503 -0.00000000000E+00 -0.00000000000E+00 -0.15430101556E+03  0.15430101556E+03  0.00000000000E+00 0.  1.
         -6    2    1    2    0  503  0.13211862901E+03 -0.10187538663E+03  0.32017019464E+02  0.24276785543E+03  0.17342783964E+03 0.  0.
        -24    2    3    3    0    0  0.21760756619E+02 -0.11722474246E+02 -0.26112171514E+02  0.88795453829E+02  0.81190148346E+02 0.  0.
          6    2    1    2  501    0 -0.13211862901E+03  0.10187538663E+03  0.24877480153E+03  0.34662599668E+03  0.17443266083E+03 0.  0.
         24    2    5    5    0    0 -0.18596548359E+02  0.13521263176E+02  0.15090934515E+03  0.17257585597E+03  0.80499313309E+02 0.  0.
          5    1    5    5  501    0 -0.11352208065E+03  0.88354123456E+02  0.97865456386E+02  0.17405014071E+03  0.47000000000E+01 0. -1.
        -13    1    6    6    0    0 -0.38094998901E+01  0.45636688609E+02  0.63536784658E+02  0.78320767624E+02  0.00000000000E+00 0.  1.
         14    1    6    6    0    0 -0.14787048469E+02 -0.32115425433E+02  0.87372560489E+02  0.94255088348E+02  0.00000000000E+00 0. -1.
         -5    1    3    3    0  503  0.11035787239E+03 -0.90152912385E+02  0.58129190978E+02  0.15397240160E+03  0.47000000000E+01 0.  1.
         13    1    4    4    0    0  0.17215735475E+02  0.14507061950E+02  0.23468168382E+02  0.32520629169E+02  0.00000000000E+00 0. -1.
        -14    1    4    4    0    0  0.45450211438E+01 -0.26229536197E+02 -0.49580339896E+02  0.56274824660E+02  0.00000000000E+00 0.  1.
<mgrwt>
<rscale>  2 0.24119100E+03</rscale>
<asrwt>0</asrwt>
<pdfrwt beam="1">  1       21 0.66937359E-01 0.24137249E+03</pdfrwt>
<pdfrwt beam="2">  1       21 0.23738618E-01 0.24137249E+03</pdfrwt>
<totfact> 0.33344838E+04</totfact>
</mgrwt>
</event>
<event>
12    1  0.1026879E-001  0.1857487E+03  0.7546771E-02  0.1162381E+00
         21   -1    0    0  503  502  0.00000000000E+00  0.00000000000E+00  0.67093654022E+02  0.67093654022E+02  0.00000000000E+00 0. -1.
         21   -1    0    0  501  503 -0.00000000000E+00 -0.00000000000E+00 -0.54084880074E+03  0.54084880074E+03  0.00000000000E+00 0. -1.
          6    2    1    2  501    0 -0.67104781463E+02  0.10822822008E+02 -0.30465099914E+03  0.35674769941E+03  0.17273246535E+03 0.  0.
         24    2    3    3    0    0 -0.27224956335E+02 -0.53382896369E+02 -0.22169872368E+03  0.24442697680E+03  0.83685668023E+02 0.  0.
         -6    2    1    2    0  502  0.67104781463E+02 -0.10822822008E+02 -0.16910414758E+03  0.25119475535E+03  0.17286528632E+03 0.  0.
        -24    2    5    5    0    0  0.99339460216E+02  0.25386077610E+02 -0.14831370672E+03  0.19823730680E+03  0.82391097298E+02 0.  0.
          5    1    3    3  501    0 -0.39879825128E+02  0.64205718377E+02 -0.82952275457E+02  0.11232072261E+03  0.47000000000E+01 0. -1.
        -13    1    4    4    0    0 -0.53627367423E+02 -0.37151045227E+02 -0.18622297547E+03  0.19731976913E+03  0.00000000000E+00 0.  1.
         14    1    4    4    0    0  0.26402411088E+02 -0.16231851142E+02 -0.35475748212E+02  0.47107207665E+02  0.00000000000E+00 0. -1.
         -5    1    5    5    0  502 -0.32234678753E+02 -0.36208899618E+02 -0.20790440857E+02  0.52957448550E+02  0.47000000000E+01 0.  1.
         11    1    6    6    0    0  0.21354197709E+02 -0.12907995586E+02 -0.90506278220E+02  0.93882929796E+02  0.00000000000E+00 0. -1.
        -12    1    6    6    0    0  0.77985262508E+02  0.38294073195E+02 -0.57807428502E+02  0.10435437701E+03  0.00000000000E+00 0.  1.
<mgrwt>
<rscale>  2 0.18571783E+03</rscale>
<asrwt>0</asrwt>
<pdfrwt beam="1">  1       21 0.10322100E-01 0.18574873E+03</pdfrwt>
<pdfrwt beam="2">  1       21 0.83207511E-01 0.18574873E+03</pdfrwt>
<totfact> 0.96780657E+04</totfact>
</mgrwt>
</event>
<event>
12    1  0.1026879E-001  0.3609240E+03  0.7546771E-02  0.1058400E+00
         21   -1    0    0  503  502  0.00000000000E+00  0.00000000000E+00  0.37223629233E+03  0.37223629233E+03  0.00000000000E+00 0. -1.
         21   -1    0    0  501  503 -0.00000000000E+00 -0.00000000000E+00 -0.34994467878E+03  0.34994467878E+03  0.00000000000E+00 0.  1.
          6    2    1    2  501    0  0.15381638504E+03  0.27619849205E+03 -0.14435425890E+02  0.36121257917E+03  0.17412943035E+03 0.  0.
         24    2    3    3    0    0  0.13451471862E+03  0.24696368236E+03 -0.64767341449E+02  0.29970956991E+03  0.80905796124E+02 0.  0.
         -6    2    1    2    0  502 -0.15381638504E+03 -0.27619849205E+03  0.36727039439E+02  0.36096839194E+03  0.17030624544E+03 0.  0.
        -24    2    5    5    0    0 -0.22836504327E+02 -0.17179116281E+03  0.13060557656E+02  0.19173833577E+03  0.80989515910E+02 0.  0.
          5    1    3    3  501    0  0.19301666424E+02  0.29234809687E+02  0.50331915559E+02  0.61503009260E+02  0.47000000000E+01 0. -1.
        -11    1    4    4    0    0  0.48151134954E+02  0.16856404743E+03 -0.28857453932E+02  0.17766576072E+03  0.00000000000E+00 0.  1.
         12    1    4    4    0    0  0.86363583666E+02  0.78399634930E+02 -0.35909887517E+02  0.12204380919E+03  0.00000000000E+00 0. -1.
         -5    1    5    5    0  502 -0.13097988072E+03 -0.10440732924E+03  0.23666481783E+02  0.16923005617E+03  0.47000000000E+01 0.  1.
         11    1    6    6    0    0  0.14504619961E+02 -0.82291492806E+01  0.17145838035E+02  0.23918249519E+02  0.00000000000E+00 0. -1.
        -12    1    6    6    0    0 -0.37341124289E+02 -0.16356201353E+03 -0.40852803789E+01  0.16782008625E+03  0.00000000000E+00 0.  1.
<mgrwt>
<rscale>  2 0.36046592E+03</rscale>
<asrwt>0</asrwt>
<pdfrwt beam="1">  1       21 0.57267122E-01 0.36092402E+03</pdfrwt>
<pdfrwt beam="2">  1       21 0.53837643E-01 0.36092402E+03</pdfrwt>
<totfact> 0.85616947E+03</totfact>
</mgrwt>
</event>
<event>
12    1  0.1026879E-001  0.2172603E+03  0.7546771E-02  0.1135946E+00
         21   -1    0    0  503  502  0.00000000000E+00  0.00000000000E+00  0.47385645861E+02  0.47385645861E+02  0.00000000000E+00 0. -1.
         21   -1    0    0  501  503 -0.00000000000E+00 -0.00000000000E+00 -0.10684568975E+04  0.10684568975E+04  0.00000000000E+00 0. -1.
          6    2    1    2  501    0 -0.13077077387E+03 -0.15339355059E+02 -0.65576707476E+03  0.69081408668E+03  0.17279280918E+03 0.  0.
         24    2    3    3    0    0 -0.54653457953E+02 -0.44125582510E+02 -0.24522921239E+03  0.27226191655E+03  0.95158379035E+02 0.  0.
         -6    2    1    2    0  502  0.13077077387E+03  0.15339355059E+02 -0.36530417688E+03  0.42502845668E+03  0.17281711788E+03 0.  0.
        -24    2    5    5    0    0  0.99605876857E+02  0.73597911422E+02 -0.21827186926E+03  0.26376500863E+03  0.81187361051E+02 0.  0.
          5    1    3    3  501    0 -0.76117315917E+02  0.28786227451E+02 -0.41053786238E+03  0.41855217013E+03  0.47000000000E+01 0. -1.
        -11    1    4    4    0    0  0.18010570704E+02  0.15722444752E+02 -0.43110578372E+02  0.49296023101E+02  0.00000000000E+00 0.  1.
         12    1    4    4    0    0 -0.72664028657E+02 -0.59848027262E+02 -0.20211863401E+03  0.22296589345E+03  0.00000000000E+00 0. -1.
         -5    1    5    5    0  502  0.31164897014E+02 -0.58258556363E+02 -0.14703230762E+03  0.16126344806E+03  0.47000000000E+01 0.  1.
         11    1    6    6    0    0  0.75290525878E+02  0.21841768768E+02 -0.70947494975E+02  0.10573208214E+03  0.00000000000E+00 0. -1.
        -12    1    6    6    0    0  0.24315350979E+02  0.51756142654E+02 -0.14732437429E+03  0.15803292649E+03  0.00000000000E+00 0.  1.
<mgrwt>
<rscale>  2 0.21725549E+03</rscale>
<asrwt>0</asrwt>
<pdfrwt beam="1">  1       21 0.72901001E-02 0.21726032E+03</pdfrwt>
<pdfrwt beam="2">  1       21 0.16437797E+00 0.21726032E+03</pdfrwt>
<totfact> 0.32486244E+04</totfact>
</mgrwt>
</event>
<event>
12    1  0.1026879E-001  0.2841432E+03  0.7546771E-02  0.1093536E+00
         21   -1    0    0  501  502  0.00000000000E+00  0.00000000000E+00  0.63450366979E+02  0.63450366979E+02  0.00000000000E+00 0. -1.
         21   -1    0    0  502  503 -0.00000000000E+00 -0.00000000000E+00 -0.14498605780E+04  0.14498605780E+04  0.00000000000E+00 0.  1.
         -6    2    1    2    0  503  0.87706559372E+02  0.20666465894E+03 -0.42562757459E+03  0.51139246258E+03  0.17309158478E+03 0.  0.
        -24    2    3    3    0    0 -0.18089028772E+02  0.54992363394E+02 -0.12824340246E+03  0.16116878043E+03  0.78597916746E+02 0.  0.
          6    2    1    2  501    0 -0.87706559372E+02 -0.20666465894E+03 -0.96078263644E+03  0.10019184824E+04  0.17416845034E+03 0.  0.
         24    2    5    5    0    0 -0.27531417154E+02 -0.21207876875E+02 -0.34300883037E+03  0.35408993162E+03  0.80727126718E+02 0.  0.
          5    1    5    5  501    0 -0.60175142218E+02 -0.18545678206E+03 -0.61777380606E+03  0.64782855078E+03  0.47000000000E+01 0. -1.
        -13    1    6    6    0    0 -0.32895636348E+02 -0.49271016291E+02 -0.23817671984E+03  0.24543411705E+03  0.00000000000E+00 0.  1.
         14    1    6    6    0    0  0.53642191940E+01  0.28063139416E+02 -0.10483211053E+03  0.10865581457E+03  0.00000000000E+00 0. -1.
         -5    1    3    3    0  503  0.10579558814E+03  0.15167229554E+03 -0.29738417213E+03  0.35022368215E+03  0.47000000000E+01 0.  1.
         13    1    4    4    0    0 -0.28207738163E+02  0.62363298563E+01 -0.64654484121E+01  0.29603552583E+02  0.00000000000E+00 0. -1.
        -14    1    4    4    0    0  0.10118709391E+02  0.48756033537E+02 -0.12177795405E+03  0.13156522785E+03  0.00000000000E+00 0.  1.
<mgrwt>
<rscale>  2 0.28397838E+03</rscale>
<asrwt>0</asrwt>
<pdfrwt beam="1">  1       21 0.97615946E-02 0.28414322E+03</pdfrwt>
<pdfrwt beam="2">  1       21 0.22305548E+00 0.28414322E+03</pdfrwt>
<totfact> 0.76042038E+03</totfact>
</mgrwt>
</event>
<event>
12    1  0.1026879E-001  0.2042267E+03  0.7546771E-02  0.1146419E+00
         21   -1    0    0  501  502  0.00000000000E+00  0.00000000000E+00  0.93278113281E+02  0.93278113281E+02  0.00000000000E+00 0. -1.
         21   -1    0    0  502  503 -0.00000000000E+00 -0.00000000000E+00 -0.52882152724E+03  0.52882152724E+03  0.00000000000E+00 0. -1.
         -6    2    1    2    0  503 -0.94102412914E+02  0.50871149188E+02 -0.34200902517E+03  0.39834497304E+03  0.17396955571E+03 0.  0.
        -24    2    3    3    0    0 -0.68535536437E+02  0.10001031083E+03 -0.27817995217E+03  0.31370123175E+03  0.79531094452E+02 0.  0.
          6    2    1    2  501    0  0.94102412914E+02 -0.50871149188E+02 -0.93534388789E+02  0.22375466748E+03  0.17284192604E+03 0.  0.
         24    2    5    5    0    0  0.80134381127E+02 -0.98171926505E+00 -0.11942913342E+03  0.16564538311E+03  0.82174157902E+02 0.  0.
          5    1    5    5  501    0  0.13968031787E+02 -0.49889429923E+02  0.25894744628E+02  0.58109284364E+02  0.47000000000E+01 0. -1.
        -13    1    6    6    0    0 -0.54144464004E+01 -0.24430702835E+02 -0.36210467509E+02  0.44015604370E+02  0.00000000000E+00 0.  1.
         14    1    6    6    0    0  0.85548827527E+02  0.23448983570E+02 -0.83218665908E+02  0.12162977874E+03  0.00000000000E+00 0. -1.
         -5    1    3    3    0  503 -0.25566876477E+02 -0.49139161643E+02 -0.63829072995E+02  0.84643741288E+02  0.47000000000E+01 0.  1.
         13    1    4    4    0    0 -0.46443029776E+02  0.13332682324E+02 -0.14850573188E+03  0.15616871592E+03  0.00000000000E+00 0. -1.
        -14    1    4    4    0    0 -0.22092506661E+02  0.86677628507E+02 -0.12967422030E+03  0.15753251583E+03  0.00000000000E+00 0.  1.
<mgrwt>
<rscale>  2 0.20398635E+03</rscale>
<asrwt>0</asrwt>
<pdfrwt beam="1">  1       21 0.14350479E-01 0.20422670E+03</pdfrwt>
<pdfrwt beam="2">  1       21 0.81357160E-01 0.20422670E+03</pdfrwt>
<totfact> 0.55972323E+04</totfact>
</mgrwt>
</event>
<event>
12    1  0.1026879E-001  0.2197420E+03  0.7546771E-02  0.1134240E+00
         21   -1    0    0  501  502  0.00000000000E+00  0.00000000000E+00  0.65447476112E+03  0.65447476112E+03  0.00000000000E+00 0.  1.
         21   -1    0    0  502  503 -0.00000000000E+00 -0.00000000000E+00 -0.28909230563E+03  0.28909230563E+03  0.00000000000E+00 0. -1.
         -6    2    1    2    0  503  0.13506461681E+03 -0.10827860524E+02 -0.22464968556E+03  0.31425155646E+03  0.17299383295E+03 0.  0.
        -24    2    3    3    0    0  0.58037849337E+02 -0.63656547702E+02 -0.80651394875E+02  0.14254951565E+03  0.79969799905E+02 0.  0.
          6    2    1    2  501    0 -0.13506461681E+03  0.10827860524E+02  0.59003214105E+03  0.62931551029E+03  0.17187318215E+03 0.  0.
         24    2    5    5    0    0 -0.93868103953E+02  0.40530201939E+02  0.54703290447E+03  0.56260414617E+03  0.82610583459E+02 0.  0.
          5    1    5    5  501    0 -0.41196512854E+02 -0.29702341415E+02  0.42999236572E+02  0.66711364119E+02  0.47000000000E+01 0. -1.
        -13    1    6    6    0    0  0.14890335067E+02  0.72994130301E+01  0.98076050219E+02  0.99468161416E+02  0.00000000000E+00 0.  1.
         14    1    6    6    0    0 -0.10875843902E+03  0.33230788909E+02  0.44895685426E+03  0.46313598475E+03  0.00000000000E+00 0. -1.
         -5    1    3    3    0  503  0.77026767470E+02  0.52828687178E+02 -0.14399829069E+03  0.17170204081E+03  0.47000000000E+01 0.  1.
         11    1    4    4    0    0  0.67392703906E+02 -0.43093607557E+02 -0.87875621829E+02  0.11883164757E+03  0.00000000000E+00 0. -1.
        -12    1    4    4    0    0 -0.93548545693E+01 -0.20562940145E+02  0.72242269541E+01  0.23717868085E+02  0.00000000000E+00 0.  1.
<mgrwt>
<rscale>  2 0.21952141E+03</rscale>
<asrwt>0</asrwt>
<pdfrwt beam="1">  1       21 0.10068842E+00 0.21974203E+03</pdfrwt>
<pdfrwt beam="2">  1       21 0.44475739E-01 0.21974203E+03</pdfrwt>
<totfact> 0.38367710E+03</totfact>
</mgrwt>
</event>
<event>
12    1  0.1026879E-001  0.1906717E+03  0.7546771E-02  0.1158060E+00
         21   -1    0    0  503  502  0.00000000000E+00  0.00000000000E+00  0.64008133863E+02  0.64008133863E+02  0.00000000000E+00 0. -1.
         21   -1    0    0  501  503 -0.00000000000E+00 -0.00000000000E+00 -0.72496226172E+03  0.72496226172E+03  0.00000000000E+00 0.  1.
          6    2    1    2  501    0  0.40887019051E+02 -0.68716336559E+02 -0.51621820693E+03  0.55030620475E+03  0.17309534537E+03 0.  0.
         24    2    3    3    0    0 -0.27233096857E+02 -0.39808464075E+02 -0.41079904063E+03  0.42142134953E+03  0.80707785745E+02 0.  0.
         -6    2    1    2    0  502 -0.40887019051E+02  0.68716336559E+02 -0.14473592094E+03  0.23866419084E+03  0.17210004631E+03 0.  0.
        -24    2    5    5    0    0 -0.84683130985E+02  0.79031721722E+02 -0.83823187054E+02  0.16278957228E+03  0.77825911138E+02 0.  0.
          5    1    3    3  501    0  0.68120115908E+02 -0.28907872483E+02 -0.10541916629E+03  0.12888485522E+03  0.47000000000E+01 0. -1.
        -13    1    4    4    0    0  0.17101390211E+02 -0.37424915003E+02 -0.28631701650E+03  0.28925856210E+03  0.00000000000E+00 0.  1.
         14    1    4    4    0    0 -0.44334487068E+02 -0.23835490730E+01 -0.12448202413E+03  0.13216278743E+03  0.00000000000E+00 0. -1.
         -5    1    5    5    0  502  0.43796111934E+02 -0.10315385164E+02 -0.60912733881E+02  0.75874618553E+02  0.47000000000E+01 0.  1.
         11    1    6    6    0    0  0.11062297321E+02  0.29853164916E+02 -0.21411710699E+02  0.38367267724E+02  0.00000000000E+00 0. -1.
        -12    1    6    6    0    0 -0.95745428307E+02  0.49178556807E+02 -0.62411476355E+02  0.12442230456E+03  0.00000000000E+00 0.  1.
<mgrwt>
<rscale>  2 0.19044548E+03</rscale>
<asrwt>0</asrwt>
<pdfrwt beam="1">  1       21 0.98474053E-02 0.19067166E+03</pdfrwt>
<pdfrwt beam="2">  1       21 0.11153266E+00 0.19067166E+03</pdfrwt>
<totfact> 0.52713131E+04</totfact>
</mgrwt>
</event>
<event>
12    1  0.1026879E-001  0.2346833E+03  0.7546771E-02  0.1123501E+00
         21   -1    0    0  503  502  0.00000000000E+00  0.00000000000E+00  0.84778887858E+02  0.84778887858E+02  0.00000000000E+00 0. -1.
         21   -1    0    0  501  503 -0.00000000000E+00 -0.00000000000E+00 -0.64938985089E+03  0.64938985089E+03  0.00000000000E+00 0.  1.
          6    2    1    2  501    0  0.13865838581E+03 -0.76088619970E+02 -0.30007151732E+03  0.38053423866E+03  0.17247540474E+03 0.  0.
         24    2    3    3    0    0  0.30800273032E+02 -0.88464969793E+02 -0.12797288760E+03  0.17699904544E+03  0.78593221255E+02 0.  0.
         -6    2    1    2    0  502 -0.13865838581E+03  0.76088619970E+02 -0.26453944571E+03  0.35363450009E+03  0.17337997368E+03 0.  0.
        -24    2    5    5    0    0 -0.78129188184E+02 -0.18312531645E+02 -0.18164105715E+03  0.21410101301E+03  0.80039060881E+02 0.  0.
          5    1    3    3  501    0  0.10785811278E+03  0.12376349823E+02 -0.17209862972E+03  0.20353519321E+03  0.47000000000E+01 0. -1.
        -11    1    4    4    0    0  0.94114494346E+01  0.11250134927E+02 -0.38973432158E+02  0.41642158092E+02  0.00000000000E+00 0.  1.
         12    1    4    4    0    0  0.21388823598E+02 -0.99715104720E+02 -0.88999455446E+02  0.13535688735E+03  0.00000000000E+00 0. -1.
         -5    1    5    5    0  502 -0.60529197625E+02  0.94401151614E+02 -0.82898388563E+02  0.13953348708E+03  0.47000000000E+01 0.  1.
         13    1    6    6    0    0 -0.96041814334E+01  0.26995231821E+02 -0.29055164681E+02  0.40806683726E+02  0.00000000000E+00 0. -1.
        -14    1    6    6    0    0 -0.68525006750E+02 -0.45307763466E+02 -0.15258589247E+03  0.17329432928E+03  0.00000000000E+00 0.  1.
<mgrwt>
<rscale>  2 0.23451623E+03</rscale>
<asrwt>0</asrwt>
<pdfrwt beam="1">  1       21 0.13042906E-01 0.23468328E+03</pdfrwt>
<pdfrwt beam="2">  1       21 0.99906133E-01 0.23468328E+03</pdfrwt>
<totfact> 0.40701309E+04</totfact>
</mgrwt>
</event>
<event>
12    1  0.1026879E-001  0.2018876E+03  0.7546771E-02  0.1148419E+00
         21   -1    0    0  503  502  0.00000000000E+00  0.00000000000E+00  0.12894740199E+03  0.12894740199E+03  0.00000000000E+00 0.  1.
         21   -1    0    0  501  503 -0.00000000000E+00 -0.00000000000E+00 -0.31436521924E+03  0.31436521924E+03  0.00000000000E+00 0. -1.
          6    2    1    2  501    0 -0.10205557439E+03  0.10288245570E+01 -0.98587744183E+02  0.22354443784E+03  0.17273150738E+03 0.  0.
         24    2    3    3    0    0 -0.12958320058E+03 -0.29553182087E+02 -0.92695192863E+02  0.18171333105E+03  0.82232228829E+02 0.  0.
         -6    2    1    2    0  502  0.10205557439E+03 -0.10288245570E+01 -0.86830073069E+02  0.21976818339E+03  0.17419010906E+03 0.  0.
        -24    2    5    5    0    0  0.41491614005E+02 -0.64853437006E+02 -0.47976891104E+02  0.12347054998E+03  0.83759610237E+02 0.  0.
          5    1    3    3  501    0  0.27527626189E+02  0.30582006644E+02 -0.58925513197E+01  0.41831106788E+02  0.47000000000E+01 0. -1.
        -11    1    4    4    0    0 -0.78585522929E+02 -0.53611267696E+02 -0.35896295652E+02  0.10167790556E+03  0.00000000000E+00 0.  1.
         12    1    4    4    0    0 -0.50997677649E+02  0.24058085608E+02 -0.56798897212E+02  0.80035425489E+02  0.00000000000E+00 0. -1.
         -5    1    5    5    0  502  0.60563960384E+02  0.63824612449E+02 -0.38853181965E+02  0.96297633410E+02  0.47000000000E+01 0.  1.
         13    1    6    6    0    0  0.36291999882E+02 -0.34538076201E+02  0.15909738619E+02  0.52565271292E+02  0.00000000000E+00 0. -1.
        -14    1    6    6    0    0  0.51996141236E+01 -0.30315360805E+02 -0.63886629723E+02  0.70905278683E+02  0.00000000000E+00 0.  1.
<mgrwt>
<rscale>  2 0.20157255E+03</rscale>
<asrwt>0</asrwt>
<pdfrwt beam="1">  1       21 0.19838062E-01 0.20188757E+03</pdfrwt>
<pdfrwt beam="2">  1       21 0.48363880E-01 0.20188757E+03</pdfrwt>
<totfact> 0.95337859E+04</totfact>
</mgrwt>
</event>
<event>
12    1  0.1026879E-001  0.1891957E+03  0.7546771E-02  0.1159396E+00
         21   -1    0    0  503  502  0.00000000000E+00  0.00000000000E+00  0.31773276747E+03  0.31773276747E+03  0.00000000000E+00 0.  1.
         21   -1    0    0  501  503 -0.00000000000E+00 -0.00000000000E+00 -0.14674185482E+03  0.14674185482E+03  0.00000000000E+00 0.  1.
          6    2    1    2  501    0  0.88949657597E+01  0.77180374655E+02 -0.27476900874E+02  0.19027669345E+03  0.17150600381E+03 0.  0.
         24    2    3    3    0    0  0.40133530547E+01  0.59952074136E+01 -0.73019184098E+02  0.10549846665E+03  0.75802873989E+02 0.  0.
         -6    2    1    2    0  502 -0.88949657597E+01 -0.77180374655E+02  0.19846781352E+03  0.27419792884E+03  0.17250826221E+03 0.  0.
        -24    2    5    5    0    0 -0.48671803104E+02 -0.14582421336E+02  0.16842335431E+03  0.19403896129E+03  0.81872466644E+02 0.  0.
          5    1    3    3  501    0  0.48816127050E+01  0.71185167242E+02  0.45542283224E+02  0.84778226799E+02  0.47000000000E+01 0. -1.
        -13    1    4    4    0    0  0.21450156104E+02  0.72789102286E+00  0.76601158871E+01  0.22788514599E+02  0.00000000000E+00 0.  1.
         14    1    4    4    0    0 -0.17436803050E+02  0.52673163907E+01 -0.80679299985E+02  0.82709952053E+02  0.00000000000E+00 0. -1.
         -5    1    5    5    0  502  0.39776837344E+02 -0.62597953319E+02  0.30044459208E+02  0.80158967546E+02  0.47000000000E+01 0.  1.
         11    1    6    6    0    0 -0.76558406227E+01 -0.32886682864E+02  0.13188528247E+03  0.13613916974E+03  0.00000000000E+00 0. -1.
        -12    1    6    6    0    0 -0.41015962481E+02  0.18304261528E+02  0.36538071839E+02  0.57899791555E+02  0.00000000000E+00 0.  1.
<mgrwt>
<rscale>  2 0.18896698E+03</rscale>
<asrwt>0</asrwt>
<pdfrwt beam="1">  1       21 0.48881964E-01 0.18919575E+03</pdfrwt>
<pdfrwt beam="2">  1       21 0.22575670E-01 0.18919575E+03</pdfrwt>
<totfact> 0.73537537E+04</totfact>
</mgrwt>
</event>
<event>
12    1  0.1026879E-001  0.2019343E+03  0.7546771E-02  0.1148477E+00
         21   -1    0    0  503  502  0.00000000000E+00  0.00000000000E+00  0.22958782665E+02  0.22958782665E+02  0.00000000000E+00 0.  1.
         21   -1    0    0  501  503 -0.00000000000E+00 -0.00000000000E+00 -0.17919761362E+04  0.17919761362E+04  0.00000000000E+00 0. -1.
          6    2    1    2  501    0  0.96917115998E+01  0.10251333224E+03 -0.76896975702E+03  0.79504211656E+03  0.17370828227E+03 0.  0.
         24    2    3    3    0    0  0.13075325741E+00  0.12695790442E+03 -0.74460487473E+03  0.75892167189E+03  0.73534740102E+02 0.  0.
         -6    2    1    2    0  502 -0.96917115998E+01 -0.10251333224E+03 -0.10000475965E+04  0.10198928023E+04  0.17170678596E+03 0.  0.
        -24    2    5    5    0    0 -0.60350433678E+02 -0.37797190087E+02 -0.39864897187E+03  0.41288631066E+03  0.80518943946E+02 0.  0.
          5    1    3    3  501    0  0.95609583424E+01 -0.24444572188E+02 -0.24364882287E+02  0.36120444664E+02  0.47000000000E+01 0. -1.
        -11    1    4    4    0    0  0.20589993742E+02  0.11953159941E+03 -0.55668300003E+03  0.56974355075E+03  0.00000000000E+00 0.  1.
         12    1    4    4    0    0 -0.20459240484E+02  0.74263050151E+01 -0.18792187470E+03  0.18917812114E+03  0.00000000000E+00 0. -1.
         -5    1    5    5    0  502  0.50658722079E+02 -0.64716142150E+02 -0.60139862464E+03  0.60700649164E+03  0.47000000000E+01 0.  1.
         13    1    6    6    0    0 -0.30366712738E+02  0.14781981828E+02 -0.25176257279E+03  0.25401778931E+03  0.00000000000E+00 0. -1.
        -14    1    6    6    0    0 -0.29983720940E+02 -0.52579171915E+02 -0.14688639908E+03  0.15886852135E+03  0.00000000000E+00 0.  1.
<mgrwt>
<rscale>  2 0.20150318E+03</rscale>
<asrwt>0</asrwt>
<pdfrwt beam="1">  1       21 0.35321210E-02 0.20193435E+03</pdfrwt>
<pdfrwt beam="2">  1       21 0.27568859E+00 0.20193435E+03</pdfrwt>
<totfact> 0.22543055E+04</totfact>
</mgrwt>
</event>
<event>
12    1  0.1026879E-001  0.1813338E+03  0.7546771E-02  0.1166660E+00
         21   -1    0    0  501  502  0.00000000000E+00  0.00000000000E+00  0.71529869499E+03  0.71529869499E+03  0.00000000000E+00 0.  1.
         21   -1    0    0  502  503 -0.00000000000E+00 -0.00000000000E+00 -0.74278939221E+02  0.74278939221E+02  0.00000000000E+00 0.  1.
         -6    2    1    2    0  503  0.38951924456E+02 -0.38848445389E+02  0.76466830818E+02  0.19679719918E+03  0.17278746269E+03 0.  0.
        -24    2    3    3    0    0 -0.38146071684E+02 -0.85232953441E+01  0.81589814294E+01  0.89318047609E+02  0.79896028076E+02 0.  0.
          6    2    1    2  501    0 -0.38951924456E+02  0.38848445389E+02  0.56455292495E+03  0.59278043503E+03  0.17216905923E+03 0.  0.
         24    2    5    5    0    0 -0.29478149025E+02  0.87049555234E+02  0.30423825806E+03  0.32782965619E+03  0.80403852350E+02 0.  0.
          5    1    5    5  501    0 -0.94737754310E+01 -0.48201109844E+02  0.26031466690E+03  0.26495077885E+03  0.47000000000E+01 0. -1.
        -13    1    6    6    0    0 -0.25814596971E+02  0.62132409458E+01  0.16219741328E+03  0.16435631614E+03  0.00000000000E+00 0.  1.
         14    1    6    6    0    0 -0.36635520539E+01  0.80836314288E+02  0.14204084478E+03  0.16347334005E+03  0.00000000000E+00 0. -1.
         -5    1    3    3    0  503  0.77097996140E+02 -0.30325150045E+02  0.68307849388E+02  0.10747915157E+03  0.47000000000E+01 0.  1.
         13    1    4    4    0    0 -0.32391490181E+02 -0.37640813179E+02 -0.14773435297E+02  0.51810171235E+02  0.00000000000E+00 0. -1.
        -14    1    4    4    0    0 -0.57545815029E+01  0.29117517835E+02  0.22932416727E+02  0.37507876374E+02  0.00000000000E+00 0.  1.
<mgrwt>
<rscale>  2 0.18118637E+03</rscale>
<asrwt>0</asrwt>
<pdfrwt beam="1">  1       21 0.11004595E+00 0.18133384E+03</pdfrwt>
<pdfrwt beam="2">  1       21 0.11427530E-01 0.18133384E+03</pdfrwt>
<totfact> 0.42030921E+04</totfact>
</mgrwt>
</event>
<event>
12    1  0.1026879E-001  0.2507644E+03  0.7546771E-02  0.1113523E+00
         21   -1    0    0  501  502  0.00000000000E+00  0.00000000000E+00  0.74859725651E+03  0.74859725651E+03  0.00000000000E+00 0.  1.
         21   -1    0    0  502  503 -0.00000000000E+00 -0.00000000000E+00 -0.12026548895E+03  0.12026548895E+03  0.00000000000E+00 0. -1.
         -6    2    1    2    0  503  0.17031801444E+03  0.62091162222E+02  0.55941686145E+03  0.61304974350E+03  0.17326056869E+03 0.  0.
        -24    2    3    3    0    0  0.69377475669E+02  0.74085073859E+02  0.42574444195E+03  0.44505196965E+03  0.80691347376E+02 0.  0.
          6    2    1    2  501    0 -0.17031801444E+03 -0.62091162222E+02  0.68914906106E+02  0.25581300196E+03  0.16681573434E+03 0.  0.
         24    2    5    5    0    0 -0.17532822651E+03 -0.92643210640E+02  0.67203628165E+02  0.22445142739E+03  0.80866334974E+02 0.  0.
          5    1    5    5  501    0  0.50102120696E+01  0.30552048418E+02  0.17112779419E+01  0.31361574573E+02  0.47000000000E+01 0. -1.
        -13    1    6    6    0    0 -0.14796137132E+02 -0.35931880554E+02 -0.56432356597E+01  0.39266675730E+02  0.00000000000E+00 0.  1.
         14    1    6    6    0    0 -0.16053208937E+03 -0.56711330086E+02  0.72846863824E+02  0.18518475166E+03  0.00000000000E+00 0. -1.
         -5    1    3    3    0  503  0.10094053877E+03 -0.11993911636E+02  0.13367241950E+03  0.16799777385E+03  0.47000000000E+01 0.  1.
         11    1    4    4    0    0  0.19059813538E+02  0.22689657241E+02  0.27707007088E+02  0.40568155979E+02  0.00000000000E+00 0. -1.
        -12    1    4    4    0    0  0.50317662131E+02  0.51395416617E+02  0.39803743486E+03  0.40448381367E+03  0.00000000000E+00 0.  1.
<mgrwt>
<rscale>  2 0.24965480E+03</rscale>
<asrwt>0</asrwt>
<pdfrwt beam="1">  1       21 0.11516881E+00 0.25076436E+03</pdfrwt>
<pdfrwt beam="2">  1       21 0.18502383E-01 0.25076436E+03</pdfrwt>
<totfact> 0.15048482E+04</totfact>
</mgrwt>
</event>
<event>
12    1  0.1026879E-001  0.1952410E+03  0.7546771E-02  0.1155218E+00
         21   -1    0    0  501  502  0.00000000000E+00  0.00000000000E+00  0.46099994257E+03  0.46099994257E+03  0.00000000000E+00 0. -1.
         21   -1    0    0  502  503 -0.00000000000E+00 -0.00000000000E+00 -0.12032857089E+03  0.12032857089E+03  0.00000000000E+00 0.  1.
         -6    2    1    2    0  503 -0.56906758949E+02 -0.48644654879E+02  0.40090674554E+01  0.19528220408E+03  0.18031745602E+03 0.  0.
        -24    2    3    3    0    0  0.17050018625E+02  0.36422989215E+02 -0.17140672809E+02  0.80497577344E+02  0.67592307369E+02 0.  0.
          6    2    1    2  501    0  0.56906758949E+02  0.48644654879E+02  0.33666230423E+03  0.38604630938E+03  0.17345190755E+03 0.  0.
         24    2    5    5    0    0 -0.34171373130E+02  0.22745767070E+02  0.11892784049E+03  0.14856712032E+03  0.79014589395E+02 0.  0.
          5    1    5    5  501    0  0.91078132079E+02  0.25898887809E+02  0.21773446374E+03  0.23747918905E+03  0.47000000000E+01 0. -1.
        -13    1    6    6    0    0 -0.24074986197E+02 -0.26382000148E+02  0.30777052129E+02  0.47147023553E+02  0.00000000000E+00 0.  1.
         14    1    6    6    0    0 -0.10096386933E+02  0.49127767218E+02  0.88150788356E+02  0.10142009677E+03  0.00000000000E+00 0. -1.
         -5    1    3    3    0  503 -0.73956777574E+02 -0.85067644094E+02  0.21149740264E+02  0.11478462673E+03  0.47000000000E+01 0.  1.
         13    1    4    4    0    0  0.22650819618E+02 -0.11660346215E+02 -0.19422736446E+02  0.32035386594E+02  0.00000000000E+00 0. -1.
        -14    1    4    4    0    0 -0.56008009928E+01  0.48083335430E+02  0.22820636370E+01  0.48462190750E+02  0.00000000000E+00 0.  1.
<mgrwt>
<rscale>  2 0.19364088E+03</rscale>
<asrwt>0</asrwt>
<pdfrwt beam="1">  1       21 0.70923067E-01 0.19524105E+03</pdfrwt>
<pdfrwt beam="2">  1       21 0.18512088E-01 0.19524105E+03</pdfrwt>
<totfact> 0.47921195E+04</totfact>
</mgrwt>
</event>
<event>
12    1  0.1026879E-001  0.1858957E+03  0.7546771E-02  0.1162663E+00
         21   -1    0    0  503  502  0.00000000000E+00  0.00000000000E+00  0.14205001879E+04  0.14205001879E+04  0.00000000000E+00 0.  1.
         21   -1    0    0  501  503 -0.00000000000E+00 -0.00000000000E+00 -0.24718275271E+02  0.24718275271E+02  0.00000000000E+00 0.  1.
          6    2    1    2  501    0  0.66995344432E+02 -0.56201527904E+01  0.57804227227E+03  0.60661525673E+03  0.17125781404E+03 0.  0.
         24    2    3    3    0    0  0.32731247264E+02 -0.36789846259E+02  0.53407106502E+03  0.54257515045E+03  0.82043062181E+02 0.  0.
         -6    2    1    2    0  502 -0.66995344432E+02  0.56201527904E+01  0.81773964037E+03  0.83860320646E+03  0.17331259664E+03 0.  0.
        -24    2    5    5    0    0 -0.37173906541E+02  0.46121452798E+02  0.25875538661E+03  0.27734109353E+03  0.80340801108E+02 0.  0.
          5    1    3    3  501    0  0.34264097169E+02  0.31169693468E+02  0.43971207252E+02  0.64040106284E+02  0.47000000000E+01 0. -1.
        -13    1    4    4    0    0  0.42334461851E+02 -0.58160155204E+02  0.42110216520E+03  0.42720234532E+03  0.00000000000E+00 0.  1.
         14    1    4    4    0    0 -0.96032145868E+01  0.21370308945E+02  0.11296889982E+03  0.11537280513E+03  0.00000000000E+00 0. -1.
         -5    1    5    5    0  502 -0.29821437891E+02 -0.40501300007E+02  0.55898425376E+03  0.56126211293E+03  0.47000000000E+01 0.  1.
         11    1    6    6    0    0 -0.37736841669E+00 -0.47670945409E+01  0.16151422581E+03  0.16158500159E+03  0.00000000000E+00 0. -1.
        -12    1    6    6    0    0 -0.36796538124E+02  0.50888547339E+02  0.97241160798E+02  0.11575609194E+03  0.00000000000E+00 0.  1.
<mgrwt>
<rscale>  2 0.18541531E+03</rscale>
<asrwt>0</asrwt>
<pdfrwt beam="1">  1       21 0.21853843E+00 0.18589572E+03</pdfrwt>
<pdfrwt beam="2">  1       21 0.38028127E-02 0.18589572E+03</pdfrwt>
<totfact> 0.44009319E+04</totfact>
</mgrwt>
</event>
<event>
12    1  0.1026879E-001  0.3029286E+03  0.7546771E-02  0.1083815E+00
         21   -1    0    0  501  502  0.00000000000E+00  0.00000000000E+00  0.50507019541E+03  0.50507019541E+03  0.00000000000E+00 0.  1.
         21   -1    0    0  502  503 -0.00000000000E+00 -0.00000000000E+00 -0.20760787656E+03  0.20760787656E+03  0.00000000000E+00 0.  1.
         -6    2    1    2    0  503 -0.22317623427E+03 -0.11015811906E+03  0.22525713444E+02  0.30376494745E+03  0.17269421762E+03 0.  0.
        -24    2    3    3    0    0 -0.13270791781E+03 -0.12215324045E+03 -0.27656778787E+02  0.19951154585E+03  0.80666931963E+02 0.  0.
          6    2    1    2  501    0  0.22317623427E+03  0.11015811906E+03  0.27493660541E+03  0.40891312451E+03  0.17227119222E+03 0.  0.
         24    2    5    5    0    0  0.13036180111E+03  0.10193785517E+03  0.25355614455E+03  0.31319841379E+03  0.80106194896E+02 0.  0.
          5    1    5    5  501    0  0.92814433160E+02  0.82202638886E+01  0.21380460862E+02  0.95714710718E+02  0.47000000000E+01 0. -1.
        -11    1    6    6    0    0  0.71277189162E+02  0.15970855466E+02  0.65318555191E+02  0.97989895252E+02  0.00000000000E+00 0.  1.
         12    1    6    6    0    0  0.59084611948E+02  0.85966999702E+02  0.18823758936E+03  0.21520851854E+03  0.00000000000E+00 0. -1.
         -5    1    3    3    0  503 -0.90468316459E+02  0.11995121389E+02  0.50182492230E+02  0.10425340161E+03  0.47000000000E+01 0.  1.
         13    1    4    4    0    0  0.10601775805E+02 -0.10416268959E+02 -0.75803959085E+01  0.16684085572E+02  0.00000000000E+00 0. -1.
        -14    1    4    4    0    0 -0.14330969362E+03 -0.11173697149E+03 -0.20076382878E+02  0.18282746028E+03  0.00000000000E+00 0.  1.
<mgrwt>
<rscale>  2 0.30286834E+03</rscale>
<asrwt>0</asrwt>
<pdfrwt beam="1">  1       21 0.77703107E-01 0.30292860E+03</pdfrwt>
<pdfrwt beam="2">  1       21 0.31939673E-01 0.30292860E+03</pdfrwt>
<totfact> 0.13049413E+04</totfact>
</mgrwt>
</event>
<event>
12    1  0.1026879E-001  0.2028403E+03  0.7546771E-02  0.1148856E+00
         21   -1    0    0  503  502  0.00000000000E+00  0.00000000000E+00  0.11701136892E+03  0.11701136892E+03  0.00000000000E+00 0. -1.
         21   -1    0    0  501  503 -0.00000000000E+00 -0.00000000000E+00 -0.40620287437E+03  0.40620287437E+03  0.00000000000E+00 0.  1.
          6    2    1    2  501    0  0.31187624465E+02  0.10087128725E+03 -0.24846299832E+03  0.31632537486E+03  0.16486417663E+03 0.  0.
         24    2    3    3    0    0  0.31040839253E+02  0.83332901204E+02 -0.72728375875E+02  0.13965516216E+03  0.79411847576E+02 0.  0.
         -6    2    1    2    0  502 -0.31187624465E+02 -0.10087128725E+03 -0.40728507141E+02  0.20688886843E+03  0.17319500014E+03 0.  0.
        -24    2    5    5    0    0  0.96897744403E+01 -0.43151613170E+02  0.36386104259E+02  0.10214501034E+03  0.84579554890E+02 0.  0.
          5    1    3    3  501    0  0.14678521192E+00  0.17538386044E+02 -0.17573462244E+03  0.17667021270E+03  0.47000000000E+01 0. -1.
        -11    1    4    4    0    0  0.64545136929E+01  0.79253345019E+02 -0.21009291023E+02  0.82244414722E+02  0.00000000000E+00 0.  1.
         12    1    4    4    0    0  0.24586325560E+02  0.40795561851E+01 -0.51719084853E+02  0.57410747436E+02  0.00000000000E+00 0. -1.
         -5    1    5    5    0  502 -0.40877398905E+02 -0.57719674078E+02 -0.77114611400E+02  0.10474385809E+03  0.47000000000E+01 0.  1.
         11    1    6    6    0    0 -0.22443085942E+00 -0.62896743397E+02  0.41104201024E+01  0.63031311684E+02  0.00000000000E+00 0. -1.
        -12    1    6    6    0    0  0.99142052997E+01  0.19745130228E+02  0.32275684156E+02  0.39113698651E+02  0.00000000000E+00 0.  1.
<mgrwt>
<rscale>  2 0.20105045E+03</rscale>
<asrwt>0</asrwt>
<pdfrwt beam="1">  1       21 0.18001749E-01 0.20284031E+03</pdfrwt>
<pdfrwt beam="2">  1       21 0.62492751E-01 0.20284031E+03</pdfrwt>
<totfact> 0.66318736E+04</totfact>
</mgrwt>
</event>
<event>
12    1  0.1026879E-001  0.2025157E+03  0.7546771E-02  0.1147690E+00
         21   -1    0    0  501  502  0.00000000000E+00  0.00000000000E+00  0.18854480466E+03  0.18854480466E+03  0.00000000000E+00 0. -1.
         21   -1    0    0  502  503 -0.00000000000E+00 -0.00000000000E+00 -0.63044908260E+03  0.63044908260E+03  0.00000000000E+00 0. -1.
         -6    2    1    2    0  503 -0.51986759805E+02 -0.90150827094E+02 -0.55252767876E+03  0.58847213308E+03  0.17373203733E+03 0.  0.
        -24    2    3    3    0    0 -0.77786944867E+02 -0.32331652184E+01 -0.29925623979E+03  0.31942038844E+03  0.80086361821E+02 0.  0.
          6    2    1    2  501    0  0.51986759805E+02  0.90150827094E+02  0.11062340081E+03  0.23052175418E+03  0.17341553425E+03 0.  0.
         24    2    5    5    0    0 -0.12967958360E+02  0.38417639447E+02 -0.16008475995E+01  0.90837073386E+02  0.81269479041E+02 0.  0.
          5    1    5    5  501    0  0.64954718165E+02  0.51733187647E+02  0.11222424841E+03  0.13968468079E+03  0.47000000000E+01 0. -1.
        -11    1    6    6    0    0  0.95091509600E+00  0.52460105958E+02  0.24652147041E+02  0.57971504296E+02  0.00000000000E+00 0.  1.
         12    1    6    6    0    0 -0.13918873456E+02 -0.14042466511E+02 -0.26252994640E+02  0.32865569090E+02  0.00000000000E+00 0. -1.
         -5    1    3    3    0  503  0.25800185062E+02 -0.86917661875E+02 -0.25327143896E+03  0.26905174463E+03  0.47000000000E+01 0.  1.
         11    1    4    4    0    0 -0.90453665908E+02 -0.13349621079E+02 -0.27824271041E+03  0.29288066504E+03  0.00000000000E+00 0. -1.
        -12    1    4    4    0    0  0.12666721042E+02  0.10116455861E+02 -0.21013529382E+02  0.26539723402E+02  0.00000000000E+00 0.  1.
<mgrwt>
<rscale>  2 0.20244782E+03</rscale>
<asrwt>0</asrwt>
<pdfrwt beam="1">  1       21 0.29006893E-01 0.20251572E+03</pdfrwt>
<pdfrwt beam="2">  1       21 0.96992167E-01 0.20251572E+03</pdfrwt>
<totfact> 0.99690309E+03</totfact>
</mgrwt>
</event>
<event>
12    1  0.1026879E-001  0.1813375E+03  0.7546771E-02  0.1166521E+00
         21   -1    0    0  503  502  0.00000000000E+00  0.00000000000E+00  0.72312209629E+03  0.72312209629E+03  0.00000000000E+00 0.  1.
         21   -1    0    0  501  503 -0.00000000000E+00 -0.00000000000E+00 -0.46310272520E+02  0.46310272520E+02  0.00000000000E+00 0.  1.
          6    2    1    2  501    0 -0.32392762819E+02 -0.42236051493E+02  0.28654614009E+03  0.33910466209E+03  0.17334966490E+03 0.  0.
         24    2    3    3    0    0 -0.35844898484E+02  0.14686499327E+02  0.83558895831E+02  0.12820656972E+03  0.89186800802E+02 0.  0.
         -6    2    1    2    0  502  0.32392762819E+02  0.42236051493E+02  0.39026568368E+03  0.43032770672E+03  0.17332471314E+03 0.  0.
        -24    2    5    5    0    0 -0.14614784376E+02  0.12701187252E+02  0.35661360270E+03  0.36523876562E+03  0.76493020612E+02 0.  0.
          5    1    3    3  501    0  0.34521356658E+01 -0.56922550820E+02  0.20298724426E+03  0.21089809237E+03  0.47000000000E+01 0. -1.
        -13    1    4    4    0    0 -0.16431358923E+02 -0.16937564808E+02 -0.11434651977E+02  0.26222546091E+02  0.00000000000E+00 0.  1.
         14    1    4    4    0    0 -0.19413539562E+02  0.31624064135E+02  0.94993547808E+02  0.10198402363E+03  0.00000000000E+00 0. -1.
         -5    1    5    5    0  502  0.47007547195E+02  0.29534864241E+02  0.33652080979E+02  0.65088941098E+02  0.47000000000E+01 0.  1.
         11    1    6    6    0    0 -0.44616337087E+02 -0.36002318565E+01  0.20232409258E+03  0.20721635467E+03  0.00000000000E+00 0. -1.
        -12    1    6    6    0    0  0.30001552710E+02  0.16301419109E+02  0.15428951012E+03  0.15802241096E+03  0.00000000000E+00 0.  1.
<mgrwt>
<rscale>  2 0.18133152E+03</rscale>
<asrwt>0</asrwt>
<pdfrwt beam="1">  1       21 0.11124955E+00 0.18133748E+03</pdfrwt>
<pdfrwt beam="2">  1       21 0.71246578E-02 0.18133748E+03</pdfrwt>
<totfact> 0.93693395E+04</totfact>
</mgrwt>
</event>
<event>
12    1  0.1026879E-001  0.1799668E+03  0.7546771E-02  0.1168011E+00
         21   -1    0    0  501  502  0.00000000000E+00  0.00000000000E+00  0.18919198139E+03  0.18919198139E+03  0.00000000000E+00 0.  1.
         21   -1    0    0  502  503 -0.00000000000E+00 -0.00000000000E+00 -0.18426276313E+03  0.18426276313E+03  0.00000000000E+00 0.  1.
         -6    2    1    2    0  503 -0.47514435306E+02 -0.40630955136E+00  0.53487751783E+02  0.18705199329E+03  0.17282859125E+03 0.  0.
        -24    2    3    3    0    0 -0.76317445288E+02 -0.42341029474E+02  0.92054258873E+01  0.11944172405E+03  0.81021419065E+02 0.  0.
          6    2    1    2  501    0  0.47514435306E+02  0.40630955136E+00 -0.48558533527E+02  0.18640275123E+03  0.17358072427E+03 0.  0.
         24    2    5    5    0    0  0.51959871140E+02  0.62014535850E+02 -0.20915442471E+02  0.11856790819E+03  0.84114578119E+02 0.  0.
          5    1    5    5  501    0 -0.44454358345E+01 -0.61608226298E+02 -0.27643091056E+02  0.67834843042E+02  0.47000000000E+01 0. -1.
        -11    1    6    6    0    0  0.17326954725E+02  0.17729302598E+02 -0.49602557025E+02  0.55452368697E+02  0.00000000000E+00 0.  1.
         12    1    6    6    0    0  0.34632916415E+02  0.44285233251E+02  0.28687114554E+02  0.63115539488E+02  0.00000000000E+00 0. -1.
         -5    1    3    3    0  503  0.28803009982E+02  0.41934719923E+02  0.44282325896E+02  0.67610269233E+02  0.47000000000E+01 0.  1.
         11    1    4    4    0    0  0.42664220978E+01  0.17520709783E+02  0.60024339235E+01  0.19005442427E+02  0.00000000000E+00 0. -1.
        -12    1    4    4    0    0 -0.80583867386E+02 -0.59861739258E+02  0.32029919638E+01  0.10043628163E+03  0.00000000000E+00 0.  1.
<mgrwt>
<rscale>  2 0.17978521E+03</rscale>
<asrwt>0</asrwt>
<pdfrwt beam="1">  1       21 0.29106459E-01 0.17996681E+03</pdfrwt>
<pdfrwt beam="2">  1       21 0.28348117E-01 0.17996681E+03</pdfrwt>
<totfact> 0.13501553E+05</totfact>
</mgrwt>
</event>
<event>
12    1  0.1026879E-001  0.1912242E+03  0.7546771E-02  0.1157548E+00
         21   -1    0    0  501  502  0.00000000000E+00  0.00000000000E+00  0.37607632926E+02  0.37607632926E+02  0.00000000000E+00 0.  1.
         21   -1    0    0  502  503 -0.00000000000E+00 -0.00000000000E+00 -0.10045996201E+04  0.10045996201E+04  0.00000000000E+00 0.  1.
         -6    2    1    2    0  503 -0.40174744278E+02  0.70271883478E+02 -0.58181881847E+03  0.61217810346E+03  0.17232743585E+03 0.  0.
        -24    2    3    3    0    0 -0.28918532007E+02  0.86429213368E+01 -0.12690563804E+03  0.15294730852E+03  0.79855222969E+02 0.  0.
          6    2    1    2  501    0  0.40174744278E+02 -0.70271883478E+02 -0.38517316869E+03  0.43002914955E+03  0.17324708338E+03 0.  0.
         24    2    5    5    0    0  0.73608450977E+02 -0.86911787980E+01 -0.16123025511E+03  0.19533250604E+03  0.81644669814E+02 0.  0.
          5    1    5    5  501    0 -0.33433706699E+02 -0.61580704680E+02 -0.22394291357E+03  0.23469664351E+03  0.47000000000E+01 0. -1.
        -13    1    6    6    0    0  0.46594516855E+02 -0.15033668808E+02 -0.16025476783E+03  0.16756685475E+03  0.00000000000E+00 0.  1.
         14    1    6    6    0    0  0.27013934122E+02  0.63424900102E+01 -0.97548728370E+00  0.27765651293E+02  0.00000000000E+00 0. -1.
         -5    1    3    3    0  503 -0.11256212272E+02  0.61628962142E+02 -0.45491318044E+03  0.45923079494E+03  0.47000000000E+01 0.  1.
         13    1    4    4    0    0 -0.24410908701E+02  0.27175964622E+02 -0.12870559758E+03  0.13378922365E+03  0.00000000000E+00 0. -1.
        -14    1    4    4    0    0 -0.45076233061E+01 -0.18533043285E+02  0.17999595490E+01  0.19158084864E+02  0.00000000000E+00 0.  1.
<mgrwt>
<rscale>  2 0.19101567E+03</rscale>
<asrwt>0</asrwt>
<pdfrwt beam="1">  1       21 0.57857893E-02 0.19122421E+03</pdfrwt>
<pdfrwt beam="2">  1       21 0.15455380E+00 0.19122421E+03</pdfrwt>
<totfact> 0.57996706E+04</totfact>
</mgrwt>
</event>
<event>
12    1  0.1026879E-001  0.1765048E+03  0.7546771E-02  0.1172206E+00
         21   -1    0    0  501  502  0.00000000000E+00  0.00000000000E+00  0.11152173485E+04  0.11152173485E+04  0.00000000000E+00 0. -1.
         21   -1    0    0  502  503 -0.00000000000E+00 -0.00000000000E+00 -0.36871551071E+02  0.36871551071E+02  0.00000000000E+00 0. -1.
         -6    2    1    2    0  503 -0.25417145212E+02 -0.27282525431E+02  0.82784837272E+03  0.84565311446E+03  0.16854048268E+03 0.  0.
        -24    2    3    3    0    0 -0.73238622863E+02  0.93895242560E+01  0.48550983613E+03  0.49801897259E+03  0.82770991514E+02 0.  0.
          6    2    1    2  501    0  0.25417145212E+02  0.27282525431E+02  0.25049742471E+03  0.30643578512E+03  0.17252119624E+03 0.  0.
         24    2    5    5    0    0 -0.41460427079E+02  0.25107004851E+02  0.20708903934E+03  0.22653759687E+03  0.78000537653E+02 0.  0.
          5    1    5    5  501    0  0.66877572291E+02  0.21755205797E+01  0.43408385365E+02  0.79898188248E+02  0.47000000000E+01 0. -1.
        -13    1    6    6    0    0  0.47104052517E+01  0.27107732669E+02  0.15273126251E+03  0.15518974076E+03  0.00000000000E+00 0.  1.
         14    1    6    6    0    0 -0.46170832331E+02 -0.20007278176E+01  0.54357776830E+02  0.71347856113E+02  0.00000000000E+00 0. -1.
         -5    1    3    3    0  503  0.47821477651E+02 -0.36672049687E+02  0.34233853660E+03  0.34763414187E+03  0.47000000000E+01 0.  1.
         13    1    4    4    0    0 -0.18166461685E+01  0.24821491454E+02  0.25484019343E+03  0.25605259387E+03  0.00000000000E+00 0. -1.
        -14    1    4    4    0    0 -0.71421976694E+02 -0.15431967198E+02  0.23066964270E+03  0.24196637872E+03  0.00000000000E+00 0.  1.
<mgrwt>
<rscale>  2 0.17552442E+03</rscale>
<asrwt>0</asrwt>
<pdfrwt beam="1">  1       21 0.17157187E+00 0.17650476E+03</pdfrwt>
<pdfrwt beam="2">  1       21 0.56725472E-02 0.17650476E+03</pdfrwt>
<totfact> 0.45600812E+04</totfact>
</mgrwt>
</event>
<event>
12    1  0.1026879E-001  0.2602020E+03  0.7546771E-02  0.1107773E+00
         21   -1    0    0  501  502  0.00000000000E+00  0.00000000000E+00  0.46619450827E+03  0.46619450827E+03  0.00000000000E+00 0.  1.
         21   -1    0    0  502  503 -0.00000000000E+00 -0.00000000000E+00 -0.14551973164E+03  0.14551973164E+03  0.00000000000E+00 0.  1.
         -6    2    1    2    0  503 -0.66125410062E+02 -0.17567843960E+03  0.20606359546E+03  0.33191459566E+03  0.18019325583E+03 0.  0.
        -24    2    3    3    0    0 -0.71872281052E+02 -0.19272375354E+03  0.21771831119E+03  0.30997167762E+03  0.79831747697E+02 0.  0.
          6    2    1    2  501    0  0.66125410062E+02  0.17567843960E+03  0.11461118117E+03  0.27979964424E+03  0.17296425662E+03 0.  0.
         24    2    5    5    0    0 -0.18612784115E+01  0.16519357722E+03  0.10239090404E+03  0.20977431081E+03  0.78923899631E+02 0.  0.
          5    1    5    5  501    0  0.67986688473E+02  0.10484862381E+02  0.12220277137E+02  0.70025333430E+02  0.47000000000E+01 0. -1.
        -11    1    6    6    0    0  0.12080209457E+02  0.93224242273E+02  0.14161590235E+02  0.95064406830E+02  0.00000000000E+00 0.  1.
         12    1    6    6    0    0 -0.13941487869E+02  0.71969334950E+02  0.88229313801E+02  0.11470990398E+03  0.00000000000E+00 0. -1.
         -5    1    3    3    0  503  0.57468709901E+01  0.17045313937E+02 -0.11654715731E+02  0.21942918041E+02  0.47000000000E+01 0.  1.
         13    1    4    4    0    0 -0.94675150228E+01 -0.73993823547E+01  0.52842549893E+02  0.54191510213E+02  0.00000000000E+00 0. -1.
        -14    1    4    4    0    0 -0.62404766029E+02 -0.18532437119E+03  0.16487576129E+03  0.25578016741E+03  0.00000000000E+00 0.  1.
<mgrwt>
<rscale>  2 0.25895486E+03</rscale>
<asrwt>0</asrwt>
<pdfrwt beam="1">  1       21 0.71722231E-01 0.26020202E+03</pdfrwt>
<pdfrwt beam="2">  1       21 0.22387651E-01 0.26020202E+03</pdfrwt>
<totfact> 0.31731626E+04</totfact>
</mgrwt>
</event>
<event>
12    1  0.1026879E-001  0.2386259E+03  0.7546771E-02  0.1122739E+00
         21   -1    0    0  501  502  0.00000000000E+00  0.00000000000E+00  0.40526468339E+03  0.40526468339E+03  0.00000000000E+00 0. -1.
         21   -1    0    0  502  503 -0.00000000000E+00 -0.00000000000E+00 -0.61820059596E+03  0.61820059596E+03  0.00000000000E+00 0. -1.
         -6    2    1    2    0  503  0.14657435481E+03  0.15100820493E+01 -0.56006203642E+03  0.60877893640E+03  0.18829760205E+03 0.  0.
        -24    2    3    3    0    0  0.87436163325E+02  0.31922624769E+02 -0.15119792476E+03  0.19451549335E+03  0.79443867441E+02 0.  0.
          6    2    1    2  501    0 -0.14657435481E+03 -0.15100820493E+01  0.34712612385E+03  0.41468634294E+03  0.17315280918E+03 0.  0.
         24    2    5    5    0    0 -0.99507012720E+02 -0.60028400832E+02  0.28135324782E+03  0.31474691356E+03  0.80005718844E+02 0.  0.
          5    1    5    5  501    0 -0.47067342092E+02  0.58518318782E+02  0.65772876027E+02  0.99939429383E+02  0.47000000000E+01 0. -1.
        -11    1    6    6    0    0 -0.35853814106E+02 -0.53203988537E+01  0.22584859073E+02  0.42706890419E+02  0.00000000000E+00 0.  1.
         12    1    6    6    0    0 -0.63653198614E+02 -0.54708001978E+02  0.25876838875E+03  0.27204002314E+03  0.00000000000E+00 0. -1.
         -5    1    3    3    0  503  0.59138191487E+02 -0.30412542719E+02 -0.40886411166E+03  0.41426344305E+03  0.47000000000E+01 0.  1.
         13    1    4    4    0    0  0.10097909957E+03  0.29534968336E+02 -0.14567745263E+03  0.17969700362E+03  0.00000000000E+00 0. -1.
        -14    1    4    4    0    0 -0.13542936248E+02  0.23876564332E+01 -0.55204721299E+01  0.14818489734E+02  0.00000000000E+00 0.  1.
<mgrwt>
<rscale>  2 0.23562998E+03</rscale>
<asrwt>0</asrwt>
<pdfrwt beam="1">  1       21 0.62348413E-01 0.23862588E+03</pdfrwt>
<pdfrwt beam="2">  1       21 0.95107784E-01 0.23862588E+03</pdfrwt>
<totfact> 0.21214811E+03</totfact>
</mgrwt>
</event>
<event>
12    1  0.1026879E-001  0.1781944E+03  0.7546771E-02  0.1169700E+00
         21   -1    0    0  501  502  0.00000000000E+00  0.00000000000E+00  0.56790147121E+02  0.56790147121E+02  0.00000000000E+00 0.  1.
         21   -1    0    0  502  503 -0.00000000000E+00 -0.00000000000E+00 -0.63066197855E+03  0.63066197855E+03  0.00000000000E+00 0.  1.
         -6    2    1    2    0  503  0.11766893070E+02  0.37114895526E+02 -0.17016242576E+03  0.24639093448E+03  0.17388866039E+03 0.  0.
        -24    2    3    3    0    0  0.58271958088E+01 -0.47140317257E+02 -0.83158464503E+02  0.12504020248E+03  0.80396245526E+02 0.  0.
          6    2    1    2  501    0 -0.11766893070E+02 -0.37114895526E+02 -0.40370940567E+03  0.44106119119E+03  0.17331392010E+03 0.  0.
         24    2    5    5    0    0 -0.11845801863E+01 -0.86348802979E+02 -0.33784770438E+03  0.35802013696E+03  0.81116139653E+02 0.  0.
          5    1    5    5  501    0 -0.10582312884E+02  0.49233907453E+02 -0.65861701296E+02  0.83041054225E+02  0.47000000000E+01 0. -1.
        -11    1    6    6    0    0 -0.12162918656E+01 -0.50486113528E+02 -0.30574574202E+03  0.30988834407E+03  0.00000000000E+00 0.  1.
         12    1    6    6    0    0  0.31711679288E-01 -0.35862689451E+02 -0.32101962358E+02  0.48131792897E+02  0.00000000000E+00 0. -1.
         -5    1    3    3    0  503  0.59396972613E+01  0.84255212784E+02 -0.87003961253E+02  0.12135073201E+03  0.47000000000E+01 0.  1.
         13    1    4    4    0    0 -0.21038969117E+02 -0.38949824569E+02 -0.82390322945E+01  0.45028976322E+02  0.00000000000E+00 0. -1.
        -14    1    4    4    0    0  0.26866164925E+02 -0.81904926883E+01 -0.74919432208E+02  0.80011226154E+02  0.00000000000E+00 0.  1.
<mgrwt>
<rscale>  2 0.17805402E+03</rscale>
<asrwt>0</asrwt>
<pdfrwt beam="1">  1       21 0.87369452E-02 0.17819439E+03</pdfrwt>
<pdfrwt beam="2">  1       21 0.97024925E-01 0.17819439E+03</pdfrwt>
<totfact> 0.91267539E+04</totfact>
</mgrwt>
</event>
<event>
12    1  0.1026879E-001  0.1925579E+03  0.7546771E-02  0.1156194E+00
         21   -1    0    0  501  502  0.00000000000E+00  0.00000000000E+00  0.73376594314E+02  0.73376594314E+02  0.00000000000E+00 0.  1.
         21   -1    0    0  502  503 -0.00000000000E+00 -0.00000000000E+00 -0.52816627837E+03  0.52816627837E+03  0.00000000000E+00 0.  1.
         -6    2    1    2    0  503  0.77359225303E+02 -0.26507258378E+02 -0.29032337303E+03  0.34837651540E+03  0.17433144029E+03 0.  0.
        -24    2    3    3    0    0  0.52525316961E+02  0.51412416711E+02 -0.18856283443E+03  0.21774154311E+03  0.80332381733E+02 0.  0.
          6    2    1    2  501    0 -0.77359225303E+02  0.26507258378E+02 -0.16446631103E+03  0.25316635728E+03  0.17423246687E+03 0.  0.
         24    2    5    5    0    0 -0.32729079297E+02 -0.47569394564E+02 -0.12016144617E+03  0.15588217823E+03  0.80786387553E+02 0.  0.
          5    1    5    5  501    0 -0.44630146006E+02  0.74076652942E+02 -0.44304864865E+02  0.97284179054E+02  0.47000000000E+01 0. -1.
        -13    1    6    6    0    0  0.23607160967E+02 -0.31830921126E+02 -0.60549535857E+02  0.72365405279E+02  0.00000000000E+00 0.  1.
         14    1    6    6    0    0 -0.56336240265E+02 -0.15738473439E+02 -0.59611910309E+02  0.83516772950E+02  0.00000000000E+00 0. -1.
         -5    1    3    3    0  503  0.24833908342E+02 -0.77919675089E+02 -0.10176053859E+03  0.13063497229E+03  0.47000000000E+01 0.  1.
         11    1    4    4    0    0  0.60709338896E+02  0.11699386340E+02 -0.75243021231E+02  0.97385890733E+02  0.00000000000E+00 0. -1.
        -12    1    4    4    0    0 -0.81840219346E+01  0.39713030371E+02 -0.11331981320E+03  0.12035565238E+03  0.00000000000E+00 0.  1.
<mgrwt>
<rscale>  2 0.19253547E+03</rscale>
<asrwt>0</asrwt>
<pdfrwt beam="1">  1       21 0.11288707E-01 0.19255788E+03</pdfrwt>
<pdfrwt beam="2">  1       21 0.81256353E-01 0.19255788E+03</pdfrwt>
<totfact> 0.86899124E+04</totfact>
</mgrwt>
</event>
<event>
12    1  0.1026879E-001  0.2196134E+03  0.7546771E-02  0.1134371E+00
         21   -1    0    0  501  502  0.00000000000E+00  0.00000000000E+00  0.17138909703E+03  0.17138909703E+03  0.00000000000E+00 0. -1.
         21   -1    0    0  502  503 -0.00000000000E+00 -0.00000000000E+00 -0.43469050623E+03  0.43469050623E+03  0.00000000000E+00 0.  1.
         -6    2    1    2    0  503 -0.96006377343E+02  0.92065796966E+02 -0.31260861777E+03  0.38203950071E+03  0.17474752283E+03 0.  0.
        -24    2    3    3    0    0 -0.86880553052E+01 -0.35900855110E+01 -0.17839209035E+03  0.19546323360E+03  0.79333263955E+02 0.  0.
          6    2    1    2  501    0  0.96006377343E+02 -0.92065796966E+02  0.49307208569E+02  0.22404010256E+03  0.17340539575E+03 0.  0.
         24    2    5    5    0    0 -0.69256963991E+01 -0.22370710062E+02  0.55542917588E+02  0.99487338595E+02  0.79147336703E+02 0.  0.
          5    1    5    5  501    0  0.10293207374E+03 -0.69695086904E+02 -0.62357090188E+01  0.12455276396E+03  0.47000000000E+01 0. -1.
        -11    1    6    6    0    0  0.22201209850E+02 -0.68380097447E+01 -0.10623179586E+02  0.25544158639E+02  0.00000000000E+00 0.  1.
         12    1    6    6    0    0 -0.29126906249E+02 -0.15532700318E+02  0.66166097174E+02  0.73943179956E+02  0.00000000000E+00 0. -1.
         -5    1    3    3    0  503 -0.87318322038E+02  0.95655882477E+02 -0.13421652741E+03  0.18657626711E+03  0.47000000000E+01 0.  1.
         11    1    4    4    0    0  0.24707682325E+02 -0.15822698841E+02 -0.26741727980E+02  0.39698203735E+02  0.00000000000E+00 0. -1.
        -12    1    4    4    0    0 -0.33395737630E+02  0.12232613330E+02 -0.15165036237E+03  0.15576502987E+03  0.00000000000E+00 0.  1.
<mgrwt>
<rscale>  2 0.21934628E+03</rscale>
<asrwt>0</asrwt>
<pdfrwt beam="1">  1       21 0.26367553E-01 0.21961337E+03</pdfrwt>
<pdfrwt beam="2">  1       21 0.66875463E-01 0.21961337E+03</pdfrwt>
<totfact> 0.27607145E+04</totfact>
</mgrwt>
</event>
<event>
12    1  0.1026879E-001  0.2064028E+03  0.7546771E-02  0.1144593E+00
         21   -1    0    0  501  502  0.00000000000E+00  0.00000000000E+00  0.66008009429E+02  0.66008009429E+02  0.00000000000E+00 0. -1.
         21   -1    0    0  502  503 -0.00000000000E+00 -0.00000000000E+00 -0.93431753765E+03  0.93431753765E+03  0.00000000000E+00 0. -1.
         -6    2    1    2    0  503  0.91940812041E+02  0.59047901780E+02 -0.15546765164E+03  0.25840338219E+03  0.17510668061E+03 0.  0.
        -24    2    3    3    0    0  0.13143452985E+03  0.60607019067E+02 -0.13462863177E+03  0.21347522462E+03  0.80613625630E+02 0.  0.
          6    2    1    2  501    0 -0.91940812041E+02 -0.59047901780E+02 -0.71284187658E+03  0.74192216489E+03  0.17425610500E+03 0.  0.
         24    2    5    5    0    0  0.16041070667E+02 -0.10263992045E+01 -0.25196688559E+03  0.26500033789E+03  0.80495330317E+02 0.  0.
          5    1    5    5  501    0 -0.10798188271E+03 -0.58021502575E+02 -0.46087499099E+03  0.47692182700E+03  0.47000000000E+01 0. -1.
        -11    1    6    6    0    0 -0.72344871490E+01  0.30005979184E+02 -0.45891591956E+02  0.55305829742E+02  0.00000000000E+00 0.  1.
         12    1    6    6    0    0  0.23275557816E+02 -0.31032378389E+02 -0.20607529363E+03  0.20969450814E+03  0.00000000000E+00 0. -1.
         -5    1    3    3    0  503 -0.39493717810E+02 -0.15591172866E+01 -0.20839019878E+02  0.44928157570E+02  0.47000000000E+01 0.  1.
         13    1    4    4    0    0  0.65837457082E+02  0.37724950249E+02 -0.18420608342E+02  0.78083682278E+02  0.00000000000E+00 0. -1.
        -14    1    4    4    0    0  0.65597072769E+02  0.22882068818E+02 -0.11620802342E+03  0.13539154234E+03  0.00000000000E+00 0.  1.
<mgrwt>
<rscale>  2 0.20622229E+03</rscale>
<asrwt>0</asrwt>
<pdfrwt beam="1">  1       21 0.10155078E-01 0.20640280E+03</pdfrwt>
<pdfrwt beam="2">  1       21 0.14374116E+00 0.20640280E+03</pdfrwt>
<totfact> 0.26160969E+04</totfact>
</mgrwt>
</event>
<event>
12    1  0.1026879E-001  0.1948989E+03  0.7546771E-02  0.1154330E+00
         21   -1    0    0  503  502  0.00000000000E+00  0.00000000000E+00  0.12382852619E+03  0.12382852619E+03  0.00000000000E+00 0.  1.
         21   -1    0    0  501  503 -0.00000000000E+00 -0.00000000000E+00 -0.45427023252E+03  0.45427023252E+03  0.00000000000E+00 0.  1.
          6    2    1    2  501    0  0.50161617660E+02  0.69178002806E+02 -0.33051185963E+03  0.38319988331E+03  0.17407549297E+03 0.  0.
         24    2    3    3    0    0 -0.28096736748E+02  0.56260387276E+02 -0.25080965740E+03  0.27065759852E+03  0.79971204803E+02 0.  0.
         -6    2    1    2    0  502 -0.50161617660E+02 -0.69178002806E+02  0.70153292665E-01  0.19489887540E+03  0.17516787021E+03 0.  0.
        -24    2    5    5    0    0 -0.70967902271E+02  0.15825947284E+02 -0.20746601896E+01  0.10723324226E+03  0.78789341092E+02 0.  0.
          5    1    3    3  501    0  0.78258354408E+02  0.12917615530E+02 -0.79702202228E+02  0.11254228479E+03  0.47000000000E+01 0. -1.
        -11    1    4    4    0    0  0.61506892641E+01  0.42522293116E+02 -0.21495517433E+03  0.21920698748E+03  0.00000000000E+00 0.  1.
         12    1    4    4    0    0 -0.34247426012E+02  0.13738094161E+02 -0.35854483071E+02  0.51450611035E+02  0.00000000000E+00 0. -1.
         -5    1    5    5    0  502  0.20806284610E+02 -0.85003950090E+02  0.21448134822E+01  0.87665633147E+02  0.47000000000E+01 0.  1.
         11    1    6    6    0    0 -0.83545551861E+02 -0.37445002102E+01 -0.50408477330E+01  0.83781207102E+02  0.00000000000E+00 0. -1.
        -12    1    6    6    0    0  0.12577649590E+02  0.19570447494E+02  0.29661875434E+01  0.23452035154E+02  0.00000000000E+00 0.  1.
<mgrwt>
<rscale>  2 0.19465310E+03</rscale>
<asrwt>0</asrwt>
<pdfrwt beam="1">  1       21 0.19050542E-01 0.19489886E+03</pdfrwt>
<pdfrwt beam="2">  1       21 0.69887729E-01 0.19489886E+03</pdfrwt>
<totfact> 0.46944018E+04</totfact>
</mgrwt>
</event>
<event>
12    1  0.1026879E-001  0.1774821E+03  0.7546771E-02  0.1170512E+00
         21   -1    0    0  501  502  0.00000000000E+00  0.00000000000E+00  0.33372261191E+03  0.33372261191E+03  0.00000000000E+00 0. -1.
         21   -1    0    0  502  503 -0.00000000000E+00 -0.00000000000E+00 -0.17250739994E+03  0.17250739994E+03  0.00000000000E+00 0. -1.
         -6    2    1    2    0  503  0.18460317002E+02  0.31749545372E+02 -0.90430627897E+02  0.19829249083E+03  0.17260763750E+03 0.  0.
        -24    2    3    3    0    0  0.51365878877E+02  0.32298086392E+02 -0.11884878379E+03  0.15455739641E+03  0.77982917873E+02 0.  0.
          6    2    1    2  501    0 -0.18460317002E+02 -0.31749545372E+02  0.25164583987E+03  0.30793752101E+03  0.17364063807E+03 0.  0.
         24    2    5    5    0    0  0.45533048924E+02 -0.41080790708E+02  0.19597888080E+03  0.22247920747E+03  0.85605993519E+02 0.  0.
          5    1    5    5  501    0 -0.63993365926E+02  0.93312453364E+01  0.55666959071E+02  0.85458313547E+02  0.47000000000E+01 0. -1.
        -11    1    6    6    0    0 -0.56437043698E+00 -0.17574323877E+02 -0.21411879518E+01  0.17713273542E+02  0.00000000000E+00 0.  1.
         12    1    6    6    0    0  0.46097419361E+02 -0.23506466832E+02  0.19812006875E+03  0.20476593392E+03  0.00000000000E+00 0. -1.
         -5    1    3    3    0  503 -0.32905561875E+02 -0.54854102029E+00  0.28418155893E+02  0.43735094420E+02  0.47000000000E+01 0.  1.
         13    1    4    4    0    0 -0.20494244242E+02  0.28173156242E+01 -0.31315333171E+02  0.37531338984E+02  0.00000000000E+00 0. -1.
        -14    1    4    4    0    0  0.71860123119E+02  0.29480770768E+02 -0.87533450620E+02  0.11702605743E+03  0.00000000000E+00 0.  1.
<mgrwt>
<rscale>  2 0.17722891E+03</rscale>
<asrwt>0</asrwt>
<pdfrwt beam="1">  1       21 0.51341940E-01 0.17748208E+03</pdfrwt>
<pdfrwt beam="2">  1       21 0.26539600E-01 0.17748208E+03</pdfrwt>
<totfact> 0.49056519E+04</totfact>
</mgrwt>
</event>
<event>
12    1  0.1026879E-001  0.2127783E+03  0.7546771E-02  0.1139408E+00
         21   -1    0    0  503  502  0.00000000000E+00  0.00000000000E+00  0.88227258403E+03  0.88227258403E+03  0.00000000000E+00 0.  1.
         21   -1    0    0  501  503 -0.00000000000E+00 -0.00000000000E+00 -0.66645975306E+02  0.66645975306E+02  0.00000000000E+00 0.  1.
          6    2    1    2  501    0  0.89675963316E+02 -0.86578146946E+02  0.17996062717E+03  0.27858593624E+03  0.17229841152E+03 0.  0.
         24    2    3    3    0    0  0.96174723622E+02 -0.11917038305E+03  0.17229156587E+03  0.24415641053E+03  0.80478639860E+02 0.  0.
         -6    2    1    2    0  502 -0.89675963316E+02  0.86578146946E+02  0.63566598155E+03  0.67033262309E+03  0.17244428538E+03 0.  0.
        -24    2    5    5    0    0 -0.10574534172E+03  0.90098718226E+02  0.36121016873E+03  0.39534407327E+03  0.80773101669E+02 0.  0.
          5    1    3    3  501    0 -0.64987603061E+01  0.32592236099E+02  0.76690613026E+01  0.34429525712E+02  0.47000000000E+01 0. -1.
        -11    1    4    4    0    0 -0.51334293729E+01 -0.49720844840E+02  0.44800132826E+02  0.67123516072E+02  0.00000000000E+00 0.  1.
         12    1    4    4    0    0  0.10130815299E+03 -0.69449538206E+02  0.12749143304E+03  0.17703289446E+03  0.00000000000E+00 0. -1.
         -5    1    5    5    0  502  0.16069378406E+02 -0.35205712803E+01  0.27445581282E+03  0.27498854982E+03  0.47000000000E+01 0.  1.
         11    1    6    6    0    0 -0.53749171384E+01 -0.14434697700E+02  0.27374358878E+02  0.31410281055E+02  0.00000000000E+00 0. -1.
        -12    1    6    6    0    0 -0.10037042458E+03  0.10453341593E+03  0.33383580985E+03  0.36393379221E+03  0.00000000000E+00 0.  1.
<mgrwt>
<rscale>  2 0.21274870E+03</rscale>
<asrwt>0</asrwt>
<pdfrwt beam="1">  1       21 0.13573424E+00 0.21277825E+03</pdfrwt>
<pdfrwt beam="2">  1       21 0.10253228E-01 0.21277825E+03</pdfrwt>
<totfact> 0.29719178E+04</totfact>
</mgrwt>
</event>
<event>
12    1  0.1026879E-001  0.1961645E+03  0.7546771E-02  0.1153612E+00
         21   -1    0    0  503  502  0.00000000000E+00  0.00000000000E+00  0.14799649640E+03  0.14799649640E+03  0.00000000000E+00 0. -1.
         21   -1    0    0  501  503 -0.00000000000E+00 -0.00000000000E+00 -0.28397499339E+03  0.28397499339E+03  0.00000000000E+00 0. -1.
          6    2    1    2  501    0  0.88495527991E+02  0.14811508221E+02 -0.13572963292E+03  0.23854356066E+03  0.17444098666E+03 0.  0.
         24    2    3    3    0    0  0.23749862881E+02 -0.46338682110E+02 -0.10971355055E+03  0.14564429548E+03  0.80398185216E+02 0.  0.
         -6    2    1    2    0  502 -0.88495527991E+02 -0.14811508221E+02 -0.24886407368E+00  0.19342792913E+03  0.17135770360E+03 0.  0.
        -24    2    5    5    0    0 -0.79954480370E+02 -0.52232807765E+01 -0.62201895607E+02  0.12998384575E+03  0.81281749152E+02 0.  0.
          5    1    3    3  501    0  0.64745665110E+02  0.61150190331E+02 -0.26016082371E+02  0.92899265174E+02  0.47000000000E+01 0. -1.
        -13    1    4    4    0    0  0.85844941577E+01 -0.14675533522E+02 -0.10921777786E+03  0.11053319784E+03  0.00000000000E+00 0.  1.
         14    1    4    4    0    0  0.15165368723E+02 -0.31663148587E+02 -0.49577268768E+00  0.35111097641E+02  0.00000000000E+00 0. -1.
         -5    1    5    5    0  502 -0.85410476203E+01 -0.95882274449E+01  0.61953031534E+02  0.63444083382E+02  0.47000000000E+01 0.  1.
         11    1    6    6    0    0 -0.41676803454E+02 -0.43299587980E+02 -0.30927629831E+02  0.67589411540E+02  0.00000000000E+00 0. -1.
        -12    1    6    6    0    0 -0.38277676916E+02  0.38076307204E+02 -0.31274265776E+02  0.62394434208E+02  0.00000000000E+00 0.  1.
<mgrwt>
<rscale>  2 0.19547668E+03</rscale>
<asrwt>0</asrwt>
<pdfrwt beam="1">  1       21 0.22768692E-01 0.19616446E+03</pdfrwt>
<pdfrwt beam="2">  1       21 0.43688460E-01 0.19616446E+03</pdfrwt>
<totfact> 0.90955427E+04</totfact>
</mgrwt>
</event>
<event>
12    1  0.1026879E-001  0.2365120E+03  0.7546771E-02  0.1122749E+00
         21   -1    0    0  503  502  0.00000000000E+00  0.00000000000E+00  0.44739745309E+02  0.44739745309E+02  0.00000000000E+00 0. -1.
         21   -1    0    0  501  503 -0.00000000000E+00 -0.00000000000E+00 -0.15258322605E+04  0.15258322605E+04  0.00000000000E+00 0.  1.
          6    2    1    2  501    0 -0.79627800568E+02  0.14690404449E+03 -0.10899689880E+04  0.11153341748E+04  0.16738142561E+03 0.  0.
         24    2    3    3    0    0 -0.42287546837E+02  0.23528477697E+02 -0.29939094958E+03  0.31430262115E+03  0.82518913515E+02 0.  0.
         -6    2    1    2    0  502  0.79627800568E+02 -0.14690404449E+03 -0.39112352713E+03  0.45523783100E+03  0.16230367954E+03 0.  0.
        -24    2    5    5    0    0  0.51382463184E+02 -0.14791606302E+03 -0.38842100863E+03  0.42645907370E+03  0.80480695687E+02 0.  0.
          5    1    3    3  501    0 -0.37340253731E+02  0.12337556679E+03 -0.79057803846E+03  0.80103155364E+03  0.47000000000E+01 0. -1.
        -11    1    4    4    0    0 -0.47767733464E+02  0.47268570220E+01 -0.28730988480E+03  0.29129206896E+03  0.00000000000E+00 0.  1.
         12    1    4    4    0    0  0.54801866274E+01  0.18801620674E+02 -0.12081064782E+02  0.23010552182E+02  0.00000000000E+00 0. -1.
         -5    1    5    5    0  502  0.28245337384E+02  0.10120185303E+01 -0.27025184992E+01  0.28778757299E+02  0.47000000000E+01 0.  1.
         13    1    6    6    0    0  0.34871933512E+02 -0.53857448697E+02 -0.74432022154E+02  0.98269030976E+02  0.00000000000E+00 0. -1.
        -14    1    6    6    0    0  0.16510529673E+02 -0.94058614321E+02 -0.31398898647E+03  0.32819004273E+03  0.00000000000E+00 0.  1.
<mgrwt>
<rscale>  2 0.23561543E+03</rscale>
<asrwt>0</asrwt>
<pdfrwt beam="1">  1       21 0.68830367E-02 0.23651200E+03</pdfrwt>
<pdfrwt beam="2">  1       21 0.23474346E+00 0.23651200E+03</pdfrwt>
<totfact> 0.12299143E+04</totfact>
</mgrwt>
</event>
<event>
12    1  0.1026879E-001  0.1964289E+03  0.7546771E-02  0.1152866E+00
         21   -1    0    0  501  502  0.00000000000E+00  0.00000000000E+00  0.14606953194E+02  0.14606953194E+02  0.00000000000E+00 0. -1.
         21   -1    0    0  502  503 -0.00000000000E+00 -0.00000000000E+00 -0.33045306525E+04  0.33045306525E+04  0.00000000000E+00 0. -1.
         -6    2    1    2    0  503 -0.91404022160E+02 -0.14312515324E+02 -0.23898482046E+04  0.23978774876E+04  0.17286544199E+03 0.  0.
        -24    2    3    3    0    0  0.17703569612E+02 -0.40454236630E+01 -0.12507443923E+04  0.12535045305E+04  0.81131320812E+02 0.  0.
          6    2    1    2  501    0  0.91404022160E+02  0.14312515324E+02 -0.90007549469E+03  0.92126011810E+03  0.17327655843E+03 0.  0.
         24    2    5    5    0    0  0.59513293013E+01  0.57242682590E+02 -0.42515272103E+03  0.43678215894E+03  0.81924813902E+02 0.  0.
          5    1    5    5  501    0  0.85452692858E+02 -0.42930167265E+02 -0.47492277365E+03  0.48447795916E+03  0.47000000000E+01 0. -1.
        -13    1    6    6    0    0 -0.32246326964E+02  0.13744104105E+01 -0.14926723850E+03  0.15271680686E+03  0.00000000000E+00 0.  1.
         14    1    6    6    0    0  0.38197656266E+02  0.55868272179E+02 -0.27588548253E+03  0.28406535208E+03  0.00000000000E+00 0. -1.
         -5    1    3    3    0  503 -0.10910759177E+03 -0.10267091661E+02 -0.11391038123E+04  0.11443729571E+04  0.47000000000E+01 0.  1.
         13    1    4    4    0    0  0.65327933202E+01  0.36917414418E+02 -0.76105871978E+03  0.76198159284E+03  0.00000000000E+00 0. -1.
        -14    1    4    4    0    0  0.11170776291E+02 -0.40962838081E+02 -0.48968567254E+03  0.49152293765E+03  0.00000000000E+00 0.  1.
<mgrwt>
<rscale>  2 0.19633819E+03</rscale>
<asrwt>0</asrwt>
<pdfrwt beam="1">  1       21 0.22472191E-02 0.19642889E+03</pdfrwt>
<pdfrwt beam="2">  1       21 0.50839034E+00 0.19642889E+03</pdfrwt>
<totfact> 0.16705699E+03</totfact>
</mgrwt>
</event>
<event>
12    1  0.1026879E-001  0.2934582E+03  0.7546771E-02  0.1088634E+00
         21   -1    0    0  503  502  0.00000000000E+00  0.00000000000E+00  0.51505334821E+03  0.51505334821E+03  0.00000000000E+00 0. -1.
         21   -1    0    0  501  503 -0.00000000000E+00 -0.00000000000E+00 -0.18825892948E+03  0.18825892948E+03  0.00000000000E+00 0.  1.
          6    2    1    2  501    0  0.11121801689E+03  0.20929472337E+03  0.44994236333E+02  0.29688755298E+03  0.17304337404E+03 0.  0.
         24    2    3    3    0    0  0.11376989729E+03  0.17690092717E+03 -0.21868966127E+02  0.22239830564E+03  0.68885608866E+02 0.  0.
         -6    2    1    2    0  502 -0.11121801689E+03 -0.20929472337E+03  0.28180018239E+03  0.40642472471E+03  0.17203483818E+03 0.  0.
        -24    2    5    5    0    0 -0.10029919011E+03 -0.20146383783E+03  0.30002062593E+03  0.38330291446E+03  0.79127383114E+02 0.  0.
          5    1    3    3  501    0 -0.25518804022E+01  0.32393796205E+02  0.66863202460E+02  0.74489247341E+02  0.47000000000E+01 0. -1.
        -13    1    4    4    0    0  0.70414311642E+02  0.53969308566E+02 -0.24430611344E+02  0.92020195184E+02  0.00000000000E+00 0.  1.
         14    1    4    4    0    0  0.43355585645E+02  0.12293161860E+03  0.25616452165E+01  0.13037811045E+03  0.00000000000E+00 0. -1.
         -5    1    5    5    0  502 -0.10918826780E+02 -0.78308855406E+01 -0.18220443537E+02  0.23121810251E+02  0.47000000000E+01 0.  1.
         11    1    6    6    0    0 -0.11526236122E+01 -0.79742994705E+02  0.12412707819E+03  0.14753916526E+03  0.00000000000E+00 0. -1.
        -12    1    6    6    0    0 -0.99146566494E+02 -0.12172084313E+03  0.17589354774E+03  0.23576374920E+03  0.00000000000E+00 0.  1.
<mgrwt>
<rscale>  2 0.29330973E+03</rscale>
<asrwt>0</asrwt>
<pdfrwt beam="1">  1       21 0.79238976E-01 0.29345824E+03</pdfrwt>
<pdfrwt beam="2">  1       21 0.28962912E-01 0.29345824E+03</pdfrwt>
<totfact> 0.15198383E+04</totfact>
</mgrwt>
</event>
<event>
11    1  0.1026879E-001  0.2089938E+03  0.7546771E-02  0.1142471E+00
         21   -1    0    0  503  502  0.00000000000E+00  0.00000000000E+00  0.22119472148E+03  0.22119472148E+03  0.00000000000E+00 0.  1.
         21   -1    0    0  501  503 -0.00000000000E+00 -0.00000000000E+00 -0.22464802797E+03  0.22464802797E+03  0.00000000000E+00 0.  1.
          6    2    1    2  501    0  0.11374735531E+03  0.10811205982E+02 -0.79975390369E+02  0.22328034501E+03  0.17436371866E+03 0.  0.
         -6    2    1    2    0  502 -0.11374735531E+03 -0.10811205982E+02  0.76522083886E+02  0.22256240444E+03  0.17499443286E+03 0.  0.
        -24    2    4    4    0    0 -0.69208951292E+02  0.54111164431E+02  0.87567106673E+01  0.11857769681E+03  0.79158658053E+02 0.  0.
          5    1    3    3  501    0  0.57535921420E+02 -0.31634924535E+02  0.42899710875E+02  0.78572424534E+02  0.47000000000E+01 0. -1.
        -13    1    3    3    0    0  0.26041246959E+02  0.84333817405E+01 -0.68885402219E+02  0.74124672746E+02  0.00000000000E+00 0.  1.
         14    1    3    3    0    0  0.30170186933E+02  0.34012748777E+02 -0.53989699025E+02  0.70583247727E+02  0.00000000000E+00 0. -1.
         -5    1    4    4    0  502 -0.44538404020E+02 -0.64922370414E+02  0.67765373218E+02  0.10398470763E+03  0.47000000000E+01 0.  1.
         11    1    5    5    0    0 -0.82936560056E+02  0.59228968692E+02  0.82479549943E+00  0.10191773160E+03  0.00000000000E+00 0. -1.
        -12    1    5    5    0    0  0.13727608763E+02 -0.51178042603E+01  0.79319151679E+01  0.16659965217E+02  0.00000000000E+00 0.  1.
<mgrwt>
<rscale>  2 0.20886169E+03</rscale>
<asrwt>0</asrwt>
<pdfrwt beam="1">  1       21 0.34029957E-01 0.20899377E+03</pdfrwt>
<pdfrwt beam="2">  1       21 0.34561235E-01 0.20899377E+03</pdfrwt>
<totfact> 0.66642546E+04</totfact>
</mgrwt>
</event>
<event>
12    1  0.1026879E-001  0.1808183E+03  0.7546771E-02  0.1167167E+00
         21   -1    0    0  503  502  0.00000000000E+00  0.00000000000E+00  0.10809341922E+04  0.10809341922E+04  0.00000000000E+00 0. -1.
         21   -1    0    0  501  503 -0.00000000000E+00 -0.00000000000E+00 -0.32025696118E+02  0.32025696118E+02  0.00000000000E+00 0. -1.
          6    2    1    2  501    0 -0.29696460061E+02 -0.41993483038E+02  0.39031642289E+03  0.43016529476E+03  0.17334918081E+03 0.  0.
         24    2    3    3    0    0 -0.53166064218E+02  0.18372590833E+02  0.31996230488E+03  0.33442252942E+03  0.79362265382E+02 0.  0.
         -6    2    1    2    0  502  0.29696460061E+02  0.41993483038E+02  0.65859207323E+03  0.68279459358E+03  0.17268354222E+03 0.  0.
        -24    2    5    5    0    0 -0.41524121772E+01  0.16688868586E+02  0.61979408169E+03  0.62523207269E+03  0.80465397280E+02 0.  0.
          5    1    3    3  501    0  0.23469604157E+02 -0.60366073871E+02  0.70354118010E+02  0.95742765339E+02  0.47000000000E+01 0. -1.
        -11    1    4    4    0    0  0.11189798294E+01  0.19463488814E+02  0.21830526729E+03  0.21917406151E+03  0.00000000000E+00 0.  1.
         12    1    4    4    0    0 -0.54285044047E+02 -0.10908979810E+01  0.10165703759E+03  0.11524846791E+03  0.00000000000E+00 0. -1.
         -5    1    5    5    0  502  0.33848872239E+02  0.25304614453E+02  0.38797991533E+02  0.57562520892E+02  0.47000000000E+01 0.  1.
         11    1    6    6    0    0  0.11478909692E+01  0.48021007100E+02  0.44382098546E+03  0.44641281558E+03  0.00000000000E+00 0. -1.
        -12    1    6    6    0    0 -0.53003031464E+01 -0.31332138515E+02  0.17597309623E+03  0.17881925711E+03  0.00000000000E+00 0.  1.
<mgrwt>
<rscale>  2 0.18065861E+03</rscale>
<asrwt>0</asrwt>
<pdfrwt beam="1">  1       21 0.16629754E+00 0.18081834E+03</pdfrwt>
<pdfrwt beam="2">  1       21 0.49270310E-02 0.18081834E+03</pdfrwt>
<totfact> 0.62923462E+04</totfact>
</mgrwt>
</event>
<event>
12    1  0.1026879E-001  0.2492980E+03  0.7546771E-02  0.1113762E+00
         21   -1    0    0  503  502  0.00000000000E+00  0.00000000000E+00  0.24389927751E+03  0.24389927751E+03  0.00000000000E+00 0.  1.
         21   -1    0    0  501  503 -0.00000000000E+00 -0.00000000000E+00 -0.29490815643E+03  0.29490815643E+03  0.00000000000E+00 0. -1.
          6    2    1    2  501    0  0.57798261833E+02 -0.17028004318E+03 -0.12493178474E+03  0.27878031593E+03  0.17255312670E+03 0.  0.
         24    2    3    3    0    0  0.88591676331E+02 -0.11310899212E+03 -0.36254771134E+02  0.16876910650E+03  0.80786593364E+02 0.  0.
         -6    2    1    2    0  502 -0.57798261833E+02  0.17028004318E+03  0.73922905827E+02  0.26002711802E+03  0.17266607636E+03 0.  0.
        -24    2    5    5    0    0 -0.81753445476E+02  0.17146947783E+03  0.95423164952E+02  0.22747536353E+03  0.80957105481E+02 0.  0.
          5    1    3    3  501    0 -0.30793414498E+02 -0.57171051060E+02 -0.88677013610E+02  0.11001120942E+03  0.47000000000E+01 0. -1.
        -13    1    4    4    0    0  0.22121814591E+02 -0.92633960869E+02 -0.22748740916E+02  0.97917978943E+02  0.00000000000E+00 0.  1.
         14    1    4    4    0    0  0.66469861740E+02 -0.20475031247E+02 -0.13506030218E+02  0.70851127561E+02  0.00000000000E+00 0. -1.
         -5    1    5    5    0  502  0.23955183643E+02 -0.11894346521E+01 -0.21500259124E+02  0.32551754493E+02  0.47000000000E+01 0.  1.
         11    1    6    6    0    0 -0.55329147099E+02  0.84629888202E+02  0.79619290811E+01  0.10142447836E+03  0.00000000000E+00 0. -1.
        -12    1    6    6    0    0 -0.26424298377E+02  0.86839589627E+02  0.87461235871E+02  0.12605088517E+03  0.00000000000E+00 0.  1.
<mgrwt>
<rscale>  2 0.24927847E+03</rscale>
<asrwt>0</asrwt>
<pdfrwt beam="1">  1       21 0.37522966E-01 0.24929803E+03</pdfrwt>
<pdfrwt beam="2">  1       21 0.45370485E-01 0.24929803E+03</pdfrwt>
<totfact> 0.31030820E+04</totfact>
</mgrwt>
</event>
<event>
12    1  0.1026879E-001  0.1962461E+03  0.7546771E-02  0.1153264E+00
         21   -1    0    0  503  502  0.00000000000E+00  0.00000000000E+00  0.25153253734E+03  0.25153253734E+03  0.00000000000E+00 0.  1.
         21   -1    0    0  501  503 -0.00000000000E+00 -0.00000000000E+00 -0.19103423262E+03  0.19103423262E+03  0.00000000000E+00 0.  1.
          6    2    1    2  501    0 -0.43276053766E+02 -0.81031922699E+02  0.13022420558E+03  0.23430191428E+03  0.17175579754E+03 0.  0.
         24    2    3    3    0    0 -0.87897510511E+02 -0.29459942703E+01  0.76941839704E+02  0.12966163936E+03  0.56191127319E+02 0.  0.
         -6    2    1    2    0  502  0.43276053766E+02  0.81031922699E+02 -0.69725900855E+02  0.20826485568E+03  0.17341729884E+03 0.  0.
        -24    2    5    5    0    0  0.66078585456E+01  0.10303366247E+03 -0.55525601475E+01  0.13100593548E+03  0.80449517143E+02 0.  0.
          5    1    3    3  501    0  0.44621456744E+02 -0.78085928428E+02  0.53282365873E+02  0.10464027491E+03  0.47000000000E+01 0. -1.
        -11    1    4    4    0    0 -0.33562585405E+02  0.13778954791E+02  0.60389992456E+02  0.70450393349E+02  0.00000000000E+00 0.  1.
         12    1    4    4    0    0 -0.54334925106E+02 -0.16724949061E+02  0.16551847248E+02  0.59211246015E+02  0.00000000000E+00 0. -1.
         -5    1    5    5    0  502  0.36668195221E+02 -0.22001739775E+02 -0.64173340708E+02  0.77258920206E+02  0.47000000000E+01 0.  1.
         13    1    6    6    0    0  0.41388156580E+02  0.76616045269E+02 -0.91944966400E+00  0.87085264456E+02  0.00000000000E+00 0. -1.
        -14    1    6    6    0    0 -0.34780298034E+02  0.26417617205E+02 -0.46331104835E+01  0.43920671020E+02  0.00000000000E+00 0.  1.
<mgrwt>
<rscale>  2 0.19587844E+03</rscale>
<asrwt>0</asrwt>
<pdfrwt beam="1">  1       21 0.38697314E-01 0.19624614E+03</pdfrwt>
<pdfrwt beam="2">  1       21 0.29389882E-01 0.19624614E+03</pdfrwt>
<totfact> 0.71305560E+04</totfact>
</mgrwt>
</event>
<event>
12    1  0.1026879E-001  0.2021470E+03  0.7546771E-02  0.1148311E+00
         21   -1    0    0  501  502  0.00000000000E+00  0.00000000000E+00  0.16101592356E+04  0.16101592356E+04  0.00000000000E+00 0.  1.
         21   -1    0    0  502  503 -0.00000000000E+00 -0.00000000000E+00 -0.27579794098E+02  0.27579794098E+02  0.00000000000E+00 0. -1.
         -6    2    1    2    0  503 -0.10323907517E+03 -0.17918775907E+02  0.54535040603E+03  0.58099521977E+03  0.17078931717E+03 0.  0.
        -24    2    3    3    0    0 -0.44548880111E+02  0.49530467818E+02  0.21464710339E+03  0.23838654525E+03  0.79478902872E+02 0.  0.
          6    2    1    2  501    0  0.10323907517E+03  0.17918775907E+02  0.10372290355E+04  0.10567438099E+04  0.17286994716E+03 0.  0.
         24    2    5    5    0    0  0.97645645577E+02  0.43412544012E+02  0.10077239208E+04  0.10170718997E+04  0.86651183592E+02 0.  0.
          5    1    5    5  501    0  0.55934295976E+01 -0.25493768105E+02  0.29505114706E+02  0.39671910222E+02  0.47000000000E+01 0. -1.
        -11    1    6    6    0    0  0.99976712973E+02  0.65302923943E+01  0.77050540199E+03  0.77699199632E+03  0.00000000000E+00 0.  1.
         12    1    6    6    0    0 -0.23310673961E+01  0.36882251618E+02  0.23721851878E+03  0.24007990339E+03  0.00000000000E+00 0. -1.
         -5    1    3    3    0  503 -0.58690195064E+02 -0.67449243725E+02  0.33070330264E+03  0.34260867451E+03  0.47000000000E+01 0.  1.
         11    1    4    4    0    0 -0.43896897326E+02 -0.77638819276E+01  0.11651027488E+03  0.12474718277E+03  0.00000000000E+00 0. -1.
        -12    1    4    4    0    0 -0.65198278505E+00  0.57294349746E+02  0.98136828512E+02  0.11363936248E+03  0.00000000000E+00 0.  1.
<mgrwt>
<rscale>  2 0.20170143E+03</rscale>
<asrwt>0</asrwt>
<pdfrwt beam="1">  1       21 0.24771673E+00 0.20214700E+03</pdfrwt>
<pdfrwt beam="2">  1       21 0.42430465E-02 0.20214700E+03</pdfrwt>
<totfact> 0.24148278E+04</totfact>
</mgrwt>
</event>
<event>
12    1  0.1026879E-001  0.2032919E+03  0.7546771E-02  0.1147049E+00
         21   -1    0    0  503  502  0.00000000000E+00  0.00000000000E+00  0.10318664593E+03  0.10318664593E+03  0.00000000000E+00 0. -1.
         21   -1    0    0  501  503 -0.00000000000E+00 -0.00000000000E+00 -0.40713664567E+03  0.40713664567E+03  0.00000000000E+00 0. -1.
          6    2    1    2  501    0  0.35782169464E+02  0.10019969889E+03 -0.11820851075E+03  0.23516129723E+03  0.17322598070E+03 0.  0.
         24    2    3    3    0    0 -0.19526867591E+02  0.75187961775E+02 -0.13164189088E+03  0.17281370485E+03  0.80625436407E+02 0.  0.
         -6    2    1    2    0  502 -0.35782169464E+02 -0.10019969889E+03 -0.18574148899E+03  0.27516199437E+03  0.17289846473E+03 0.  0.
        -24    2    5    5    0    0 -0.11568243582E+02  0.15576881758E+02 -0.76361193763E+02  0.11398919947E+03  0.82377437308E+02 0.  0.
          5    1    3    3  501    0  0.55309037055E+02  0.25011737118E+02  0.13433380129E+02  0.62347592378E+02  0.47000000000E+01 0. -1.
        -11    1    4    4    0    0 -0.40329380850E+00 -0.99881417243E+01  0.45997137793E+01  0.11003771529E+02  0.00000000000E+00 0.  1.
         12    1    4    4    0    0 -0.19123573782E+02  0.85176103499E+02 -0.13624160466E+03  0.16180993332E+03  0.00000000000E+00 0. -1.
         -5    1    5    5    0  502 -0.24213925882E+02 -0.11577658065E+03 -0.10938029522E+03  0.16117279490E+03  0.47000000000E+01 0.  1.
         11    1    6    6    0    0  0.33313502027E+02  0.16122225339E+02 -0.20427955865E+02  0.42273123234E+02  0.00000000000E+00 0. -1.
        -12    1    6    6    0    0 -0.44881745609E+02 -0.54534358028E+00 -0.55933237898E+02  0.71716076233E+02  0.00000000000E+00 0.  1.
<mgrwt>
<rscale>  2 0.20322208E+03</rscale>
<asrwt>0</asrwt>
<pdfrwt beam="1">  1       21 0.15874869E-01 0.20329187E+03</pdfrwt>
<pdfrwt beam="2">  1       21 0.62636406E-01 0.20329187E+03</pdfrwt>
<totfact> 0.83163019E+04</totfact>
</mgrwt>
</event>
<event>
12    1  0.1026879E-001  0.3251102E+03  0.7546771E-02  0.1073335E+00
         21   -1    0    0  503  502  0.00000000000E+00  0.00000000000E+00  0.58294281259E+03  0.58294281259E+03  0.00000000000E+00 0.  1.
         21   -1    0    0  501  503 -0.00000000000E+00 -0.00000000000E+00 -0.28299952185E+03  0.28299952185E+03  0.00000000000E+00 0. -1.
          6    2    1    2  501    0  0.25438896676E+03  0.10509934322E+03 -0.10966588081E+03  0.34299269956E+03  0.17279400505E+03 0.  0.
         24    2    3    3    0    0  0.12078747316E+03  0.67880187713E+01 -0.33093925154E+01  0.14589305925E+03  0.81474792346E+02 0.  0.
         -6    2    1    2    0  502 -0.25438896676E+03 -0.10509934322E+03  0.40960917155E+03  0.52294963488E+03  0.17302320322E+03 0.  0.
        -24    2    5    5    0    0 -0.15422555252E+03  0.53171197891E+01  0.19212999376E+03  0.25923807346E+03  0.80477645442E+02 0.  0.
          5    1    3    3  501    0  0.13360149360E+03  0.98311324451E+02 -0.10635648829E+03  0.19709964031E+03  0.47000000000E+01 0. -1.
        -11    1    4    4    0    0  0.90729532556E+02  0.38131114357E+02  0.13476835124E+02  0.99335064528E+02  0.00000000000E+00 0.  1.
         12    1    4    4    0    0  0.30057940604E+02 -0.31343095586E+02 -0.16786227640E+02  0.46557994723E+02  0.00000000000E+00 0. -1.
         -5    1    5    5    0  502 -0.10016341424E+03 -0.11041646301E+03  0.21747917779E+03  0.26371156142E+03  0.47000000000E+01 0.  1.
         13    1    6    6    0    0 -0.59379423712E+02 -0.77471807043E+01  0.21580088570E+02  0.63652454721E+02  0.00000000000E+00 0. -1.
        -14    1    6    6    0    0 -0.94846128805E+02  0.13064300493E+02  0.17054990519E+03  0.19558561874E+03  0.00000000000E+00 0.  1.
<mgrwt>
<rscale>  2 0.32507972E+03</rscale>
<asrwt>0</asrwt>
<pdfrwt beam="1">  1       21 0.89683510E-01 0.32511021E+03</pdfrwt>
<pdfrwt beam="2">  1       21 0.43538388E-01 0.32511021E+03</pdfrwt>
<totfact> 0.49534332E+03</totfact>
</mgrwt>
</event>
<event>
12    1  0.1026879E-001  0.1944461E+03  0.7546771E-02  0.1154772E+00
         21   -1    0    0  501  502  0.00000000000E+00  0.00000000000E+00  0.75641205364E+03  0.75641205364E+03  0.00000000000E+00 0.  1.
         21   -1    0    0  502  503 -0.00000000000E+00 -0.00000000000E+00 -0.49755780477E+02  0.49755780477E+02  0.00000000000E+00 0.  1.
         -6    2    1    2    0  503  0.25036337304E+02  0.83863076831E+02  0.33869371917E+03  0.39054156551E+03  0.17363595581E+03 0.  0.
        -24    2    3    3    0    0  0.80167405667E+02  0.46778115413E+02  0.25695428804E+03  0.28509890971E+03  0.81491577242E+02 0.  0.
          6    2    1    2  501    0 -0.25036337304E+02 -0.83863076831E+02  0.36796255400E+03  0.41562626860E+03  0.17230473055E+03 0.  0.
         24    2    5    5    0    0 -0.78922967836E+02 -0.38189061157E+02  0.26978109780E+03  0.29458258641E+03  0.79434376963E+02 0.  0.
          5    1    5    5  501    0  0.53886630531E+02 -0.45674015674E+02  0.98181456196E+02  0.12104368219E+03  0.47000000000E+01 0. -1.
        -13    1    6    6    0    0 -0.47129615767E+02 -0.62383578534E+02  0.17091184610E+03  0.18794619094E+03  0.00000000000E+00 0.  1.
         14    1    6    6    0    0 -0.31793352069E+02  0.24194517377E+02  0.98869251704E+02  0.10663639547E+03  0.00000000000E+00 0. -1.
         -5    1    3    3    0  503 -0.55131068363E+02  0.37084961418E+02  0.81739431128E+02  0.10544265581E+03  0.47000000000E+01 0.  1.
         11    1    4    4    0    0 -0.23366018986E+01  0.21055935156E+02  0.12878525990E+03  0.13051611120E+03  0.00000000000E+00 0. -1.
        -12    1    4    4    0    0  0.82504007566E+02  0.25722180257E+02  0.12816902813E+03  0.15458279851E+03  0.00000000000E+00 0.  1.
<mgrwt>
<rscale>  2 0.19414844E+03</rscale>
<asrwt>0</asrwt>
<pdfrwt beam="1">  1       21 0.11637108E+00 0.19444608E+03</pdfrwt>
<pdfrwt beam="2">  1       21 0.76547360E-02 0.19444608E+03</pdfrwt>
<totfact> 0.73734019E+04</totfact>
</mgrwt>
</event>
<event>
12    1  0.1026879E-001  0.4516136E+03  0.7546771E-02  0.1027296E+00
         21   -1    0    0  501  502  0.00000000000E+00  0.00000000000E+00  0.10185269573E+04  0.10185269573E+04  0.00000000000E+00 0. -1.
         21   -1    0    0  502  503 -0.00000000000E+00 -0.00000000000E+00 -0.34062201827E+03  0.34062201827E+03  0.00000000000E+00 0. -1.
         -6    2    1    2    0  503 -0.32937402107E+03  0.25489233549E+03 -0.97970605319E+02  0.46140866585E+03  0.17274943984E+03 0.  0.
        -24    2    3    3    0    0 -0.22867587622E+03  0.25285612602E+03 -0.76987341432E+02  0.35842007478E+03  0.79429355026E+02 0.  0.
          6    2    1    2  501    0  0.32937402107E+03 -0.25489233549E+03  0.77587554434E+03  0.89774030970E+03  0.17463520526E+03 0.  0.
         24    2    5    5    0    0  0.30068009085E+03 -0.17753731003E+03  0.54272946918E+03  0.65038161477E+03  0.80702878712E+02 0.  0.
          5    1    5    5  501    0  0.28693930221E+02 -0.77355025465E+02  0.23314607516E+03  0.24735869493E+03  0.47000000000E+01 0. -1.
        -11    1    6    6    0    0  0.15598782099E+03 -0.47885029449E+02  0.22451889056E+03  0.27754983077E+03  0.00000000000E+00 0.  1.
         12    1    6    6    0    0  0.14469226986E+03 -0.12965228058E+03  0.31821057862E+03  0.37283178400E+03  0.00000000000E+00 0. -1.
         -5    1    3    3    0  503 -0.10069814486E+03  0.20362094755E+01 -0.20983263888E+02  0.10298859107E+03  0.47000000000E+01 0.  1.
         13    1    4    4    0    0 -0.33855233345E+02  0.10409962313E+02 -0.24330791191E+02  0.42971287392E+02  0.00000000000E+00 0. -1.
        -14    1    4    4    0    0 -0.19482064287E+03  0.24244616370E+03 -0.52656550241E+02  0.31544878739E+03  0.00000000000E+00 0.  1.
<mgrwt>
<rscale>  2 0.45143198E+03</rscale>
<asrwt>0</asrwt>
<pdfrwt beam="1">  1       21 0.15669645E+00 0.45161356E+03</pdfrwt>
<pdfrwt beam="2">  1       21 0.52403388E-01 0.45161356E+03</pdfrwt>
<totfact> 0.77108101E+02</totfact>
</mgrwt>
</event>
<event>
12    1  0.1026879E-001  0.2851996E+03  0.7546771E-02  0.1092914E+00
         21   -1    0    0  501  502  0.00000000000E+00  0.00000000000E+00  0.57599538865E+03  0.57599538865E+03  0.00000000000E+00 0.  1.
         21   -1    0    0  502  503 -0.00000000000E+00 -0.00000000000E+00 -0.14403083416E+03  0.14403083416E+03  0.00000000000E+00 0.  1.
         -6    2    1    2    0  503  0.15576687915E+03 -0.16464526301E+03  0.16450501452E+03  0.32903593748E+03  0.17271758762E+03 0.  0.
        -24    2    3    3    0    0  0.35419562339E+02 -0.11374208237E+03  0.12432875483E+03  0.19224839306E+03  0.85498530157E+02 0.  0.
          6    2    1    2  501    0 -0.15576687915E+03  0.16464526301E+03  0.26745953997E+03  0.39099028533E+03  0.17311098876E+03 0.  0.
         24    2    5    5    0    0 -0.51008676407E+02  0.92106915738E+02  0.21366520303E+03  0.25259948522E+03  0.84072064053E+02 0.  0.
          5    1    5    5  501    0 -0.10475820275E+03  0.72538347275E+02  0.53794336946E+02  0.13839080011E+03  0.47000000000E+01 0. -1.
        -13    1    6    6    0    0 -0.67519870291E+02  0.95769503444E+02  0.17770888683E+03  0.21286422699E+03  0.00000000000E+00 0.  1.
         14    1    6    6    0    0  0.16511193885E+02 -0.36625877064E+01  0.35956316195E+02  0.39735258229E+02  0.00000000000E+00 0. -1.
         -5    1    3    3    0  503  0.12034731682E+03 -0.50903180643E+02  0.40176259698E+02  0.13678754442E+03  0.47000000000E+01 0.  1.
         13    1    4    4    0    0  0.63496406870E+02 -0.87454283264E+02  0.94752523607E+02  0.14372921094E+03  0.00000000000E+00 0. -1.
        -14    1    4    4    0    0 -0.28076844531E+02 -0.26287799105E+02  0.29576231219E+02  0.48519182122E+02  0.00000000000E+00 0.  1.
<mgrwt>
<rscale>  2 0.28513990E+03</rscale>
<asrwt>0</asrwt>
<pdfrwt beam="1">  1       21 0.88614674E-01 0.28519958E+03</pdfrwt>
<pdfrwt beam="2">  1       21 0.22158590E-01 0.28519958E+03</pdfrwt>
<totfact> 0.19763243E+04</totfact>
</mgrwt>
</event>
<event>
12    1  0.1026879E-001  0.1784316E+03  0.7546771E-02  0.1169930E+00
         21   -1    0    0  503  502  0.00000000000E+00  0.00000000000E+00  0.28269603539E+03  0.28269603539E+03  0.00000000000E+00 0. -1.
         21   -1    0    0  501  503 -0.00000000000E+00 -0.00000000000E+00 -0.13104527515E+03  0.13104527515E+03  0.00000000000E+00 0. -1.
          6    2    1    2  501    0  0.11046299747E+02 -0.18905779167E+02 -0.53387259631E+01  0.17607867981E+03  0.17463032458E+03 0.  0.
         24    2    3    3    0    0  0.50264106887E+02 -0.53953478183E+02  0.26730435286E+02  0.11429762522E+03  0.83138274643E+02 0.  0.
         -6    2    1    2    0  502 -0.11046299747E+02  0.18905779167E+02  0.15698948621E+03  0.23766263073E+03  0.17708296937E+03 0.  0.
        -24    2    5    5    0    0 -0.25167579294E+02  0.38393351996E+02  0.15101741547E+02  0.93671665332E+02  0.80242518425E+02 0.  0.
          5    1    3    3  501    0 -0.39217807140E+02  0.35047699016E+02 -0.32069161249E+02  0.61781054591E+02  0.47000000000E+01 0. -1.
        -11    1    4    4    0    0 -0.29072747679E+01  0.98820207514E+01  0.29423721673E+02  0.31174700926E+02  0.00000000000E+00 0.  1.
         12    1    4    4    0    0  0.53171381655E+02 -0.63835498935E+02 -0.26932863875E+01  0.83122924292E+02  0.00000000000E+00 0. -1.
         -5    1    5    5    0  502  0.14121279546E+02 -0.19487572828E+02  0.14188774466E+03  0.14399096540E+03  0.47000000000E+01 0.  1.
         11    1    6    6    0    0  0.73741854199E+01  0.46503405044E+02  0.31187260299E+02  0.56476459664E+02  0.00000000000E+00 0. -1.
        -12    1    6    6    0    0 -0.32541764713E+02 -0.81100530479E+01 -0.16085518752E+02  0.37195205667E+02  0.00000000000E+00 0.  1.
<mgrwt>
<rscale>  2 0.17781998E+03</rscale>
<asrwt>0</asrwt>
<pdfrwt beam="1">  1       21 0.43491697E-01 0.17843158E+03</pdfrwt>
<pdfrwt beam="2">  1       21 0.20160812E-01 0.17843158E+03</pdfrwt>
<totfact> 0.11614338E+05</totfact>
</mgrwt>
</event>
<event>
12    1  0.1026879E-001  0.2112771E+03  0.7546771E-02  0.1140680E+00
         21   -1    0    0  503  502  0.00000000000E+00  0.00000000000E+00  0.47904521252E+03  0.47904521252E+03  0.00000000000E+00 0.  1.
         21   -1    0    0  501  503 -0.00000000000E+00 -0.00000000000E+00 -0.10887359025E+03  0.10887359025E+03  0.00000000000E+00 0.  1.
          6    2    1    2  501    0  0.11917142975E+03 -0.21732411050E+02  0.72295341731E+02  0.22272258931E+03  0.17235024803E+03 0.  0.
         24    2    3    3    0    0  0.14697177396E+03  0.14767134111E+02  0.53059198624E+02  0.17275064582E+03  0.72171576683E+02 0.  0.
         -6    2    1    2    0  502 -0.11917142975E+03  0.21732411050E+02  0.29787628054E+03  0.36519621346E+03  0.17310074656E+03 0.  0.
        -24    2    5    5    0    0 -0.14781600498E+03  0.59153766586E+01  0.27911994797E+03  0.32718857898E+03  0.85204799440E+02 0.  0.
          5    1    3    3  501    0 -0.27800344212E+02 -0.36499545161E+02  0.19236143107E+02  0.49971943498E+02  0.47000000000E+01 0. -1.
        -13    1    4    4    0    0  0.70199645405E+02  0.36352541220E+02  0.40737867375E+01  0.79158658443E+02  0.00000000000E+00 0.  1.
         14    1    4    4    0    0  0.76772128553E+02 -0.21585407109E+02  0.48985411887E+02  0.93591987373E+02  0.00000000000E+00 0. -1.
         -5    1    5    5    0  502  0.28644575237E+02  0.15817034392E+02  0.18756332568E+02  0.38007634481E+02  0.47000000000E+01 0.  1.
         11    1    6    6    0    0 -0.23690681025E+02  0.74034788315E+01  0.13373260693E+03  0.13601643291E+03  0.00000000000E+00 0. -1.
        -12    1    6    6    0    0 -0.12412532396E+03 -0.14881021729E+01  0.14538734104E+03  0.19117214607E+03  0.00000000000E+00 0.  1.
<mgrwt>
<rscale>  2 0.21112328E+03</rscale>
<asrwt>0</asrwt>
<pdfrwt beam="1">  1       21 0.73699262E-01 0.21127706E+03</pdfrwt>
<pdfrwt beam="2">  1       21 0.16749783E-01 0.21127706E+03</pdfrwt>
<totfact> 0.52522370E+04</totfact>
</mgrwt>
</event>
<event>
12    1  0.1026879E-001  0.1823623E+03  0.7546771E-02  0.1165908E+00
         21   -1    0    0  501  502  0.00000000000E+00  0.00000000000E+00  0.22498900114E+02  0.22498900114E+02  0.00000000000E+00 0.  1.
         21   -1    0    0  502  503 -0.00000000000E+00 -0.00000000000E+00 -0.14796760457E+04  0.14796760457E+04  0.00000000000E+00 0.  1.
         -6    2    1    2    0  503  0.43052493351E+02  0.38886801953E+02 -0.79894635926E+03  0.81914949731E+03  0.17124518508E+03 0.  0.
        -24    2    3    3    0    0  0.48741550055E+02  0.12664268028E+02 -0.78013137186E+03  0.78604239229E+03  0.81985137294E+02 0.  0.
          6    2    1    2  501    0 -0.43052493351E+02 -0.38886801953E+02 -0.65823078635E+03  0.68302544853E+03  0.17288809875E+03 0.  0.
         24    2    5    5    0    0 -0.40299422113E+01 -0.63361543351E+02 -0.59976940117E+03  0.60844933961E+03  0.80351345265E+02 0.  0.
          5    1    5    5  501    0 -0.39022551139E+02  0.24474741398E+02 -0.58461385180E+02  0.74576108916E+02  0.47000000000E+01 0. -1.
        -11    1    6    6    0    0 -0.34127431909E+02 -0.58634761706E+02 -0.48427704601E+03  0.48900610853E+03  0.00000000000E+00 0.  1.
         12    1    6    6    0    0  0.30097489698E+02 -0.47267816448E+01 -0.11549235516E+03  0.11944323108E+03  0.00000000000E+00 0. -1.
         -5    1    3    3    0  503 -0.56890567044E+01  0.26222533925E+02 -0.18814987404E+02  0.33107105018E+02  0.47000000000E+01 0.  1.
         11    1    4    4    0    0 -0.17896526285E+02 -0.13600577014E+02 -0.12478983884E+03  0.12679812785E+03  0.00000000000E+00 0. -1.
        -12    1    4    4    0    0  0.66638076341E+02  0.26264845043E+02 -0.65534153302E+03  0.65924426445E+03  0.00000000000E+00 0.  1.
<mgrwt>
<rscale>  2 0.18197181E+03</rscale>
<asrwt>0</asrwt>
<pdfrwt beam="1">  1       21 0.34613690E-02 0.18236226E+03</pdfrwt>
<pdfrwt beam="2">  1       21 0.22764249E+00 0.18236226E+03</pdfrwt>
<totfact> 0.45435081E+04</totfact>
</mgrwt>
</event>
<event>
12    1  0.1026879E-001  0.2344762E+03  0.7546771E-02  0.1123603E+00
         21   -1    0    0  501  502  0.00000000000E+00  0.00000000000E+00  0.11450669334E+04  0.11450669334E+04  0.00000000000E+00 0. -1.
         21   -1    0    0  502  503 -0.00000000000E+00 -0.00000000000E+00 -0.47929984102E+02  0.47929984102E+02  0.00000000000E+00 0.  1.
         -6    2    1    2    0  503 -0.10195652571E+03 -0.12151295736E+03  0.55441686514E+03  0.60179123117E+03  0.17208745924E+03 0.  0.
        -24    2    3    3    0    0 -0.10157660689E+03 -0.65006758648E+02  0.22548013771E+03  0.26800304162E+03  0.80253673326E+02 0.  0.
          6    2    1    2  501    0  0.10195652571E+03  0.12151295736E+03  0.54272008421E+03  0.59120568638E+03  0.17268046172E+03 0.  0.
         24    2    5    5    0    0  0.70303210680E+02  0.43855852564E+02  0.14732212682E+03  0.18698521066E+03  0.79961132561E+02 0.  0.
          5    1    5    5  501    0  0.31653315035E+02  0.77657104796E+02  0.39539795739E+03  0.40422047572E+03  0.47000000000E+01 0. -1.
        -13    1    6    6    0    0 -0.15473930814E+02  0.18829538362E+02  0.20501547370E+02  0.31848194523E+02  0.00000000000E+00 0.  1.
         14    1    6    6    0    0  0.85777141494E+02  0.25026314202E+02  0.12682057945E+03  0.15513701614E+03  0.00000000000E+00 0. -1.
         -5    1    3    3    0  503 -0.37991882914E+00 -0.56506198711E+02  0.32893672743E+03  0.33378818955E+03  0.47000000000E+01 0.  1.
         11    1    4    4    0    0 -0.92026220179E+02 -0.63809868018E+02  0.23113877223E+03  0.25683780190E+03  0.00000000000E+00 0. -1.
        -12    1    4    4    0    0 -0.95503867066E+01 -0.11968906301E+01 -0.56586345221E+01  0.11165239723E+02  0.00000000000E+00 0.  1.
<mgrwt>
<rscale>  2 0.23436700E+03</rscale>
<asrwt>0</asrwt>
<pdfrwt beam="1">  1       21 0.17616412E+00 0.23447617E+03</pdfrwt>
<pdfrwt beam="2">  1       21 0.73738446E-02 0.23447617E+03</pdfrwt>
<totfact> 0.26014004E+04</totfact>
</mgrwt>
</event>
<event>
12    1  0.1026879E-001  0.2159207E+03  0.7546771E-02  0.1137473E+00
         21   -1    0    0  503  502  0.00000000000E+00  0.00000000000E+00  0.11122381828E+04  0.11122381828E+04  0.00000000000E+00 0.  1.
         21   -1    0    0  501  503 -0.00000000000E+00 -0.00000000000E+00 -0.60672859125E+02  0.60672859125E+02  0.00000000000E+00 0. -1.
          6    2    1    2  501    0  0.61485854565E+02  0.11360544113E+03  0.19749924160E+03  0.29262213080E+03  0.17301749749E+03 0.  0.
         24    2    3    3    0    0  0.81123537729E+01  0.62993928838E+02  0.19148496816E+03  0.21867270721E+03  0.84363585129E+02 0.  0.
         -6    2    1    2    0  502 -0.61485854565E+02 -0.11360544113E+03  0.85406608204E+03  0.88028891109E+03  0.16968496670E+03 0.  0.
        -24    2    5    5    0    0  0.26105178243E+02 -0.16651766831E+02  0.37912797104E+03  0.38768308158E+03  0.74842445477E+02 0.  0.
          5    1    3    3  501    0  0.53373500792E+02  0.50611512294E+02  0.60142734372E+01  0.73949423585E+02  0.47000000000E+01 0. -1.
        -11    1    4    4    0    0  0.21944631552E+02  0.55559867839E+02  0.19380169899E+03  0.20279932027E+03  0.00000000000E+00 0.  1.
         12    1    4    4    0    0 -0.13832277779E+02  0.74340609992E+01 -0.23167308326E+01  0.15873386950E+02  0.00000000000E+00 0. -1.
         -5    1    5    5    0  502 -0.87591032808E+02 -0.96953674302E+02  0.47493811100E+03  0.49260582951E+03  0.47000000000E+01 0.  1.
         11    1    6    6    0    0 -0.12018370909E+02  0.85510685387E+01  0.25471748882E+03  0.25514419673E+03  0.00000000000E+00 0. -1.
        -12    1    6    6    0    0  0.38123549153E+02 -0.25202835369E+02  0.12441048222E+03  0.13253888485E+03  0.00000000000E+00 0.  1.
<mgrwt>
<rscale>  2 0.21525237E+03</rscale>
<asrwt>0</asrwt>
<pdfrwt beam="1">  1       21 0.17111355E+00 0.21592073E+03</pdfrwt>
<pdfrwt beam="2">  1       21 0.93342869E-02 0.21592073E+03</pdfrwt>
<totfact> 0.18893486E+04</totfact>
</mgrwt>
</event>
<event>
12    1  0.1026879E-001  0.1948350E+03  0.7546771E-02  0.1155269E+00
         21   -1    0    0  501  502  0.00000000000E+00  0.00000000000E+00  0.82041181417E+02  0.82041181417E+02  0.00000000000E+00 0. -1.
         21   -1    0    0  502  503 -0.00000000000E+00 -0.00000000000E+00 -0.94255229157E+03  0.94255229157E+03  0.00000000000E+00 0.  1.
         -6    2    1    2    0  503  0.44368878494E+02 -0.76089820384E+02 -0.80285803519E+03  0.82616082097E+03  0.17378843256E+03 0.  0.
        -24    2    3    3    0    0  0.21695583741E+02 -0.11927840985E+03 -0.58706011678E+03  0.60486878734E+03  0.80799949154E+02 0.  0.
          6    2    1    2  501    0 -0.44368878494E+02  0.76089820384E+02 -0.57653074968E+02  0.19843265202E+03  0.16820636786E+03 0.  0.
         24    2    5    5    0    0  0.14337028469E+02  0.90469741775E+02 -0.65232759785E+02  0.13733676612E+03  0.78840026749E+02 0.  0.
          5    1    5    5  501    0 -0.58705906963E+02 -0.14379921391E+02  0.75796848176E+01  0.61095885897E+02  0.47000000000E+01 0. -1.
        -13    1    6    6    0    0 -0.17844392552E+02 -0.31337609516E+01 -0.24096986975E+02  0.30148094211E+02  0.00000000000E+00 0.  1.
         14    1    6    6    0    0  0.32181421021E+02  0.93603502727E+02 -0.41135772811E+02  0.10718867191E+03  0.00000000000E+00 0. -1.
         -5    1    3    3    0  503  0.22673294753E+02  0.43188589467E+02 -0.21579791841E+03  0.22129203362E+03  0.47000000000E+01 0.  1.
         13    1    4    4    0    0 -0.19239388071E+02 -0.32634539871E+02 -0.76187223666E+02  0.85086193333E+02  0.00000000000E+00 0. -1.
        -14    1    4    4    0    0  0.40934971812E+02 -0.86643869980E+02 -0.51087289311E+03  0.51978259401E+03  0.00000000000E+00 0.  1.
<mgrwt>
<rscale>  2 0.19358240E+03</rscale>
<asrwt>0</asrwt>
<pdfrwt beam="1">  1       21 0.12621720E-01 0.19483500E+03</pdfrwt>
<pdfrwt beam="2">  1       21 0.14500805E+00 0.19483500E+03</pdfrwt>
<totfact> 0.17482015E+04</totfact>
</mgrwt>
</event>
<event>
12    1  0.1026879E-001  0.1762950E+03  0.7546771E-02  0.1172284E+00
         21   -1    0    0  501  502  0.00000000000E+00  0.00000000000E+00  0.12773991026E+04  0.12773991026E+04  0.00000000000E+00 0. -1.
         21   -1    0    0  502  503 -0.00000000000E+00 -0.00000000000E+00 -0.23973347927E+02  0.23973347927E+02  0.00000000000E+00 0. -1.
         -6    2    1    2    0  503  0.14933844410E+02  0.12029864402E+02  0.67585224014E+03  0.69846702404E+03  0.17524895388E+03 0.  0.
        -24    2    3    3    0    0 -0.15095542733E+02 -0.51325916055E+02  0.49524288856E+03  0.50466932827E+03  0.81014734228E+02 0.  0.
          6    2    1    2  501    0 -0.14933844410E+02 -0.12029864402E+02  0.57757351453E+03  0.60290542647E+03  0.17186055754E+03 0.  0.
         24    2    5    5    0    0  0.49970652442E+02 -0.14551480016E+02  0.22836898960E+03  0.24768036755E+03  0.80525507649E+02 0.  0.
          5    1    5    5  501    0 -0.64904496851E+02  0.25216156135E+01  0.34920452493E+03  0.35522505892E+03  0.47000000000E+01 0. -1.
        -13    1    6    6    0    0 -0.10234502286E+02 -0.31591201671E+02  0.73783990150E+02  0.80912460489E+02  0.00000000000E+00 0.  1.
         14    1    6    6    0    0  0.60205154728E+02  0.17039721655E+02  0.15458499945E+03  0.16676790706E+03  0.00000000000E+00 0. -1.
         -5    1    3    3    0  503  0.30029387142E+02  0.63355780457E+02  0.18060935158E+03  0.19379769577E+03  0.47000000000E+01 0.  1.
         11    1    4    4    0    0  0.87987119295E+00 -0.20727172369E+01 -0.29955829157E+01  0.37475121168E+01  0.00000000000E+00 0. -1.
        -12    1    4    4    0    0 -0.15975413926E+02 -0.49253198818E+02  0.49823847147E+03  0.50092181615E+03  0.00000000000E+00 0.  1.
<mgrwt>
<rscale>  2 0.17544694E+03</rscale>
<asrwt>0</asrwt>
<pdfrwt beam="1">  1       21 0.19652289E+00 0.17629502E+03</pdfrwt>
<pdfrwt beam="2">  1       21 0.36882084E-02 0.17629502E+03</pdfrwt>
<totfact> 0.64113777E+04</totfact>
</mgrwt>
</event>
<event>
12    1  0.1026879E-001  0.2073988E+03  0.7546771E-02  0.1143801E+00
         21   -1    0    0  501  502  0.00000000000E+00  0.00000000000E+00  0.92992120441E+02  0.92992120441E+02  0.00000000000E+00 0.  1.
         21   -1    0    0  502  503 -0.00000000000E+00 -0.00000000000E+00 -0.65627319758E+03  0.65627319758E+03  0.00000000000E+00 0.  1.
         -6    2    1    2    0  503  0.40255763781E+01 -0.11348299799E+03 -0.48646821964E+03  0.52883417068E+03  0.17355015199E+03 0.  0.
        -24    2    3    3    0    0 -0.16817962545E+02 -0.85045803465E+02 -0.47826631092E+03  0.49233090433E+03  0.78328938772E+02 0.  0.
          6    2    1    2  501    0 -0.40255763781E+01  0.11348299799E+03 -0.76812857497E+02  0.22043114734E+03  0.17261251271E+03 0.  0.
         24    2    5    5    0    0 -0.50621377729E+01  0.87930599863E+02  0.19763629065E+02  0.12041561222E+03  0.79698826852E+02 0.  0.
          5    1    5    5  501    0  0.10365613948E+01  0.25552398125E+02 -0.96576486562E+02  0.10001553512E+03  0.47000000000E+01 0. -1.
        -11    1    6    6    0    0 -0.23464097695E+02  0.81368935277E+02 -0.95148418641E+01  0.85217367505E+02  0.00000000000E+00 0.  1.
         12    1    6    6    0    0  0.18401959922E+02  0.65616645857E+01  0.29278470929E+02  0.35198244716E+02  0.00000000000E+00 0. -1.
         -5    1    3    3    0  503  0.20843538923E+02 -0.28437194523E+02 -0.82019087238E+01  0.36503266345E+02  0.47000000000E+01 0.  1.
         11    1    4    4    0    0 -0.20156307818E+02 -0.42535506755E+02 -0.88497095754E+02  0.10023613139E+03  0.00000000000E+00 0. -1.
        -12    1    4    4    0    0  0.33383452729E+01 -0.42510296709E+02 -0.38976921517E+03  0.39209477294E+03  0.00000000000E+00 0.  1.
<mgrwt>
<rscale>  2 0.20720250E+03</rscale>
<asrwt>0</asrwt>
<pdfrwt beam="1">  1       21 0.14306480E-01 0.20739877E+03</pdfrwt>
<pdfrwt beam="2">  1       21 0.10096511E+00 0.20739877E+03</pdfrwt>
<totfact> 0.34025298E+04</totfact>
</mgrwt>
</event>
<event>
12    1  0.1026879E-001  0.2038712E+03  0.7546771E-02  0.1146994E+00
         21   -1    0    0  501  502  0.00000000000E+00  0.00000000000E+00  0.24496690236E+03  0.24496690236E+03  0.00000000000E+00 0.  1.
         21   -1    0    0  502  503 -0.00000000000E+00 -0.00000000000E+00 -0.21982820279E+03  0.21982820279E+03  0.00000000000E+00 0. -1.
         -6    2    1    2    0  503 -0.86983432921E+02  0.61053184677E+02 -0.10049696884E+03  0.22729519649E+03  0.17398234577E+03 0.  0.
        -24    2    3    3    0    0  0.18140008360E+02  0.33071722178E+01 -0.25360517209E+02  0.85686170560E+02  0.79743129490E+02 0.  0.
          6    2    1    2  501    0  0.86983432921E+02 -0.61053184677E+02  0.12563566841E+03  0.23749990865E+03  0.17125500422E+03 0.  0.
         24    2    5    5    0    0  0.77879787584E+02 -0.64981376136E+02  0.15739968433E+03  0.20389410925E+03  0.80686470988E+02 0.  0.
          5    1    5    5  501    0  0.91036453368E+01  0.39281914594E+01 -0.31764015914E+02  0.33605799403E+02  0.47000000000E+01 0. -1.
        -11    1    6    6    0    0  0.39320254988E+02 -0.63808409948E+02  0.50840531078E+02  0.90566855045E+02  0.00000000000E+00 0.  1.
         12    1    6    6    0    0  0.38559532595E+02 -0.11729661881E+01  0.10655915325E+03  0.11332725420E+03  0.00000000000E+00 0. -1.
         -5    1    3    3    0  503 -0.10512344128E+03  0.57746012459E+02 -0.75136451635E+02  0.14160902593E+03  0.47000000000E+01 0.  1.
         13    1    4    4    0    0  0.24898822162E+02  0.38050008003E+02 -0.20784263664E+02  0.49997400634E+02  0.00000000000E+00 0. -1.
        -14    1    4    4    0    0 -0.67588138021E+01 -0.34742835785E+02 -0.45762535448E+01  0.35688769927E+02  0.00000000000E+00 0.  1.
<mgrwt>
<rscale>  2 0.20328808E+03</rscale>
<asrwt>0</asrwt>
<pdfrwt beam="1">  1       21 0.37687216E-01 0.20387120E+03</pdfrwt>
<pdfrwt beam="2">  1       21 0.33819723E-01 0.20387120E+03</pdfrwt>
<totfact> 0.56889812E+04</totfact>
</mgrwt>
</event>
<event>
12    1  0.1026879E-001  0.1752176E+03  0.7546771E-02  0.1172649E+00
         21   -1    0    0  503  502  0.00000000000E+00  0.00000000000E+00  0.17440087837E+04  0.17440087837E+04  0.00000000000E+00 0.  1.
         21   -1    0    0  501  503 -0.00000000000E+00 -0.00000000000E+00 -0.17654458422E+02  0.17654458422E+02  0.00000000000E+00 0.  1.
          6    2    1    2  501    0 -0.46028185591E+01  0.25665066378E+02  0.79657680682E+03  0.81561990759E+03  0.17326668155E+03 0.  0.
         24    2    3    3    0    0 -0.17232978382E+02  0.31604436752E+02  0.79593938062E+03  0.80087903348E+03  0.81190594705E+02 0.  0.
         -6    2    1    2    0  502  0.46028185591E+01 -0.25665066378E+02  0.92977751848E+03  0.94604333455E+03  0.17271906495E+03 0.  0.
        -24    2    5    5    0    0  0.17412560191E+02  0.49091870282E+02  0.45120109195E+03  0.46147117780E+03  0.81608906299E+02 0.  0.
          5    1    3    3  501    0  0.12630159822E+02 -0.59393703735E+01  0.63742619261E+00  0.14740874117E+02  0.47000000000E+01 0. -1.
        -11    1    4    4    0    0  0.30531177959E+02  0.83882924996E+01  0.19034109664E+03  0.19295659965E+03  0.00000000000E+00 0.  1.
         12    1    4    4    0    0 -0.47764156341E+02  0.23216144252E+02  0.60559828398E+03  0.60792243382E+03  0.00000000000E+00 0. -1.
         -5    1    5    5    0  502 -0.12809741632E+02 -0.74756936660E+02  0.47857642653E+03  0.48457215675E+03  0.47000000000E+01 0.  1.
         11    1    6    6    0    0  0.12202337843E+02 -0.22124017004E+02  0.10721390207E+03  0.11015076020E+03  0.00000000000E+00 0. -1.
        -12    1    6    6    0    0  0.52102223478E+01  0.71215887286E+02  0.34398718988E+03  0.35132041760E+03  0.00000000000E+00 0.  1.
<mgrwt>
<rscale>  2 0.17508212E+03</rscale>
<asrwt>0</asrwt>
<pdfrwt beam="1">  1       21 0.26830891E+00 0.17521765E+03</pdfrwt>
<pdfrwt beam="2">  1       21 0.27160719E-02 0.17521765E+03</pdfrwt>
<totfact> 0.39363216E+04</totfact>
</mgrwt>
</event>
<event>
12    1  0.1026879E-001  0.2127131E+03  0.7546771E-02  0.1140063E+00
         21   -1    0    0  501  502  0.00000000000E+00  0.00000000000E+00  0.80416883284E+03  0.80416883284E+03  0.00000000000E+00 0. -1.
         21   -1    0    0  502  503 -0.00000000000E+00 -0.00000000000E+00 -0.59903869159E+02  0.59903869159E+02  0.00000000000E+00 0. -1.
         -6    2    1    2    0  503 -0.23565559552E+02  0.11492059895E+03  0.25657705397E+03  0.33328463362E+03  0.17743951850E+03 0.  0.
        -24    2    3    3    0    0 -0.24922903908E+02  0.11256357970E+03  0.27777089870E+03  0.31140617439E+03  0.80780088325E+02 0.  0.
          6    2    1    2  501    0  0.23565559552E+02 -0.11492059895E+03  0.48768790972E+03  0.53078806838E+03  0.17359261676E+03 0.  0.
         24    2    5    5    0    0  0.23300236679E+02 -0.27576596780E+02  0.99006110923E+02  0.13238541299E+03  0.80126885954E+02 0.  0.
          5    1    5    5  501    0  0.26532287221E+00 -0.87344002165E+02  0.38868179879E+03  0.39840265539E+03  0.47000000000E+01 0. -1.
        -13    1    6    6    0    0  0.37415850741E+02  0.16712140843E+02  0.52884510334E+02  0.66903011678E+02  0.00000000000E+00 0.  1.
         14    1    6    6    0    0 -0.14115614062E+02 -0.44288737623E+02  0.46121600588E+02  0.65482401310E+02  0.00000000000E+00 0. -1.
         -5    1    3    3    0  503  0.13573443561E+01  0.23570192491E+01 -0.21193844737E+02  0.21878459227E+02  0.47000000000E+01 0.  1.
         13    1    4    4    0    0 -0.10694411969E+02  0.95971426677E+02  0.12953743238E+03  0.16156989687E+03  0.00000000000E+00 0. -1.
        -14    1    4    4    0    0 -0.14228491939E+02  0.16592153020E+02  0.14823346632E+03  0.14983627752E+03  0.00000000000E+00 0.  1.
<mgrwt>
<rscale>  2 0.21190899E+03</rscale>
<asrwt>0</asrwt>
<pdfrwt beam="1">  1       21 0.12371827E+00 0.21271310E+03</pdfrwt>
<pdfrwt beam="2">  1       21 0.92159805E-02 0.21271310E+03</pdfrwt>
<totfact> 0.45370823E+04</totfact>
</mgrwt>
</event>
<event>
12    1  0.1026879E-001  0.2580663E+03  0.7546771E-02  0.1108678E+00
         21   -1    0    0  503  502  0.00000000000E+00  0.00000000000E+00  0.15041728893E+03  0.15041728893E+03  0.00000000000E+00 0. -1.
         21   -1    0    0  501  503 -0.00000000000E+00 -0.00000000000E+00 -0.47485151861E+03  0.47485151861E+03  0.00000000000E+00 0.  1.
          6    2    1    2  501    0 -0.17534916918E+03 -0.68961165917E+02 -0.75165111401E+02  0.26647456459E+03  0.17278867459E+03 0.  0.
         24    2    3    3    0    0 -0.34409876248E+02 -0.19592572464E+02  0.17823779730E+02  0.90491138711E+02  0.79391753868E+02 0.  0.
         -6    2    1    2    0  502  0.17534916918E+03  0.68961165917E+02 -0.24926911827E+03  0.35879424295E+03  0.17633843005E+03 0.  0.
        -24    2    5    5    0    0  0.51776747422E+02 -0.16395088899E+02 -0.15959911436E+03  0.18381243459E+03  0.73249595849E+02 0.  0.
          5    1    3    3  501    0 -0.14093929293E+03 -0.49368593453E+02 -0.92988891131E+02  0.17598342588E+03  0.47000000000E+01 0. -1.
        -13    1    4    4    0    0 -0.11913713803E+02 -0.90915177070E+01 -0.31716140344E+02  0.35078566521E+02  0.00000000000E+00 0.  1.
         14    1    4    4    0    0 -0.22496162445E+02 -0.10501054757E+02  0.49539920075E+02  0.55412572191E+02  0.00000000000E+00 0. -1.
         -5    1    5    5    0  502  0.12357242175E+03  0.85356254816E+02 -0.89670003910E+02  0.17498180836E+03  0.47000000000E+01 0.  1.
         11    1    6    6    0    0 -0.18292830247E+02 -0.41554569509E+01 -0.21971710874E+02  0.28890336440E+02  0.00000000000E+00 0. -1.
        -12    1    6    6    0    0  0.70069577669E+02 -0.12239631948E+02 -0.13762740349E+03  0.15492209815E+03  0.00000000000E+00 0.  1.
<mgrwt>
<rscale>  2 0.25746107E+03</rscale>
<asrwt>0</asrwt>
<pdfrwt beam="1">  1       21 0.23141122E-01 0.25806630E+03</pdfrwt>
<pdfrwt beam="2">  1       21 0.73054078E-01 0.25806630E+03</pdfrwt>
<totfact> 0.28618808E+04</totfact>
</mgrwt>
</event>
<event>
12    1  0.1026879E-001  0.1785091E+03  0.7546771E-02  0.1169533E+00
         21   -1    0    0  503  502  0.00000000000E+00  0.00000000000E+00  0.84614144169E+03  0.84614144169E+03  0.00000000000E+00 0.  1.
         21   -1    0    0  501  503 -0.00000000000E+00 -0.00000000000E+00 -0.15983463490E+03  0.15983463490E+03  0.00000000000E+00 0.  1.
          6    2    1    2  501    0  0.40106314663E+02 -0.18133902747E+02 -0.97290704587E+02  0.20230291156E+03  0.17182442178E+03 0.  0.
         24    2    3    3    0    0  0.51471150520E+02  0.43735225126E+02 -0.12741672987E+02  0.96815579509E+02  0.68182526739E+02 0.  0.
         -6    2    1    2    0  502 -0.40106314663E+02  0.18133902747E+02  0.78359751137E+03  0.80367316503E+03  0.17299751867E+03 0.  0.
        -24    2    5    5    0    0  0.14291300743E+02 -0.45616434153E+02  0.43972759074E+03  0.44970732158E+03  0.81186333118E+02 0.  0.
          5    1    3    3  501    0 -0.11364835857E+02 -0.61869127874E+02 -0.84549031600E+02  0.10548733205E+03  0.47000000000E+01 0. -1.
        -11    1    4    4    0    0  0.41005690940E+02  0.31273611823E+02 -0.39866893547E+02  0.65183392724E+02  0.00000000000E+00 0.  1.
         12    1    4    4    0    0  0.10465459579E+02  0.12461613303E+02  0.27125220560E+02  0.31632186785E+02  0.00000000000E+00 0. -1.
         -5    1    5    5    0  502 -0.54397615405E+02  0.63750336901E+02  0.34386992063E+03  0.35396584346E+03  0.47000000000E+01 0.  1.
         13    1    6    6    0    0  0.35585934892E+02 -0.43590248953E+02  0.16871122463E+03  0.17784809778E+03  0.00000000000E+00 0. -1.
        -14    1    6    6    0    0 -0.21294634150E+02 -0.20261851999E+01  0.27101636610E+03  0.27185922380E+03  0.00000000000E+00 0.  1.
<mgrwt>
<rscale>  2 0.17822425E+03</rscale>
<asrwt>0</asrwt>
<pdfrwt beam="1">  1       21 0.13017560E+00 0.17850909E+03</pdfrwt>
<pdfrwt beam="2">  1       21 0.24589944E-01 0.17850909E+03</pdfrwt>
<totfact> 0.68102225E+03</totfact>
</mgrwt>
</event>
<event>
12    1  0.1026879E-001  0.2685323E+03  0.7546771E-02  0.1102403E+00
         21   -1    0    0  501  502  0.00000000000E+00  0.00000000000E+00  0.73834911199E+02  0.73834911199E+02  0.00000000000E+00 0.  1.
         21   -1    0    0  502  503 -0.00000000000E+00 -0.00000000000E+00 -0.10253949429E+04  0.10253949429E+04  0.00000000000E+00 0.  1.
         -6    2    1    2    0  503  0.70652273523E+02 -0.19313857412E+03 -0.34592323994E+03  0.43673040095E+03  0.16963579402E+03 0.  0.
        -24    2    3    3    0    0 -0.20056147562E+01 -0.27654563317E+02 -0.12743086162E+03  0.15313714302E+03  0.80271805230E+02 0.  0.
          6    2    1    2  501    0 -0.70652273523E+02  0.19313857412E+03 -0.60563679173E+03  0.66249945312E+03  0.17267121741E+03 0.  0.
         24    2    5    5    0    0 -0.73670223212E+02  0.21163004882E+03 -0.48507811363E+03  0.54040306692E+03  0.80747254233E+02 0.  0.
          5    1    5    5  501    0  0.30179496893E+01 -0.18491474703E+02 -0.12055867811E+03  0.12209638620E+03  0.47000000000E+01 0. -1.
        -11    1    6    6    0    0 -0.72422548985E+02  0.85824044657E+02 -0.23579518823E+03  0.26117075456E+03  0.00000000000E+00 0.  1.
         12    1    6    6    0    0 -0.12476742270E+01  0.12580600416E+03 -0.24928292539E+03  0.27923231236E+03  0.00000000000E+00 0. -1.
         -5    1    3    3    0  503  0.72657888279E+02 -0.16548401080E+03 -0.21849237832E+03  0.28359325793E+03  0.47000000000E+01 0.  1.
         13    1    4    4    0    0 -0.13088428722E+02 -0.77230702163E+01  0.70382762924E+01  0.16747839059E+02  0.00000000000E+00 0. -1.
        -14    1    4    4    0    0  0.11082813966E+02 -0.19931493101E+02 -0.13446913791E+03  0.13638930396E+03  0.00000000000E+00 0.  1.
<mgrwt>
<rscale>  2 0.26804556E+03</rscale>
<asrwt>0</asrwt>
<pdfrwt beam="1">  1       21 0.11359217E-01 0.26853231E+03</pdfrwt>
<pdfrwt beam="2">  1       21 0.15775307E+00 0.26853231E+03</pdfrwt>
<totfact> 0.16146104E+04</totfact>
</mgrwt>
</event>
<event>
12    1  0.1026879E-001  0.1808394E+03  0.7546771E-02  0.1167106E+00
         21   -1    0    0  503  502  0.00000000000E+00  0.00000000000E+00  0.12579030298E+04  0.12579030298E+04  0.00000000000E+00 0. -1.
         21   -1    0    0  501  503 -0.00000000000E+00 -0.00000000000E+00 -0.32423699871E+02  0.32423699871E+02  0.00000000000E+00 0. -1.
          6    2    1    2  501    0  0.47752032883E+02  0.20434807671E+02  0.32338538215E+03  0.37028521455E+03  0.17272867949E+03 0.  0.
         24    2    3    3    0    0  0.52276308330E+02  0.48364591928E+02  0.32398468185E+03  0.34159739349E+03  0.81552185772E+02 0.  0.
         -6    2    1    2    0  502 -0.47752032883E+02 -0.20434807671E+02  0.90209394783E+03  0.92004151517E+03  0.17321968974E+03 0.  0.
        -24    2    5    5    0    0 -0.71585417615E+02  0.66209064261E+01  0.84983304986E+03  0.85637572098E+03  0.77426445293E+02 0.  0.
          5    1    3    3  501    0 -0.45242754469E+01 -0.27929784257E+02 -0.59929969911E+00  0.28687821058E+02  0.47000000000E+01 0. -1.
        -13    1    4    4    0    0  0.70341905396E+02  0.19174208247E+02  0.19715396951E+03  0.21020304853E+03  0.00000000000E+00 0.  1.
         14    1    4    4    0    0 -0.18065597066E+02  0.29190383681E+02  0.12683071233E+03  0.13139434496E+03  0.00000000000E+00 0. -1.
         -5    1    5    5    0  502  0.23833384732E+02 -0.27055714097E+02  0.52260897964E+02  0.63665794184E+02  0.47000000000E+01 0.  1.
         13    1    6    6    0    0 -0.23079226942E+02 -0.27765821874E+02  0.16185671667E+03  0.16583482238E+03  0.00000000000E+00 0. -1.
        -14    1    6    6    0    0 -0.48506190673E+02  0.34386728300E+02  0.68797633319E+03  0.69054089860E+03  0.00000000000E+00 0.  1.
<mgrwt>
<rscale>  2 0.18072175E+03</rscale>
<asrwt>0</asrwt>
<pdfrwt beam="1">  1       21 0.19352351E+00 0.18083943E+03</pdfrwt>
<pdfrwt beam="2">  1       21 0.49882625E-02 0.18083943E+03</pdfrwt>
<totfact> 0.40255999E+04</totfact>
</mgrwt>
</event>
<event>
12    1  0.1026879E-001  0.1800054E+03  0.7546771E-02  0.1168300E+00
         21   -1    0    0  501  502  0.00000000000E+00  0.00000000000E+00  0.49341182078E+03  0.49341182078E+03  0.00000000000E+00 0. -1.
         21   -1    0    0  502  503 -0.00000000000E+00 -0.00000000000E+00 -0.83963887574E+02  0.83963887574E+02  0.00000000000E+00 0.  1.
         -6    2    1    2    0  503  0.41525967675E+02  0.10288213292E+02  0.68145301098E+02  0.19247261749E+03  0.17484757104E+03 0.  0.
        -24    2    3    3    0    0 -0.40995079321E+02 -0.17153139388E+02  0.22587238664E+02  0.94185395094E+02  0.79911692380E+02 0.  0.
          6    2    1    2  501    0 -0.41525967675E+02 -0.10288213292E+02  0.34130263211E+03  0.38490309086E+03  0.17272130542E+03 0.  0.
         24    2    5    5    0    0  0.18400776046E+02 -0.58082166073E+02  0.20563336426E+03  0.22900659708E+03  0.80292057103E+02 0.  0.
          5    1    5    5  501    0 -0.59926743721E+02  0.47793952781E+02  0.13566926784E+03  0.15589649378E+03  0.47000000000E+01 0. -1.
        -11    1    6    6    0    0 -0.28933614356E+02 -0.30162431917E+02  0.58111777053E+02  0.71581456894E+02  0.00000000000E+00 0.  1.
         12    1    6    6    0    0  0.47334390402E+02 -0.27919734156E+02  0.14752158721E+03  0.15742514019E+03  0.00000000000E+00 0. -1.
         -5    1    3    3    0  503  0.82521046996E+02  0.27441352680E+02  0.45558062434E+02  0.98287222399E+02  0.47000000000E+01 0.  1.
         13    1    4    4    0    0  0.24164940288E+02 -0.81380461866E+01  0.88088982137E+01  0.26977190784E+02  0.00000000000E+00 0. -1.
        -14    1    4    4    0    0 -0.65160019609E+02 -0.90150932014E+01  0.13778340450E+02  0.67208204309E+02  0.00000000000E+00 0.  1.
<mgrwt>
<rscale>  2 0.17948696E+03</rscale>
<asrwt>0</asrwt>
<pdfrwt beam="1">  1       21 0.75909509E-01 0.18000535E+03</pdfrwt>
<pdfrwt beam="2">  1       21 0.12917521E-01 0.18000535E+03</pdfrwt>
<totfact> 0.79999583E+04</totfact>
</mgrwt>
</event>
<event>
12    1  0.1026879E-001  0.1795912E+03  0.7546771E-02  0.1171592E+00
         21   -1    0    0  503  502  0.00000000000E+00  0.00000000000E+00  0.34298665090E+03  0.34298665090E+03  0.00000000000E+00 0.  1.
         21   -1    0    0  501  503 -0.00000000000E+00 -0.00000000000E+00 -0.88140003289E+02  0.88140003289E+02  0.00000000000E+00 0.  1.
          6    2    1    2  501    0  0.44626340482E+02  0.28445836840E+02  0.14543306636E+03  0.22083086705E+03  0.15752720132E+03 0.  0.
         24    2    3    3    0    0  0.20949911416E+02 -0.37488525302E+02  0.10334569614E+03  0.13896909248E+03  0.82388029691E+02 0.  0.
         -6    2    1    2    0  502 -0.44626340482E+02 -0.28445836840E+02  0.10941358126E+03  0.21029578714E+03  0.17161675450E+03 0.  0.
        -24    2    5    5    0    0 -0.42752054789E+01  0.36972516766E+02  0.20490759651E+02  0.92664442306E+02  0.82350368906E+02 0.  0.
          5    1    3    3  501    0  0.23676429066E+02  0.65934362143E+02  0.42087370216E+02  0.81861774573E+02  0.47000000000E+01 0. -1.
        -11    1    4    4    0    0 -0.15317009601E+02 -0.38175763712E+02  0.92300382851E+02  0.10105127606E+03  0.00000000000E+00 0.  1.
         12    1    4    4    0    0  0.36266921017E+02  0.68723840931E+00  0.11045313288E+02  0.37917816423E+02  0.00000000000E+00 0. -1.
         -5    1    5    5    0  502 -0.40351135003E+02 -0.65418353607E+02  0.88922821608E+02  0.11763134483E+03  0.47000000000E+01 0.  1.
         11    1    6    6    0    0 -0.33444138898E+02 -0.74745283829E+01 -0.32854740836E+01  0.34426346613E+02  0.00000000000E+00 0. -1.
        -12    1    6    6    0    0  0.29168933419E+02  0.44447045149E+02  0.23776233734E+02  0.58238095693E+02  0.00000000000E+00 0.  1.
<mgrwt>
<rscale>  2 0.17613993E+03</rscale>
<asrwt>0</asrwt>
<pdfrwt beam="1">  1       21 0.52767176E-01 0.17959116E+03</pdfrwt>
<pdfrwt beam="2">  1       21 0.13560001E-01 0.17959116E+03</pdfrwt>
<totfact> 0.16102474E+05</totfact>
</mgrwt>
</event>
<event>
12    1  0.1026879E-001  0.3403037E+03  0.7546771E-02  0.1066809E+00
         21   -1    0    0  501  502  0.00000000000E+00  0.00000000000E+00  0.19288666374E+04  0.19288666374E+04  0.00000000000E+00 0. -1.
         21   -1    0    0  502  503 -0.00000000000E+00 -0.00000000000E+00 -0.72112205810E+02  0.72112205810E+02  0.00000000000E+00 0. -1.
         -6    2    1    2    0  503  0.22351450069E+03  0.18739320406E+03  0.51350201724E+03  0.61528996871E+03  0.17269186125E+03 0.  0.
        -24    2    3    3    0    0  0.19170959040E+03  0.76771411088E+02  0.36247035993E+03  0.42533896211E+03  0.82958147593E+02 0.  0.
          6    2    1    2  501    0 -0.22351450069E+03 -0.18739320406E+03  0.13432524143E+04  0.13856888745E+04  0.17530448740E+03 0.  0.
         24    2    5    5    0    0 -0.12335215776E+03 -0.12724228774E+03  0.10846682876E+04  0.11018958720E+04  0.79138258235E+02 0.  0.
          5    1    5    5  501    0 -0.10016234294E+03 -0.60150916313E+02  0.25858412667E+03  0.28379300245E+03  0.47000000000E+01 0. -1.
        -13    1    6    6    0    0  0.80570565540E+01  0.34291668547E+01  0.46735297793E+02  0.47548537363E+02  0.00000000000E+00 0.  1.
         14    1    6    6    0    0 -0.13140921431E+03 -0.13067145460E+03  0.10379329898E+04  0.10543473346E+04  0.00000000000E+00 0. -1.
         -5    1    3    3    0  503  0.31804910291E+02  0.11062179297E+03  0.15103165731E+03  0.18995100660E+03  0.47000000000E+01 0.  1.
         11    1    4    4    0    0  0.13769869815E+03  0.73705028250E+02  0.19790971312E+03  0.25211429394E+03  0.00000000000E+00 0. -1.
        -12    1    4    4    0    0  0.54010892252E+02  0.30663828383E+01  0.16456064681E+03  0.17322466818E+03  0.00000000000E+00 0.  1.
<mgrwt>
<rscale>  2 0.33996859E+03</rscale>
<asrwt>0</asrwt>
<pdfrwt beam="1">  1       21 0.29674867E+00 0.34030370E+03</pdfrwt>
<pdfrwt beam="2">  1       21 0.11094187E-01 0.34030370E+03</pdfrwt>
<totfact> 0.20994523E+03</totfact>
</mgrwt>
</event>
<event>
12    1  0.1026879E-001  0.1829447E+03  0.7546771E-02  0.1171040E+00
         21   -1    0    0  501  502  0.00000000000E+00  0.00000000000E+00  0.85651981118E+02  0.85651981118E+02  0.00000000000E+00 0. -1.
         21   -1    0    0  502  503 -0.00000000000E+00 -0.00000000000E+00 -0.72196988400E+03  0.72196988400E+03  0.00000000000E+00 0. -1.
         -6    2    1    2    0  503  0.14814242263E+02 -0.38644717733E+02 -0.60044698186E+03  0.62119367054E+03  0.15372742862E+03 0.  0.
        -24    2    3    3    0    0  0.43490140946E+02 -0.46720298091E+02 -0.56612901932E+03  0.57550631215E+03  0.81432611397E+02 0.  0.
          6    2    1    2  501    0 -0.14814242263E+02  0.38644717733E+02 -0.35870921020E+02  0.18642819458E+03  0.17820177546E+03 0.  0.
         24    2    5    5    0    0 -0.74400335678E+02  0.45840555073E+02  0.30524379461E+01  0.11473858252E+03  0.74289020071E+02 0.  0.
          5    1    5    5  501    0  0.59586093415E+02 -0.71958373400E+01 -0.38923358966E+02  0.71689612055E+02  0.47000000000E+01 0. -1.
        -11    1    6    6    0    0 -0.17122884283E+02 -0.16375711406E+02  0.16822641656E+02  0.29057845111E+02  0.00000000000E+00 0.  1.
         12    1    6    6    0    0 -0.57277451395E+02  0.62216266479E+02 -0.13770203710E+02  0.85680737410E+02  0.00000000000E+00 0. -1.
         -5    1    3    3    0  503 -0.28675898683E+02  0.80755803575E+01 -0.34317962540E+02  0.45687358386E+02  0.47000000000E+01 0.  1.
         11    1    4    4    0    0 -0.13538570533E+02 -0.42993179417E+02 -0.20627068687E+03  0.21113811269E+03  0.00000000000E+00 0. -1.
        -12    1    4    4    0    0  0.57028711479E+02 -0.37271186739E+01 -0.35985833245E+03  0.36436819946E+03  0.00000000000E+00 0.  1.
<mgrwt>
<rscale>  2 0.17669584E+03</rscale>
<asrwt>0</asrwt>
<pdfrwt beam="1">  1       21 0.13177228E-01 0.18294466E+03</pdfrwt>
<pdfrwt beam="2">  1       21 0.11107229E+00 0.18294466E+03</pdfrwt>
<totfact> 0.31819804E+04</totfact>
</mgrwt>
</event>
<event>
12    1  0.1026879E-001  0.1745962E+03  0.7546771E-02  0.1174441E+00
         21   -1    0    0  501  502  0.00000000000E+00  0.00000000000E+00  0.29610507051E+03  0.29610507051E+03  0.00000000000E+00 0.  1.
         21   -1    0    0  502  503 -0.00000000000E+00 -0.00000000000E+00 -0.15963265000E+03  0.15963265000E+03  0.00000000000E+00 0. -1.
         -6    2    1    2    0  503  0.16602055286E+02 -0.10613958224E+02 -0.71696839500E+02  0.18404253139E+03  0.16835359282E+03 0.  0.
        -24    2    3    3    0    0 -0.32785315581E+02 -0.47251143677E+02 -0.12465093511E+02  0.98532967643E+02  0.79030498288E+02 0.  0.
          6    2    1    2  501    0 -0.16602055286E+02  0.10613958224E+02  0.20816926001E+03  0.27169518912E+03  0.17348069238E+03 0.  0.
         24    2    5    5    0    0  0.48479647550E+02 -0.28480748955E+02  0.10916773262E+03  0.14684561323E+03  0.80527082360E+02 0.  0.
          5    1    5    5  501    0 -0.65081702836E+02  0.39094707180E+02  0.99001527396E+02  0.12484957589E+03  0.47000000000E+01 0. -1.
        -13    1    6    6    0    0 -0.11045942695E+02 -0.36496592770E+02  0.40959262737E+02  0.55961373623E+02  0.00000000000E+00 0.  1.
         14    1    6    6    0    0  0.59525590245E+02  0.80158438144E+01  0.68208469880E+02  0.90884239610E+02  0.00000000000E+00 0. -1.
         -5    1    3    3    0  503  0.49387370867E+02  0.36637185452E+02 -0.59231745988E+02  0.85509563745E+02  0.47000000000E+01 0.  1.
         11    1    4    4    0    0 -0.26478655296E+02  0.61027157475E+01  0.21777717031E+02  0.34822855782E+02  0.00000000000E+00 0. -1.
        -12    1    4    4    0    0 -0.63066602857E+01 -0.53353859424E+02 -0.34242810542E+02  0.63710111860E+02  0.00000000000E+00 0.  1.
<mgrwt>
<rscale>  2 0.17330870E+03</rscale>
<asrwt>0</asrwt>
<pdfrwt beam="1">  1       21 0.45554626E-01 0.17459621E+03</pdfrwt>
<pdfrwt beam="2">  1       21 0.24558869E-01 0.17459621E+03</pdfrwt>
<totfact> 0.72964997E+04</totfact>
</mgrwt>
</event>
<event>
12    1  0.1026879E-001  0.1987984E+03  0.7546771E-02  0.1150917E+00
         21   -1    0    0  501  502  0.00000000000E+00  0.00000000000E+00  0.12785965651E+03  0.12785965651E+03  0.00000000000E+00 0. -1.
         21   -1    0    0  502  503 -0.00000000000E+00 -0.00000000000E+00 -0.41301950319E+03  0.41301950319E+03  0.00000000000E+00 0. -1.
         -6    2    1    2    0  503 -0.83579249949E+02 -0.50337369948E+02 -0.27919606985E+03  0.34274076793E+03  0.17320925711E+03 0.  0.
        -24    2    3    3    0    0 -0.18578493054E+02 -0.87177171311E+02 -0.20808844219E+03  0.23949032448E+03  0.78165184990E+02 0.  0.
          6    2    1    2  501    0  0.83579249949E+02  0.50337369948E+02 -0.59637768357E+01  0.19813839178E+03  0.17234823418E+03 0.  0.
         24    2    5    5    0    0 -0.23246409008E+02  0.33569127088E+02 -0.74758943127E-01  0.89742515878E+02  0.79915153394E+02 0.  0.
          5    1    5    5  501    0  0.10682565896E+03  0.16768242861E+02 -0.58890178926E+01  0.10839587590E+03  0.47000000000E+01 0. -1.
        -13    1    6    6    0    0  0.14797292634E+02  0.29220836129E+02 -0.27398107346E+02  0.42702147716E+02  0.00000000000E+00 0.  1.
         14    1    6    6    0    0 -0.38043701642E+02  0.43482909588E+01  0.27323348403E+02  0.47040368162E+02  0.00000000000E+00 0. -1.
         -5    1    3    3    0  503 -0.65000756895E+02  0.36839801363E+02 -0.71107627652E+02  0.10325044345E+03  0.47000000000E+01 0.  1.
         11    1    4    4    0    0 -0.34665511171E+02 -0.12508752121E+02 -0.10434241843E+03  0.11065941817E+03  0.00000000000E+00 0. -1.
        -12    1    4    4    0    0  0.16087018118E+02 -0.74668419190E+02 -0.10374602376E+03  0.12883090632E+03  0.00000000000E+00 0.  1.
<mgrwt>
<rscale>  2 0.19861066E+03</rscale>
<asrwt>0</asrwt>
<pdfrwt beam="1">  1       21 0.19670716E-01 0.19879836E+03</pdfrwt>
<pdfrwt beam="2">  1       21 0.63541462E-01 0.19879836E+03</pdfrwt>
<totfact> 0.54353734E+04</totfact>
</mgrwt>
</event>
<event>
12    1  0.1026879E-001  0.1856681E+03  0.7546771E-02  0.1163148E+00
         21   -1    0    0  501  502  0.00000000000E+00  0.00000000000E+00  0.35504336232E+03  0.35504336232E+03  0.00000000000E+00 0. -1.
         21   -1    0    0  502  503 -0.00000000000E+00 -0.00000000000E+00 -0.12967814157E+03  0.12967814157E+03  0.00000000000E+00 0. -1.
         -6    2    1    2    0  503 -0.27815079094E+02 -0.58817505642E+02 -0.12441495530E+02  0.18301852164E+03  0.17061011358E+03 0.  0.
        -24    2    3    3    0    0 -0.13551251086E+02 -0.22557933025E+02 -0.73925607485E+02  0.11007608256E+03  0.77196190068E+02 0.  0.
          6    2    1    2  501    0  0.27815079094E+02  0.58817505642E+02  0.23780671627E+03  0.30170298225E+03  0.17389501891E+03 0.  0.
         24    2    5    5    0    0  0.67591275247E+01  0.10100387512E+03  0.21042063511E+03  0.24697519856E+03  0.80451453881E+02 0.  0.
          5    1    5    5  501    0  0.21055951569E+02 -0.42186369479E+02  0.27386081167E+02  0.54727783693E+02  0.47000000000E+01 0. -1.
        -13    1    6    6    0    0 -0.18440111952E+02  0.46234691772E+02  0.33332654436E+02  0.59906179178E+02  0.00000000000E+00 0.  1.
         14    1    6    6    0    0  0.25199239476E+02  0.54769183349E+02  0.17708798067E+03  0.18706901938E+03  0.00000000000E+00 0. -1.
         -5    1    3    3    0  503 -0.14263828007E+02 -0.36259572617E+02  0.61484111955E+02  0.72942439078E+02  0.47000000000E+01 0.  1.
         13    1    4    4    0    0  0.20687259684E+02 -0.27869868587E+02 -0.65944038915E+02  0.74520524399E+02  0.00000000000E+00 0. -1.
        -14    1    4    4    0    0 -0.34238510770E+02  0.53119355616E+01 -0.79815685700E+01  0.35555558159E+02  0.00000000000E+00 0.  1.
<mgrwt>
<rscale>  2 0.18489507E+03</rscale>
<asrwt>0</asrwt>
<pdfrwt beam="1">  1       21 0.54622055E-01 0.18566813E+03</pdfrwt>
<pdfrwt beam="2">  1       21 0.19950483E-01 0.18566813E+03</pdfrwt>
<totfact> 0.73611741E+04</totfact>
</mgrwt>
</event>
<event>
12    1  0.1026879E-001  0.2744659E+03  0.7546771E-02  0.1099023E+00
         21   -1    0    0  503  502  0.00000000000E+00  0.00000000000E+00  0.63329590901E+03  0.63329590901E+03  0.00000000000E+00 0.  1.
         21   -1    0    0  501  503 -0.00000000000E+00 -0.00000000000E+00 -0.15326739250E+03  0.15326739250E+03  0.00000000000E+00 0. -1.
          6    2    1    2  501    0 -0.31480876995E+01 -0.20963653707E+03  0.51010667834E+02  0.27726198365E+03  0.17411126101E+03 0.  0.
         24    2    3    3    0    0  0.26806204181E+02 -0.46147963125E+02  0.55925882606E+02  0.11091288462E+03  0.79534624819E+02 0.  0.
         -6    2    1    2    0  502  0.31480876995E+01  0.20963653707E+03  0.42901784868E+03  0.50930131786E+03  0.17712743931E+03 0.  0.
        -24    2    5    5    0    0 -0.15050361015E+02  0.21746095337E+02  0.17059749069E+03  0.18924324024E+03  0.77524796778E+02 0.  0.
          5    1    3    3  501    0 -0.29954291881E+02 -0.16348857394E+03 -0.49152147725E+01  0.16634909903E+03  0.47000000000E+01 0. -1.
        -11    1    4    4    0    0  0.45726752955E+02 -0.15313853248E+02  0.50505261689E+01  0.48486677054E+02  0.00000000000E+00 0.  1.
         12    1    4    4    0    0 -0.18920548774E+02 -0.30834109877E+02  0.50875356437E+02  0.62426207561E+02  0.00000000000E+00 0. -1.
         -5    1    5    5    0  502  0.18198448715E+02  0.18789044173E+03  0.25842035799E+03  0.32005807763E+03  0.47000000000E+01 0.  1.
         11    1    6    6    0    0 -0.45391224141E+02  0.47456981739E+01  0.11423106547E+03  0.12301065482E+03  0.00000000000E+00 0. -1.
        -12    1    6    6    0    0  0.30340863125E+02  0.17000397163E+02  0.56366425218E+02  0.66232585415E+02  0.00000000000E+00 0.  1.
<mgrwt>
<rscale>  2 0.27398040E+03</rscale>
<asrwt>0</asrwt>
<pdfrwt beam="1">  1       21 0.97430139E-01 0.27446588E+03</pdfrwt>
<pdfrwt beam="2">  1       21 0.23579599E-01 0.27446588E+03</pdfrwt>
<totfact> 0.14107541E+04</totfact>
</mgrwt>
</event>
<event>
12    1  0.1026879E-001  0.2967565E+03  0.7546771E-02  0.1086886E+00
         21   -1    0    0  501  502  0.00000000000E+00  0.00000000000E+00  0.45150255982E+03  0.45150255982E+03  0.00000000000E+00 0.  1.
         21   -1    0    0  502  503 -0.00000000000E+00 -0.00000000000E+00 -0.30283652800E+03  0.30283652800E+03  0.00000000000E+00 0. -1.
         -6    2    1    2    0  503 -0.20975286513E+02  0.24028539765E+03 -0.15076027583E+03  0.33276997258E+03  0.17271409587E+03 0.  0.
        -24    2    3    3    0    0 -0.38013128520E+02  0.18075352942E+03 -0.17488140056E+03  0.26614978004E+03  0.78328569600E+02 0.  0.
          6    2    1    2  501    0  0.20975286513E+02 -0.24028539765E+03  0.29942630765E+03  0.42156911524E+03  0.17287964092E+03 0.  0.
         24    2    5    5    0    0 -0.13284679854E+02 -0.24245511935E+03  0.28835280744E+03  0.38519377477E+03  0.79157658802E+02 0.  0.
          5    1    5    5  501    0  0.34259966367E+02  0.21697216949E+01  0.11073500210E+02  0.36375340474E+02  0.47000000000E+01 0. -1.
        -13    1    6    6    0    0 -0.14702258468E+02 -0.64464572576E+02  0.13469404231E+03  0.15004773425E+03  0.00000000000E+00 0.  1.
         14    1    6    6    0    0  0.14175786146E+01 -0.17799054677E+03  0.15365876513E+03  0.23514604052E+03  0.00000000000E+00 0. -1.
         -5    1    3    3    0  503  0.17037842007E+02  0.59531868230E+02  0.24121124731E+02  0.66620192536E+02  0.47000000000E+01 0.  1.
         11    1    4    4    0    0 -0.30522273405E+02  0.18747453964E+03 -0.16095488233E+03  0.24896744030E+03  0.00000000000E+00 0. -1.
        -12    1    4    4    0    0 -0.74908551149E+01 -0.67210102177E+01 -0.13926518237E+02  0.17182339739E+02  0.00000000000E+00 0.  1.
<mgrwt>
<rscale>  2 0.29673237E+03</rscale>
<asrwt>0</asrwt>
<pdfrwt beam="1">  1       21 0.69461932E-01 0.29675647E+03</pdfrwt>
<pdfrwt beam="2">  1       21 0.46590235E-01 0.29675647E+03</pdfrwt>
<totfact> 0.78177950E+03</totfact>
</mgrwt>
</event>
<event>
12    1  0.1026879E-001  0.1737052E+03  0.7546771E-02  0.1174286E+00
         21   -1    0    0  501  502  0.00000000000E+00  0.00000000000E+00  0.15627265879E+03  0.15627265879E+03  0.00000000000E+00 0. -1.
         21   -1    0    0  502  503 -0.00000000000E+00 -0.00000000000E+00 -0.22515618820E+03  0.22515618820E+03  0.00000000000E+00 0. -1.
         -6    2    1    2    0  503  0.73422032576E+01 -0.11394168103E+02 -0.10770733853E+03  0.20438778566E+03  0.17317552119E+03 0.  0.
        -24    2    3    3    0    0  0.14996629621E+02 -0.53300176307E+02 -0.10536680130E+02  0.98185475795E+02  0.80396258213E+02 0.  0.
          6    2    1    2  501    0 -0.73422032576E+01  0.11394168103E+02  0.38823809130E+02  0.17704106133E+03  0.17219905408E+03 0.  0.
         24    2    5    5    0    0  0.22129972555E+02  0.51505117599E+02 -0.20434069166E+02  0.99509883366E+02  0.79637634825E+02 0.  0.
          5    1    5    5  501    0 -0.29472175813E+02 -0.40110949496E+02  0.59257878296E+02  0.77531177965E+02  0.47000000000E+01 0. -1.
        -13    1    6    6    0    0 -0.10408416336E+02 -0.17247931566E+02  0.19007087381E+01  0.20234598282E+02  0.00000000000E+00 0.  1.
         14    1    6    6    0    0  0.32538388891E+02  0.68753049165E+02 -0.22334777904E+02  0.79275285084E+02  0.00000000000E+00 0. -1.
         -5    1    3    3    0  503 -0.76544263638E+01  0.41906008203E+02 -0.97170658400E+02  0.10620230986E+03  0.47000000000E+01 0.  1.
         11    1    4    4    0    0  0.45147866715E+02 -0.16215864201E+02 -0.14794977186E+02  0.50201349290E+02  0.00000000000E+00 0. -1.
        -12    1    4    4    0    0 -0.30151237093E+02 -0.37084312106E+02  0.42582970553E+01  0.47984126505E+02  0.00000000000E+00 0.  1.
<mgrwt>
<rscale>  2 0.17346132E+03</rscale>
<asrwt>0</asrwt>
<pdfrwt beam="1">  1       21 0.24041948E-01 0.17370520E+03</pdfrwt>
<pdfrwt beam="2">  1       21 0.34639413E-01 0.17370520E+03</pdfrwt>
<totfact> 0.13192721E+05</totfact>
</mgrwt>
</event>
<event>
12    1  0.1026879E-001  0.2090188E+03  0.7546771E-02  0.1143073E+00
         21   -1    0    0  503  502  0.00000000000E+00  0.00000000000E+00  0.91146261311E+03  0.91146261311E+03  0.00000000000E+00 0.  1.
         21   -1    0    0  501  503 -0.00000000000E+00 -0.00000000000E+00 -0.47177311239E+02  0.47177311239E+02  0.00000000000E+00 0. -1.
          6    2    1    2  501    0 -0.10683748291E+03  0.38894862305E+02  0.41730293045E+03  0.46672324166E+03  0.17539039450E+03 0.  0.
         24    2    3    3    0    0 -0.23720841732E+01 -0.23900448063E+02  0.12431050964E+03  0.14935449842E+03  0.79226291031E+02 0.  0.
         -6    2    1    2    0  502  0.10683748291E+03 -0.38894862305E+02  0.44698237142E+03  0.49191668269E+03  0.17106058655E+03 0.  0.
        -24    2    5    5    0    0 -0.14798931195E+02 -0.27051072757E+02  0.19553428610E+03  0.21230280213E+03  0.76733655256E+02 0.  0.
          5    1    3    3  501    0 -0.10446539874E+03  0.62795310368E+02  0.29299242081E+03  0.31736874324E+03  0.47000000000E+01 0. -1.
        -11    1    4    4    0    0 -0.11716998544E+02 -0.48636846632E+02  0.51089267996E+02  0.71504854447E+02  0.00000000000E+00 0.  1.
         12    1    4    4    0    0  0.93449143705E+01  0.24736398569E+02  0.73221241644E+02  0.77849643973E+02  0.00000000000E+00 0. -1.
         -5    1    5    5    0  502  0.12163641411E+03 -0.11843789548E+02  0.25144808532E+03  0.27961388056E+03  0.47000000000E+01 0.  1.
         11    1    6    6    0    0  0.21215979337E+02  0.57015911409E+01  0.18572868284E+02  0.28767644274E+02  0.00000000000E+00 0. -1.
        -12    1    6    6    0    0 -0.36014910532E+02 -0.32752663898E+02  0.17696141782E+03  0.18353515785E+03  0.00000000000E+00 0.  1.
<mgrwt>
<rscale>  2 0.20810792E+03</rscale>
<asrwt>0</asrwt>
<pdfrwt beam="1">  1       21 0.14022500E+00 0.20901878E+03</pdfrwt>
<pdfrwt beam="2">  1       21 0.72580486E-02 0.20901878E+03</pdfrwt>
<totfact> 0.50179358E+04</totfact>
</mgrwt>
</event>
<event>
12    1  0.1026879E-001  0.1800806E+03  0.7546771E-02  0.1167755E+00
         21   -1    0    0  501  502  0.00000000000E+00  0.00000000000E+00  0.55995418419E+02  0.55995418419E+02  0.00000000000E+00 0.  1.
         21   -1    0    0  502  503 -0.00000000000E+00 -0.00000000000E+00 -0.79769770983E+03  0.79769770983E+03  0.00000000000E+00 0.  1.
         -6    2    1    2    0  503  0.19821097889E+02 -0.46244110805E+02 -0.59439005211E+03  0.62103478088E+03  0.17278099233E+03 0.  0.
        -24    2    3    3    0    0 -0.13559085371E+02  0.41099610574E+01 -0.13681619126E+03  0.15946604567E+03  0.80684626516E+02 0.  0.
          6    2    1    2  501    0 -0.19821097889E+02  0.46244110805E+02 -0.14731223930E+03  0.23265834737E+03  0.17290927403E+03 0.  0.
         24    2    5    5    0    0 -0.25099150261E+02 -0.12163901507E+02 -0.11978791469E+02  0.85089428413E+02  0.79490826759E+02 0.  0.
          5    1    5    5  501    0  0.52780523723E+01  0.58408012312E+02 -0.13533344783E+03  0.14756891895E+03  0.47000000000E+01 0. -1.
        -13    1    6    6    0    0  0.33071988558E+01  0.30839145815E+02  0.36590268477E+01  0.31231057561E+02  0.00000000000E+00 0.  1.
         14    1    6    6    0    0 -0.28406349117E+02 -0.43003047322E+02 -0.15637818316E+02  0.53858370852E+02  0.00000000000E+00 0. -1.
         -5    1    3    3    0  503  0.33380183259E+02 -0.50354071863E+02 -0.45757386085E+03  0.46156873521E+03  0.47000000000E+01 0.  1.
         13    1    4    4    0    0  0.29726112700E+02 -0.13911932964E+02 -0.75107322397E+02  0.81965197082E+02  0.00000000000E+00 0. -1.
        -14    1    4    4    0    0 -0.43285198071E+02  0.18021894021E+02 -0.61708868863E+02  0.77500848592E+02  0.00000000000E+00 0.  1.
<mgrwt>
<rscale>  2 0.18004977E+03</rscale>
<asrwt>0</asrwt>
<pdfrwt beam="1">  1       21 0.86146808E-02 0.18008057E+03</pdfrwt>
<pdfrwt beam="2">  1       21 0.12272271E+00 0.18008057E+03</pdfrwt>
<totfact> 0.53015166E+04</totfact>
</mgrwt>
</event>
<event>
12    1  0.1026879E-001  0.2057770E+03  0.7546771E-02  0.1145188E+00
         21   -1    0    0  501  502  0.00000000000E+00  0.00000000000E+00  0.82464054766E+03  0.82464054766E+03  0.00000000000E+00 0.  1.
         21   -1    0    0  502  503 -0.00000000000E+00 -0.00000000000E+00 -0.78382444093E+02  0.78382444093E+02  0.00000000000E+00 0.  1.
         -6    2    1    2    0  503 -0.17970839991E+02  0.10931122456E+03  0.10588849514E+03  0.23040317203E+03  0.17205043846E+03 0.  0.
        -24    2    3    3    0    0  0.54003968590E+02  0.58808586249E+02  0.38992099391E+02  0.11982239924E+03  0.80387468575E+02 0.  0.
          6    2    1    2  501    0  0.17970839991E+02 -0.10931122456E+03  0.64036960842E+03  0.67261981972E+03  0.17341364304E+03 0.  0.
         24    2    5    5    0    0  0.42236965059E+02 -0.12511299004E+03  0.37389813522E+03  0.40453834582E+03  0.80088926998E+02 0.  0.
          5    1    5    5  501    0 -0.24266125068E+02  0.15801765481E+02  0.26647147320E+03  0.26808147390E+03  0.47000000000E+01 0. -1.
        -13    1    6    6    0    0 -0.10257383327E+02 -0.81552797466E+02  0.15771549701E+03  0.17784895469E+03  0.00000000000E+00 0.  1.
         14    1    6    6    0    0  0.52494348386E+02 -0.43560192571E+02  0.21618263821E+03  0.22668939113E+03  0.00000000000E+00 0. -1.
         -5    1    3    3    0  503 -0.71974808581E+02  0.50502638307E+02  0.66896395753E+02  0.11058077279E+03  0.47000000000E+01 0.  1.
         13    1    4    4    0    0  0.35190094569E+02  0.53456968473E+02  0.62353845023E+02  0.89353188098E+02  0.00000000000E+00 0. -1.
        -14    1    4    4    0    0  0.18813874021E+02  0.53516177761E+01 -0.23361745632E+02  0.30469211139E+02  0.00000000000E+00 0.  1.
<mgrwt>
<rscale>  2 0.20548956E+03</rscale>
<asrwt>0</asrwt>
<pdfrwt beam="1">  1       21 0.12686777E+00 0.20577703E+03</pdfrwt>
<pdfrwt beam="2">  1       21 0.12058838E-01 0.20577703E+03</pdfrwt>
<totfact> 0.26523014E+04</totfact>
</mgrwt>
</event>
<event>
12    1  0.1026879E-001  0.2199201E+03  0.7546771E-02  0.1134008E+00
         21   -1    0    0  503  502  0.00000000000E+00  0.00000000000E+00  0.66057663394E+03  0.66057663394E+03  0.00000000000E+00 0. -1.
         21   -1    0    0  501  503 -0.00000000000E+00 -0.00000000000E+00 -0.16012451802E+03  0.16012451802E+03  0.00000000000E+00 0. -1.
          6    2    1    2  501    0 -0.80329283656E+02  0.10979814431E+03  0.55265059483E+03  0.59467117915E+03  0.17234472733E+03 0.  0.
         24    2    3    3    0    0 -0.42435305270E+02  0.14069297261E+03  0.38026987905E+03  0.41542931689E+03  0.79881592042E+02 0.  0.
         -6    2    1    2    0  502  0.80329283656E+02 -0.10979814431E+03 -0.52198478909E+02  0.22602997281E+03  0.17279016494E+03 0.  0.
        -24    2    5    5    0    0  0.12133018798E+03 -0.78740519528E+02 -0.23964277572E+02  0.16716648380E+03  0.80307302139E+02 0.  0.
          5    1    3    3  501    0 -0.37893978386E+02 -0.30894828290E+02  0.17238071578E+03  0.17924186226E+03  0.47000000000E+01 0. -1.
        -13    1    4    4    0    0  0.17435580388E+01 -0.18869124830E+01  0.80606130396E+02  0.80647062505E+02  0.00000000000E+00 0.  1.
         14    1    4    4    0    0 -0.44178863309E+02  0.14257988509E+03  0.29966374865E+03  0.33478225439E+03  0.00000000000E+00 0. -1.
         -5    1    5    5    0  502 -0.41000904326E+02 -0.31057624787E+02 -0.28234201336E+02  0.58863489006E+02  0.47000000000E+01 0.  1.
         13    1    6    6    0    0  0.27878436454E+02  0.14982713030E+02  0.39711490044E+01  0.31897632095E+02  0.00000000000E+00 0. -1.
        -14    1    6    6    0    0  0.93451751527E+02 -0.93723232558E+02 -0.27935426577E+02  0.13526885171E+03  0.00000000000E+00 0.  1.
<mgrwt>
<rscale>  2 0.21983264E+03</rscale>
<asrwt>0</asrwt>
<pdfrwt beam="1">  1       21 0.10162717E+00 0.21992014E+03</pdfrwt>
<pdfrwt beam="2">  1       21 0.24634542E-01 0.21992014E+03</pdfrwt>
<totfact> 0.12086866E+04</totfact>
</mgrwt>
</event>
<event>
12    1  0.1026879E-001  0.1840427E+03  0.7546771E-02  0.1164651E+00
         21   -1    0    0  501  502  0.00000000000E+00  0.00000000000E+00  0.75578629438E+02  0.75578629438E+02  0.00000000000E+00 0.  1.
         21   -1    0    0  502  503 -0.00000000000E+00 -0.00000000000E+00 -0.46448554974E+03  0.46448554974E+03  0.00000000000E+00 0.  1.
         -6    2    1    2    0  503  0.12401321909E+02 -0.51406281852E+02 -0.13519409285E+03  0.22836193852E+03  0.17628197192E+03 0.  0.
        -24    2    3    3    0    0  0.46255904986E+02  0.28116908903E+02 -0.59365509295E+02  0.11328746373E+03  0.79872501104E+02 0.  0.
          6    2    1    2  501    0 -0.12401321909E+02  0.51406281852E+02 -0.25371282745E+03  0.31170224066E+03  0.17318108852E+03 0.  0.
         24    2    5    5    0    0  0.42967237079E+02  0.41229391938E+02 -0.75197138002E+02  0.12446125211E+03  0.79309189202E+02 0.  0.
          5    1    5    5  501    0 -0.55368558988E+02  0.10176889914E+02 -0.17851568945E+03  0.18724098855E+03  0.47000000000E+01 0. -1.
        -11    1    6    6    0    0  0.78343588115E+01  0.37738434891E+02 -0.80028438591E+02  0.88826334098E+02  0.00000000000E+00 0.  1.
         12    1    6    6    0    0  0.35132878267E+02  0.34909570466E+01  0.48313005896E+01  0.35634918013E+02  0.00000000000E+00 0. -1.
         -5    1    3    3    0  503 -0.33854583077E+02 -0.79523190755E+02 -0.75828583552E+02  0.11507447478E+03  0.47000000000E+01 0.  1.
         13    1    4    4    0    0  0.59876517032E+01  0.49812578423E+02 -0.37206408235E+02  0.62461682300E+02  0.00000000000E+00 0. -1.
        -14    1    4    4    0    0  0.40268253283E+02 -0.21695669520E+02 -0.22159101060E+02  0.50825781432E+02  0.00000000000E+00 0.  1.
<mgrwt>
<rscale>  2 0.18329623E+03</rscale>
<asrwt>0</asrwt>
<pdfrwt beam="1">  1       21 0.11627481E-01 0.18404275E+03</pdfrwt>
<pdfrwt beam="2">  1       21 0.71459317E-01 0.18404275E+03</pdfrwt>
<totfact> 0.11026562E+05</totfact>
</mgrwt>
</event>
<event>
12    1  0.1026879E-001  0.1770786E+03  0.7546771E-02  0.1171180E+00
         21   -1    0    0  501  502  0.00000000000E+00  0.00000000000E+00  0.92436915694E+02  0.92436915694E+02  0.00000000000E+00 0. -1.
         21   -1    0    0  502  503 -0.00000000000E+00 -0.00000000000E+00 -0.56320971954E+03  0.56320971954E+03  0.00000000000E+00 0. -1.
         -6    2    1    2    0  503 -0.32287129250E+02  0.15250326662E+02 -0.44312051048E+03  0.47642201874E+03  0.17131001709E+03 0.  0.
        -24    2    3    3    0    0 -0.25575006138E+02  0.40488942829E+02 -0.11986285125E+03  0.15207707182E+03  0.80417020790E+02 0.  0.
          6    2    1    2  501    0  0.32287129250E+02 -0.15250326662E+02 -0.27652293364E+02  0.17922461649E+03  0.17344100625E+03 0.  0.
         24    2    5    5    0    0  0.66660489322E+02  0.15560923371E+02 -0.60619891613E+02  0.12230525647E+03  0.81228328357E+02 0.  0.
          5    1    5    5  501    0 -0.34373360072E+02 -0.30811250032E+02  0.32967598249E+02  0.56919360024E+02  0.47000000000E+01 0. -1.
        -13    1    6    6    0    0  0.16961072388E+02 -0.13977256131E+02 -0.60629975561E+02  0.64490585375E+02  0.00000000000E+00 0.  1.
         14    1    6    6    0    0  0.49699416934E+02  0.29538179502E+02  0.10083947887E-01  0.57814671093E+02  0.00000000000E+00 0. -1.
         -5    1    3    3    0  503 -0.67121231120E+01 -0.25238616167E+02 -0.32325765923E+03  0.32434494692E+03  0.47000000000E+01 0.  1.
         11    1    4    4    0    0 -0.31441884280E+02  0.34666998112E+02 -0.13048132092E+03  0.13862095063E+03  0.00000000000E+00 0. -1.
        -12    1    4    4    0    0  0.58668781417E+01  0.58219447168E+01  0.10618469666E+02  0.13456121190E+02  0.00000000000E+00 0.  1.
<mgrwt>
<rscale>  2 0.17655456E+03</rscale>
<asrwt>0</asrwt>
<pdfrwt beam="1">  1       21 0.14221064E-01 0.17707855E+03</pdfrwt>
<pdfrwt beam="2">  1       21 0.86647651E-01 0.17707855E+03</pdfrwt>
<totfact> 0.49939377E+04</totfact>
</mgrwt>
</event>
<event>
11    1  0.1026879E-001  0.1770237E+03  0.7546771E-02  0.1170998E+00
         21   -1    0    0  501  502  0.00000000000E+00  0.00000000000E+00  0.17577328099E+03  0.17577328099E+03  0.00000000000E+00 0.  1.
         21   -1    0    0  502  503 -0.00000000000E+00 -0.00000000000E+00 -0.28473090007E+03  0.28473090007E+03  0.00000000000E+00 0.  1.
         -6    2    1    2    0  503 -0.34224506021E+02 -0.76532677306E+01 -0.19612911232E+03  0.26420451108E+03  0.17351514532E+03 0.  0.
        -24    2    3    3    0    0 -0.43549586227E+02  0.52306878676E+02 -0.70314658146E+02  0.12444205848E+03  0.76870662486E+02 0.  0.
          6    2    1    2  501    0  0.34224506021E+02  0.76532677306E+01  0.87171493244E+02  0.19629966998E+03  0.17235081050E+03 0.  0.
          5    1    5    5  501    0 -0.30772397463E+02  0.74360040476E+02  0.42350469631E+02  0.91060465314E+02  0.47000000000E+01 0. -1.
        -11    1    5    5    0    0  0.39365569228E+02 -0.26360942039E+02  0.20753258756E+02  0.51722771144E+02  0.00000000000E+00 0.  1.
         12    1    5    5    0    0  0.25631334256E+02 -0.40345830707E+02  0.24067764857E+02  0.53516433517E+02  0.00000000000E+00 0. -1.
         -5    1    3    3    0  503  0.93250802061E+01 -0.59960146407E+02 -0.12581445417E+03  0.13976245260E+03  0.47000000000E+01 0.  1.
         13    1    4    4    0    0  0.57270043471E+01  0.39712549020E+02 -0.60573598798E+02  0.72657043704E+02  0.00000000000E+00 0. -1.
        -14    1    4    4    0    0 -0.49276590574E+02  0.12594329656E+02 -0.97410593481E+01  0.51785014776E+02  0.00000000000E+00 0.  1.
<mgrwt>
<rscale>  2 0.17673774E+03</rscale>
<asrwt>0</asrwt>
<pdfrwt beam="1">  1       21 0.27042044E-01 0.17702371E+03</pdfrwt>
<pdfrwt beam="2">  1       21 0.43804753E-01 0.17702371E+03</pdfrwt>
<totfact> 0.65694290E+04</totfact>
</mgrwt>
</event>
<event>
12    1  0.1026879E-001  0.1767863E+03  0.7546771E-02  0.1171167E+00
         21   -1    0    0  501  502  0.00000000000E+00  0.00000000000E+00  0.11768827018E+03  0.11768827018E+03  0.00000000000E+00 0. -1.
         21   -1    0    0  502  503 -0.00000000000E+00 -0.00000000000E+00 -0.37429217896E+03  0.37429217896E+03  0.00000000000E+00 0. -1.
         -6    2    1    2    0  503  0.32414263203E+02 -0.13085054781E+02 -0.26145768811E+03  0.31512756253E+03  0.17240462546E+03 0.  0.
        -24    2    3    3    0    0 -0.35835668762E+02  0.20740700357E+02 -0.17667019562E+03  0.20105195687E+03  0.86574589435E+02 0.  0.
          6    2    1    2  501    0 -0.32414263203E+02  0.13085054781E+02  0.48537793274E+01  0.17685288661E+03  0.17329593535E+03 0.  0.
         24    2    5    5    0    0 -0.25366386694E+02 -0.41410627343E+02 -0.41166966981E+02  0.10502356791E+03  0.83528061245E+02 0.  0.
          5    1    5    5  501    0 -0.70478765093E+01  0.54495682124E+02  0.46020746308E+02  0.71829318695E+02  0.47000000000E+01 0. -1.
        -11    1    6    6    0    0  0.17641812948E+02 -0.88605954274E+01 -0.46799595694E+02  0.50793167577E+02  0.00000000000E+00 0.  1.
         12    1    6    6    0    0 -0.43008199642E+02 -0.32550031916E+02  0.56326287125E+01  0.54230400334E+02  0.00000000000E+00 0. -1.
         -5    1    3    3    0  503  0.68249931965E+02 -0.33825755139E+02 -0.84787492489E+02  0.11407560566E+03  0.47000000000E+01 0.  1.
         11    1    4    4    0    0 -0.25768044703E+02  0.31952801788E+02 -0.18082119094E+03  0.18542188858E+03  0.00000000000E+00 0. -1.
        -12    1    4    4    0    0 -0.10067624059E+02 -0.11212101430E+02  0.41509953261E+01  0.15630068294E+02  0.00000000000E+00 0.  1.
<mgrwt>
<rscale>  2 0.17656746E+03</rscale>
<asrwt>0</asrwt>
<pdfrwt beam="1">  1       21 0.18105888E-01 0.17678627E+03</pdfrwt>
<pdfrwt beam="2">  1       21 0.57583412E-01 0.17678627E+03</pdfrwt>
<totfact> 0.79102154E+04</totfact>
</mgrwt>
</event>
<event>
12    1  0.1026879E-001  0.2558320E+03  0.7546771E-02  0.1109781E+00
         21   -1    0    0  503  502  0.00000000000E+00  0.00000000000E+00  0.97975384339E+02  0.97975384339E+02  0.00000000000E+00 0.  1.
         21   -1    0    0  501  503 -0.00000000000E+00 -0.00000000000E+00 -0.69988179226E+03  0.69988179226E+03  0.00000000000E+00 0. -1.
          6    2    1    2  501    0  0.18604320774E+03  0.19712633391E+02 -0.38807341970E+03  0.46442866521E+03  0.17347144702E+03 0.  0.
         24    2    3    3    0    0  0.19531862669E+03  0.40129956880E+02 -0.38508922506E+03  0.44132247744E+03  0.81927031371E+02 0.  0.
         -6    2    1    2    0  502 -0.18604320774E+03 -0.19712633391E+02 -0.21383298822E+03  0.33342851139E+03  0.17449745641E+03 0.  0.
        -24    2    5    5    0    0 -0.20566241873E+03 -0.28912527004E+02 -0.16023850766E+03  0.27542842666E+03  0.83973056262E+02 0.  0.
          5    1    3    3  501    0 -0.92754189568E+01 -0.20417323489E+02 -0.29841946394E+01  0.23106187763E+02  0.47000000000E+01 0. -1.
        -13    1    4    4    0    0  0.10913267318E+03  0.98678781473E+01 -0.12805083698E+03  0.16853584849E+03  0.00000000000E+00 0.  1.
         14    1    4    4    0    0  0.86185953516E+02  0.30262078733E+02 -0.25703838807E+03  0.27278662895E+03  0.00000000000E+00 0. -1.
         -5    1    5    5    0  502  0.19619210994E+02  0.91998936128E+01 -0.53594480553E+02  0.58000084727E+02  0.47000000000E+01 0.  1.
         11    1    6    6    0    0  0.40214311676E+01 -0.12661075933E+02 -0.13805187109E+02  0.19158756314E+02  0.00000000000E+00 0. -1.
        -12    1    6    6    0    0 -0.20968384990E+03 -0.16251451071E+02 -0.14643332056E+03  0.25626967034E+03  0.00000000000E+00 0.  1.
<mgrwt>
<rscale>  2 0.25565717E+03</rscale>
<asrwt>0</asrwt>
<pdfrwt beam="1">  1       21 0.15073135E-01 0.25583203E+03</pdfrwt>
<pdfrwt beam="2">  1       21 0.10767413E+00 0.25583203E+03</pdfrwt>
<totfact> 0.25849902E+04</totfact>
</mgrwt>
</event>
<event>
12    1  0.1026879E-001  0.1998078E+03  0.7546771E-02  0.1150940E+00
         21   -1    0    0  503  502  0.00000000000E+00  0.00000000000E+00  0.45862293839E+03  0.45862293839E+03  0.00000000000E+00 0. -1.
         21   -1    0    0  501  503 -0.00000000000E+00 -0.00000000000E+00 -0.10159085811E+03  0.10159085811E+03  0.00000000000E+00 0. -1.
          6    2    1    2  501    0  0.90491117402E+02 -0.38470124674E+02  0.63316608215E+02  0.20497875536E+03  0.16834103615E+03 0.  0.
         24    2    3    3    0    0  0.10139888548E+03 -0.44215205755E+02 -0.34547848518E+01  0.13691632598E+03  0.80606615021E+02 0.  0.
         -6    2    1    2    0  502 -0.90491117402E+02  0.38470124674E+02  0.29371547207E+03  0.35523504114E+03  0.17393838882E+03 0.  0.
        -24    2    5    5    0    0 -0.98488953759E+02 -0.19802302992E+02  0.13357889308E+03  0.18457322602E+03  0.78305490676E+02 0.  0.
          5    1    3    3  501    0 -0.10907768079E+02  0.57450810805E+01  0.66771393067E+02  0.68062429380E+02  0.47000000000E+01 0. -1.
        -11    1    4    4    0    0  0.72283999100E+00 -0.19416227396E+02  0.22802676070E+02  0.29957877427E+02  0.00000000000E+00 0.  1.
         12    1    4    4    0    0  0.10067604549E+03 -0.24798978359E+02 -0.26257460922E+02  0.10695844856E+03  0.00000000000E+00 0. -1.
         -5    1    5    5    0  502  0.79978363572E+01  0.58272427666E+02  0.16013657898E+03  0.17066181512E+03  0.47000000000E+01 0.  1.
         11    1    6    6    0    0 -0.73985499438E+02  0.12982136712E+02  0.46470975687E+02  0.88328600023E+02  0.00000000000E+00 0. -1.
        -12    1    6    6    0    0 -0.24503454322E+02 -0.32784439703E+02  0.87107917398E+02  0.96244625999E+02  0.00000000000E+00 0.  1.
<mgrwt>
<rscale>  2 0.19858329E+03</rscale>
<asrwt>0</asrwt>
<pdfrwt beam="1">  1       21 0.70557374E-01 0.19980780E+03</pdfrwt>
<pdfrwt beam="2">  1       21 0.15629363E-01 0.19980780E+03</pdfrwt>
<totfact> 0.66048197E+04</totfact>
</mgrwt>
</event>
<event>
12    1  0.1026879E-001  0.1739278E+03  0.7546771E-02  0.1173915E+00
         21   -1    0    0  501  502  0.00000000000E+00  0.00000000000E+00  0.46089839896E+02  0.46089839896E+02  0.00000000000E+00 0.  1.
         21   -1    0    0  502  503 -0.00000000000E+00 -0.00000000000E+00 -0.12661677636E+04  0.12661677636E+04  0.00000000000E+00 0.  1.
         -6    2    1    2    0  503 -0.66024273920E+01  0.19801005305E+02 -0.10663257213E+04  0.10804172519E+04  0.17267085034E+03 0.  0.
        -24    2    3    3    0    0 -0.66443245337E+02 -0.14432066721E+01 -0.75591481695E+03  0.76354305046E+03  0.84699419843E+02 0.  0.
          6    2    1    2  501    0  0.66024273920E+01 -0.19801005305E+02 -0.15375220247E+03  0.23184035160E+03  0.17226298793E+03 0.  0.
         24    2    5    5    0    0 -0.28628678147E+02  0.31667755322E+02 -0.43688117880E+02  0.10524470858E+03  0.85705012103E+02 0.  0.
          5    1    5    5  501    0  0.35231105539E+02 -0.51468760627E+02 -0.11006408459E+03  0.12659564303E+03  0.47000000000E+01 0. -1.
        -13    1    6    6    0    0  0.83832104085E+01 -0.24283849223E+02 -0.96098116220E+00  0.25708112234E+02  0.00000000000E+00 0.  1.
         14    1    6    6    0    0 -0.37011888555E+02  0.55951604544E+02 -0.42727136718E+02  0.79536596342E+02  0.00000000000E+00 0. -1.
         -5    1    3    3    0  503  0.59840817944E+02  0.21244211977E+02 -0.31041090432E+03  0.31687420147E+03  0.47000000000E+01 0.  1.
         13    1    4    4    0    0  0.43491902527E+01  0.20182548222E+02 -0.55291828367E+02  0.59020648868E+02  0.00000000000E+00 0. -1.
        -14    1    4    4    0    0 -0.70792435589E+02 -0.21625754894E+02 -0.70062298858E+03  0.70452240159E+03  0.00000000000E+00 0.  1.
<mgrwt>
<rscale>  2 0.17382653E+03</rscale>
<asrwt>0</asrwt>
<pdfrwt beam="1">  1       21 0.70907448E-02 0.17392784E+03</pdfrwt>
<pdfrwt beam="2">  1       21 0.19479504E+00 0.17392784E+03</pdfrwt>
<totfact> 0.21771411E+04</totfact>
</mgrwt>
</event>
<event>
12    1  0.1026879E-001  0.1871350E+03  0.7546771E-02  0.1161184E+00
         21   -1    0    0  503  502  0.00000000000E+00  0.00000000000E+00  0.23543422043E+04  0.23543422043E+04  0.00000000000E+00 0.  1.
         21   -1    0    0  501  503 -0.00000000000E+00 -0.00000000000E+00 -0.37547970776E+02  0.37547970776E+02  0.00000000000E+00 0.  1.
          6    2    1    2  501    0  0.17329930987E+02 -0.69454478000E+02  0.22764763149E+03  0.29437902597E+03  0.17236970670E+03 0.  0.
         24    2    3    3    0    0  0.68779817319E+02 -0.80797296626E+02  0.16377221193E+03  0.21144586275E+03  0.81419586479E+02 0.  0.
         -6    2    1    2    0  502 -0.17329930987E+02  0.69454478000E+02  0.20891466020E+04  0.20975111491E+04  0.17290241405E+03 0.  0.
        -24    2    5    5    0    0  0.31654393747E+02 -0.16872569578E+02  0.94689315917E+03  0.95094373244E+03  0.80004019491E+02 0.  0.
          5    1    3    3  501    0 -0.51449886332E+02  0.11342818627E+02  0.63875419554E+02  0.82933163217E+02  0.47000000000E+01 0. -1.
        -13    1    4    4    0    0  0.12654513427E+02 -0.97999960081E+01 -0.75435150328E+01  0.17694102150E+02  0.00000000000E+00 0.  1.
         14    1    4    4    0    0  0.56125303892E+02 -0.70997300618E+02  0.17131572696E+03  0.19375176060E+03  0.00000000000E+00 0. -1.
         -5    1    5    5    0  502 -0.48984324734E+02  0.86327047578E+02  0.11422534428E+04  0.11465674166E+04  0.47000000000E+01 0.  1.
         13    1    6    6    0    0 -0.21993553016E+01  0.26580840904E+02  0.16788180119E+03  0.16998728610E+03  0.00000000000E+00 0. -1.
        -14    1    6    6    0    0  0.33853749049E+02 -0.43453410483E+02  0.77901135798E+03  0.78095644633E+03  0.00000000000E+00 0.  1.
<mgrwt>
<rscale>  2 0.18701183E+03</rscale>
<asrwt>0</asrwt>
<pdfrwt beam="1">  1       21 0.36220638E+00 0.18713497E+03</pdfrwt>
<pdfrwt beam="2">  1       21 0.57766127E-02 0.18713497E+03</pdfrwt>
<totfact> 0.31377568E+03</totfact>
</mgrwt>
</event>
<event>
12    1  0.1026879E-001  0.2246324E+03  0.7546771E-02  0.1131402E+00
         21   -1    0    0  503  502  0.00000000000E+00  0.00000000000E+00  0.48180808944E+03  0.48180808944E+03  0.00000000000E+00 0.  1.
         21   -1    0    0  501  503 -0.00000000000E+00 -0.00000000000E+00 -0.17467673883E+03  0.17467673883E+03  0.00000000000E+00 0.  1.
          6    2    1    2  501    0  0.13246107905E+03 -0.40528385553E+02 -0.58604885186E+02  0.22727307770E+03  0.17038201718E+03 0.  0.
         24    2    3    3    0    0  0.72786574789E+02  0.30161108113E+02  0.73181278249E+01  0.11358057743E+03  0.81482603429E+02 0.  0.
         -6    2    1    2    0  502 -0.13246107905E+03  0.40528385553E+02  0.36573623579E+03  0.42921175057E+03  0.17683677545E+03 0.  0.
        -24    2    5    5    0    0 -0.59042853342E+02  0.78569089379E+02  0.14129387281E+03  0.18997589348E+03  0.80422144170E+02 0.  0.
          5    1    3    3  501    0  0.59674504264E+02 -0.70689493666E+02 -0.65923013011E+02  0.11369250027E+03  0.47000000000E+01 0. -1.
        -11    1    4    4    0    0  0.36257800810E+01 -0.32157899340E+01 -0.28454243383E+02  0.28864018303E+02  0.00000000000E+00 0.  1.
         12    1    4    4    0    0  0.69160794708E+02  0.33376898047E+02  0.35772371208E+02  0.84716559124E+02  0.00000000000E+00 0. -1.
         -5    1    5    5    0  502 -0.73418225711E+02 -0.38040703826E+02  0.22444236298E+03  0.23923585708E+03  0.47000000000E+01 0.  1.
         13    1    6    6    0    0 -0.13797118933E+02  0.39100109013E+02  0.59186792811E+01  0.41883287599E+02  0.00000000000E+00 0. -1.
        -14    1    6    6    0    0 -0.45245734409E+02  0.39468980367E+02  0.13537519353E+03  0.14809260588E+03  0.00000000000E+00 0.  1.
<mgrwt>
<rscale>  2 0.22336035E+03</rscale>
<asrwt>0</asrwt>
<pdfrwt beam="1">  1       21 0.74124321E-01 0.22463244E+03</pdfrwt>
<pdfrwt beam="2">  1       21 0.26873345E-01 0.22463244E+03</pdfrwt>
<totfact> 0.21131647E+04</totfact>
</mgrwt>
</event>
<event>
12    1  0.1026879E-001  0.2121489E+03  0.7546771E-02  0.1139892E+00
         21   -1    0    0  501  502  0.00000000000E+00  0.00000000000E+00  0.57208627540E+03  0.57208627540E+03  0.00000000000E+00 0. -1.
         21   -1    0    0  502  503 -0.00000000000E+00 -0.00000000000E+00 -0.10213646660E+03  0.10213646660E+03  0.00000000000E+00 0.  1.
         -6    2    1    2    0  503 -0.50997355842E+02 -0.11133692791E+03  0.73248204273E+02  0.22435683968E+03  0.17313015411E+03 0.  0.
        -24    2    3    3    0    0 -0.70737600648E+02 -0.10991552915E+02  0.23156733888E+02  0.11038264543E+03  0.80768011659E+02 0.  0.
          6    2    1    2  501    0  0.50997355842E+02  0.11133692791E+03  0.39670160452E+03  0.44986590232E+03  0.17323546177E+03 0.  0.
         24    2    5    5    0    0  0.48396977224E+02 -0.54683223066E+01  0.19683968753E+03  0.21831222752E+03  0.80883843531E+02 0.  0.
          5    1    5    5  501    0  0.26003786184E+01  0.11680525022E+03  0.19986191700E+03  0.23155367480E+03  0.47000000000E+01 0. -1.
        -13    1    6    6    0    0 -0.58693183756E+01  0.19617247319E+02  0.11318862692E+02  0.23396622475E+02  0.00000000000E+00 0.  1.
         14    1    6    6    0    0  0.54266295600E+02 -0.25085569626E+02  0.18552082483E+03  0.19491560504E+03  0.00000000000E+00 0. -1.
         -5    1    3    3    0  503  0.19740244805E+02 -0.10034537500E+03  0.50091470386E+02  0.11397419424E+03  0.47000000000E+01 0.  1.
         11    1    4    4    0    0  0.50113266584E+01  0.15893150323E+02  0.24927478062E+02  0.29984742530E+02  0.00000000000E+00 0. -1.
        -12    1    4    4    0    0 -0.75748927306E+02 -0.26884703238E+02 -0.17707441741E+01  0.80397902903E+02  0.00000000000E+00 0.  1.
<mgrwt>
<rscale>  2 0.21212743E+03</rscale>
<asrwt>0</asrwt>
<pdfrwt beam="1">  1       21 0.88013271E-01 0.21214893E+03</pdfrwt>
<pdfrwt beam="2">  1       21 0.15713303E-01 0.21214893E+03</pdfrwt>
<totfact> 0.39460620E+04</totfact>
</mgrwt>
</event>
<event>
12    1  0.1026879E-001  0.4379007E+03  0.7546771E-02  0.1031476E+00
         21   -1    0    0  503  502  0.00000000000E+00  0.00000000000E+00  0.21154734431E+04  0.21154734431E+04  0.00000000000E+00 0. -1.
         21   -1    0    0  501  503 -0.00000000000E+00 -0.00000000000E+00 -0.10519980733E+03  0.10519980733E+03  0.00000000000E+00 0.  1.
          6    2    1    2  501    0 -0.31485061047E+03  0.24838667942E+03  0.14202098537E+04  0.14858723841E+04  0.17318736663E+03 0.  0.
         24    2    3    3    0    0 -0.11855168386E+03  0.30297769839E+02  0.36831481698E+03  0.39380951994E+03  0.66765836980E+02 0.  0.
         -6    2    1    2    0  502  0.31485061047E+03 -0.24838667942E+03  0.59006378205E+03  0.73480086627E+03  0.17586982902E+03 0.  0.
        -24    2    5    5    0    0  0.31485895574E+03 -0.20470788664E+03  0.47250688786E+03  0.60930365363E+03  0.83346879897E+02 0.  0.
          5    1    3    3  501    0 -0.19629892661E+03  0.21808890958E+03  0.10518950367E+04  0.10920628642E+04  0.47000000000E+01 0. -1.
        -13    1    4    4    0    0 -0.16056636664E+02 -0.16397788195E+02  0.33907244723E+02  0.40943916317E+02  0.00000000000E+00 0.  1.
         14    1    4    4    0    0 -0.10249504719E+03  0.46695558034E+02  0.33440757225E+03  0.35286560362E+03  0.00000000000E+00 0. -1.
         -5    1    5    5    0  502 -0.83452760314E-02 -0.43678792776E+02  0.11755689419E+03  0.12549721264E+03  0.47000000000E+01 0.  1.
         11    1    6    6    0    0  0.28952248596E+02 -0.13143182752E+02  0.11082953037E+02  0.33672062598E+02  0.00000000000E+00 0. -1.
        -12    1    6    6    0    0  0.28590670715E+03 -0.19156470389E+03  0.46142393482E+03  0.57563159103E+03  0.00000000000E+00 0.  1.
<mgrwt>
<rscale>  2 0.43763287E+03</rscale>
<asrwt>0</asrwt>
<pdfrwt beam="1">  1       21 0.32545742E+00 0.43790073E+03</pdfrwt>
<pdfrwt beam="2">  1       21 0.16184587E-01 0.43790073E+03</pdfrwt>
<totfact> 0.66503405E+02</totfact>
</mgrwt>
</event>
<event>
12    1  0.1026879E-001  0.2389740E+03  0.7546771E-02  0.1120728E+00
         21   -1    0    0  503  502  0.00000000000E+00  0.00000000000E+00  0.67248728703E+03  0.67248728703E+03  0.00000000000E+00 0.  1.
         21   -1    0    0  501  503 -0.00000000000E+00 -0.00000000000E+00 -0.85888503261E+02  0.85888503261E+02  0.00000000000E+00 0. -1.
          6    2    1    2  501    0 -0.13685434767E+03 -0.92422098338E+02  0.34422802221E+03  0.41904834468E+03  0.17273571479E+03 0.  0.
         24    2    3    3    0    0 -0.15742077617E+03 -0.65049664078E+02  0.22001915146E+03  0.29012138197E+03  0.82153695615E+02 0.  0.
         -6    2    1    2    0  502  0.13685434767E+03  0.92422098338E+02  0.24237076155E+03  0.33932744561E+03  0.17067094818E+03 0.  0.
        -24    2    5    5    0    0  0.11492457765E+03 -0.24228734779E+01  0.15175822098E+03  0.20625150488E+03  0.79344796718E+02 0.  0.
          5    1    3    3  501    0  0.20566428496E+02 -0.27372434261E+02  0.12420887076E+03  0.12892696271E+03  0.47000000000E+01 0. -1.
        -11    1    4    4    0    0 -0.25701665827E+02 -0.48190426175E+02  0.82605021817E+02  0.99027685172E+02  0.00000000000E+00 0.  1.
         12    1    4    4    0    0 -0.13171911034E+03 -0.16859237903E+02  0.13741412964E+03  0.19109369680E+03  0.00000000000E+00 0. -1.
         -5    1    5    5    0  502  0.21929770017E+02  0.94844971816E+02  0.90612540575E+02  0.13307594073E+03  0.47000000000E+01 0.  1.
         13    1    6    6    0    0  0.11160753838E+03  0.22611007094E+02  0.13088523654E+03  0.17348903542E+03  0.00000000000E+00 0. -1.
        -14    1    6    6    0    0  0.33170392709E+01 -0.25033880572E+02  0.20872984437E+02  0.32762469463E+02  0.00000000000E+00 0.  1.
<mgrwt>
<rscale>  2 0.23860111E+03</rscale>
<asrwt>0</asrwt>
<pdfrwt beam="1">  1       21 0.10345958E+00 0.23897402E+03</pdfrwt>
<pdfrwt beam="2">  1       21 0.13213616E-01 0.23897402E+03</pdfrwt>
<totfact> 0.36482209E+04</totfact>
</mgrwt>
</event>
<event>
12    1  0.1026879E-001  0.2341640E+03  0.7546771E-02  0.1123826E+00
         21   -1    0    0  501  502  0.00000000000E+00  0.00000000000E+00  0.26524978130E+03  0.26524978130E+03  0.00000000000E+00 0.  1.
         21   -1    0    0  502  503 -0.00000000000E+00 -0.00000000000E+00 -0.35598148192E+03  0.35598148192E+03  0.00000000000E+00 0.  1.
         -6    2    1    2    0  503 -0.26261815297E+02 -0.15502198961E+03 -0.24681259885E+03  0.34021939105E+03  0.17352600637E+03 0.  0.
        -24    2    3    3    0    0 -0.19946836306E+02 -0.20038366690E+02 -0.15758433168E+03  0.17821867784E+03  0.78292165144E+02 0.  0.
          6    2    1    2  501    0  0.26261815297E+02  0.15502198961E+03  0.15608089823E+03  0.28101187217E+03  0.17287256956E+03 0.  0.
         24    2    5    5    0    0  0.44594118106E+01  0.59588525525E+02  0.15892389481E+03  0.18296564076E+03  0.68183155023E+02 0.  0.
          5    1    5    5  501    0  0.21802403487E+02  0.95433464084E+02 -0.28429965816E+01  0.98046231414E+02  0.47000000000E+01 0. -1.
        -13    1    6    6    0    0  0.25856687052E+02 -0.15318432981E+01  0.44789470860E+02  0.51739844503E+02  0.00000000000E+00 0.  1.
         14    1    6    6    0    0 -0.21397275242E+02  0.61120368823E+02  0.11413442395E+03  0.13122579625E+03  0.00000000000E+00 0. -1.
         -5    1    3    3    0  503 -0.63149789917E+01 -0.13498362292E+03 -0.89228267175E+02  0.16200071321E+03  0.47000000000E+01 0.  1.
         11    1    4    4    0    0 -0.14881052064E+02 -0.23111800402E+02 -0.81556382785E+01  0.28672555939E+02  0.00000000000E+00 0. -1.
        -12    1    4    4    0    0 -0.50657842416E+01  0.30734337125E+01 -0.14942869340E+03  0.14954612190E+03  0.00000000000E+00 0.  1.
<mgrwt>
<rscale>  2 0.23404294E+03</rscale>
<asrwt>0</asrwt>
<pdfrwt beam="1">  1       21 0.40807659E-01 0.23416399E+03</pdfrwt>
<pdfrwt beam="2">  1       21 0.54766382E-01 0.23416399E+03</pdfrwt>
<totfact> 0.17774472E+04</totfact>
</mgrwt>
</event>
<event>
12    1  0.1026879E-001  0.3813368E+03  0.7546771E-02  0.1050487E+00
         21   -1    0    0  501  502  0.00000000000E+00  0.00000000000E+00  0.34236701447E+03  0.34236701447E+03  0.00000000000E+00 0.  1.
         21   -1    0    0  502  503 -0.00000000000E+00 -0.00000000000E+00 -0.52317097929E+03  0.52317097929E+03  0.00000000000E+00 0. -1.
         -6    2    1    2    0  503  0.14876739059E+03  0.30589028311E+03  0.97891129588E+02  0.39321532651E+03  0.17127468566E+03 0.  0.
        -24    2    3    3    0    0  0.66898489029E+02  0.19167757135E+03 -0.52179419231E+01  0.21885755870E+03  0.81582503562E+02 0.  0.
          6    2    1    2  501    0 -0.14876739059E+03 -0.30589028311E+03 -0.27869509440E+03  0.47232266725E+03  0.17238661360E+03 0.  0.
         24    2    5    5    0    0 -0.11475249323E+03 -0.11067961362E+03 -0.96261000438E+02  0.20293724194E+03  0.80617816830E+02 0.  0.
          5    1    5    5  501    0 -0.34014897361E+02 -0.19521066949E+03 -0.18243409396E+03  0.26938542530E+03  0.47000000000E+01 0. -1.
        -13    1    6    6    0    0 -0.12557779919E+02 -0.40380551641E+02  0.53065559815E+01  0.42619787936E+02  0.00000000000E+00 0.  1.
         14    1    6    6    0    0 -0.10219471331E+03 -0.70299061978E+02 -0.10156755642E+03  0.16031745401E+03  0.00000000000E+00 0. -1.
         -5    1    3    3    0  503  0.81868901559E+02  0.11421271176E+03  0.10310907151E+03  0.17435776781E+03  0.47000000000E+01 0.  1.
         11    1    4    4    0    0  0.30331768926E+00  0.70746279763E+01 -0.20819402291E+02  0.21990676987E+02  0.00000000000E+00 0. -1.
        -12    1    4    4    0    0  0.66595171340E+02  0.18460294337E+03  0.15601460367E+02  0.19686688171E+03  0.00000000000E+00 0.  1.
<mgrwt>
<rscale>  2 0.38121139E+03</rscale>
<asrwt>0</asrwt>
<pdfrwt beam="1">  1       21 0.52671849E-01 0.38133679E+03</pdfrwt>
<pdfrwt beam="2">  1       21 0.80487843E-01 0.38133679E+03</pdfrwt>
<totfact> 0.41652569E+03</totfact>
</mgrwt>
</event>
<event>
12    1  0.1026879E-001  0.1938259E+03  0.7546771E-02  0.1155762E+00
         21   -1    0    0  501  502  0.00000000000E+00  0.00000000000E+00  0.58773934038E+02  0.58773934038E+02  0.00000000000E+00 0. -1.
         21   -1    0    0  502  503 -0.00000000000E+00 -0.00000000000E+00 -0.98397671919E+03  0.98397671919E+03  0.00000000000E+00 0. -1.
         -6    2    1    2    0  503 -0.10310121949E+02 -0.83827956956E+02 -0.77341496695E+03  0.79656366785E+03  0.17090798945E+03 0.  0.
        -24    2    3    3    0    0 -0.17859923948E+02 -0.78599931061E+02 -0.77719586191E+03  0.78557654213E+03  0.81241428662E+02 0.  0.
          6    2    1    2  501    0  0.10310121949E+02  0.83827956956E+02 -0.15178781820E+03  0.24618698538E+03  0.17445648464E+03 0.  0.
         24    2    5    5    0    0 -0.58722163461E+02  0.28971074062E+02 -0.89441419729E+02  0.13809490689E+03  0.82357878380E+02 0.  0.
          5    1    5    5  501    0  0.69032285410E+02  0.54856882894E+02 -0.62346398474E+02  0.10809207849E+03  0.47000000000E+01 0. -1.
        -13    1    6    6    0    0 -0.32798018860E+02 -0.27678148787E+02 -0.36749243191E+02  0.56500414481E+02  0.00000000000E+00 0.  1.
         14    1    6    6    0    0 -0.25924144601E+02  0.56649222849E+02 -0.52692176538E+02  0.81594492406E+02  0.00000000000E+00 0. -1.
         -5    1    3    3    0  503  0.75498019992E+01 -0.52280258941E+01  0.37808949566E+01  0.10987125723E+02  0.47000000000E+01 0.  1.
         11    1    4    4    0    0  0.32413456276E+02 -0.36674290550E+02 -0.34229420420E+03  0.34577587823E+03  0.00000000000E+00 0. -1.
        -12    1    4    4    0    0 -0.50273380224E+02 -0.41925640512E+02 -0.43490165771E+03  0.43980066391E+03  0.00000000000E+00 0.  1.
<mgrwt>
<rscale>  2 0.19302406E+03</rscale>
<asrwt>0</asrwt>
<pdfrwt beam="1">  1       21 0.90421438E-02 0.19382593E+03</pdfrwt>
<pdfrwt beam="2">  1       21 0.15138103E+00 0.19382593E+03</pdfrwt>
<totfact> 0.28248072E+04</totfact>
</mgrwt>
</event>
<event>
12    1  0.1026879E-001  0.1950275E+03  0.7546771E-02  0.1155171E+00
         21   -1    0    0  501  502  0.00000000000E+00  0.00000000000E+00  0.20555188563E+03  0.20555188563E+03  0.00000000000E+00 0. -1.
         21   -1    0    0  502  503 -0.00000000000E+00 -0.00000000000E+00 -0.73880736893E+03  0.73880736893E+03  0.00000000000E+00 0.  1.
         -6    2    1    2    0  503 -0.47342189620E+02  0.61197970107E+02 -0.67635272574E+03  0.70246557950E+03  0.17325820702E+03 0.  0.
        -24    2    3    3    0    0  0.32483262751E+01 -0.38553410416E+02 -0.31699925823E+03  0.32607915197E+03  0.65895117834E+02 0.  0.
          6    2    1    2  501    0  0.47342189620E+02 -0.61197970107E+02  0.14309724244E+03  0.24189367506E+03  0.17902305655E+03 0.  0.
         24    2    5    5    0    0  0.78925038175E+02 -0.89249020845E+01  0.14040491903E+03  0.18058063755E+03  0.81160395767E+02 0.  0.
          5    1    5    5  501    0 -0.31582848555E+02 -0.52273068022E+02  0.26923234076E+01  0.61313037509E+02  0.47000000000E+01 0. -1.
        -11    1    6    6    0    0  0.39035157009E+02  0.36082988057E+02  0.59783529166E+02  0.79998724173E+02  0.00000000000E+00 0.  1.
         12    1    6    6    0    0  0.39889881166E+02 -0.45007890141E+02  0.80621389865E+02  0.10058191337E+03  0.00000000000E+00 0. -1.
         -5    1    3    3    0  503 -0.50590515895E+02  0.99751380522E+02 -0.35935346752E+03  0.37638642753E+03  0.47000000000E+01 0.  1.
         13    1    4    4    0    0 -0.28610782218E+02 -0.63805207193E+01 -0.91563013401E+02  0.96140903505E+02  0.00000000000E+00 0. -1.
        -14    1    4    4    0    0  0.31859108493E+02 -0.32172889696E+02 -0.22543624482E+03  0.22993824846E+03  0.00000000000E+00 0.  1.
<mgrwt>
<rscale>  2 0.19369441E+03</rscale>
<asrwt>0</asrwt>
<pdfrwt beam="1">  1       21 0.31623367E-01 0.19502751E+03</pdfrwt>
<pdfrwt beam="2">  1       21 0.11366267E+00 0.19502751E+03</pdfrwt>
<totfact> 0.57879888E+03</totfact>
</mgrwt>
</event>
<event>
12    1  0.1026879E-001  0.1907715E+03  0.7546771E-02  0.1158198E+00
         21   -1    0    0  503  502  0.00000000000E+00  0.00000000000E+00  0.53618910206E+03  0.53618910206E+03  0.00000000000E+00 0.  1.
         21   -1    0    0  501  503 -0.00000000000E+00 -0.00000000000E+00 -0.68128161097E+02  0.68128161097E+02  0.00000000000E+00 0.  1.
          6    2    1    2  501    0 -0.57164407721E+02  0.48936359780E+02  0.19753134894E+03  0.27328854638E+03  0.17322083867E+03 0.  0.
         24    2    3    3    0    0 -0.99350563957E+02  0.46376603433E+02  0.11268619093E+03  0.17838325165E+03  0.84267923546E+02 0.  0.
         -6    2    1    2    0  502  0.57164407721E+02 -0.48936359780E+02  0.27052959202E+03  0.33102871677E+03  0.17530320690E+03 0.  0.
        -24    2    5    5    0    0  0.23753655762E+01 -0.13430581911E+02  0.40319188987E+02  0.91693347329E+02  0.81215823900E+02 0.  0.
          5    1    3    3  501    0  0.42186156237E+02  0.25597563465E+01  0.84845158002E+02  0.94905294725E+02  0.47000000000E+01 0. -1.
        -13    1    4    4    0    0 -0.65281594191E+02  0.16216061324E+02  0.12594199742E+02  0.68434355788E+02  0.00000000000E+00 0.  1.
         14    1    4    4    0    0 -0.34068969766E+02  0.30160542109E+02  0.10009199119E+03  0.10994889587E+03  0.00000000000E+00 0. -1.
         -5    1    5    5    0  502  0.54789042144E+02 -0.35505777869E+02  0.23021040304E+03  0.23933536944E+03  0.47000000000E+01 0.  1.
         11    1    6    6    0    0  0.22647041368E+02  0.24378521635E+02  0.67738937629E+00  0.33281521242E+02  0.00000000000E+00 0. -1.
        -12    1    6    6    0    0 -0.20271675791E+02 -0.37809103547E+02  0.39641799611E+02  0.58411826087E+02  0.00000000000E+00 0.  1.
<mgrwt>
<rscale>  2 0.19029172E+03</rscale>
<asrwt>0</asrwt>
<pdfrwt beam="1">  1       21 0.82490629E-01 0.19077146E+03</pdfrwt>
<pdfrwt beam="2">  1       21 0.10481256E-01 0.19077146E+03</pdfrwt>
<totfact> 0.95877128E+04</totfact>
</mgrwt>
</event>
<event>
12    1  0.1026879E-001  0.2504683E+03  0.7546771E-02  0.1113136E+00
         21   -1    0    0  503  502  0.00000000000E+00  0.00000000000E+00  0.12259102704E+03  0.12259102704E+03  0.00000000000E+00 0. -1.
         21   -1    0    0  501  503 -0.00000000000E+00 -0.00000000000E+00 -0.65363965614E+03  0.65363965614E+03  0.00000000000E+00 0. -1.
          6    2    1    2  501    0 -0.33447199348E+02 -0.17642693185E+03 -0.83310052648E+02  0.26319637466E+03  0.17345486254E+03 0.  0.
         24    2    3    3    0    0 -0.21368688295E+02 -0.40779757784E+02 -0.85809740930E+02  0.12690850029E+03  0.81380871966E+02 0.  0.
         -6    2    1    2    0  502  0.33447199348E+02  0.17642693185E+03 -0.44773857645E+03  0.51303430852E+03  0.17461154444E+03 0.  0.
        -24    2    5    5    0    0 -0.40569924737E+02  0.12342824780E+03 -0.22001139156E+03  0.26774028922E+03  0.79996243062E+02 0.  0.
          5    1    3    3  501    0 -0.12078511053E+02 -0.13564717406E+03  0.24996882823E+01  0.13628787438E+03  0.47000000000E+01 0. -1.
        -13    1    4    4    0    0  0.23558823599E+02 -0.32881340449E+02 -0.15964184559E+02  0.43486272635E+02  0.00000000000E+00 0.  1.
         14    1    4    4    0    0 -0.44927511894E+02 -0.78984173350E+01 -0.69845556372E+02  0.83422227651E+02  0.00000000000E+00 0. -1.
         -5    1    5    5    0  502  0.74017124086E+02  0.52998684047E+02 -0.22772718489E+03  0.24529401930E+03  0.47000000000E+01 0.  1.
         11    1    6    6    0    0 -0.30016024616E+02  0.11047941762E+03 -0.22309324855E+03  0.25075338682E+03  0.00000000000E+00 0. -1.
        -12    1    6    6    0    0 -0.10553900122E+02  0.12948830175E+02  0.30818569843E+01  0.16986902400E+02  0.00000000000E+00 0.  1.
<mgrwt>
<rscale>  2 0.25026681E+03</rscale>
<asrwt>0</asrwt>
<pdfrwt beam="1">  1       21 0.18860158E-01 0.25046830E+03</pdfrwt>
<pdfrwt beam="2">  1       21 0.10055995E+00 0.25046830E+03</pdfrwt>
<totfact> 0.20192982E+04</totfact>
</mgrwt>
</event>
<event>
12    1  0.1026879E-001  0.2385173E+03  0.7546771E-02  0.1122331E+00
         21   -1    0    0  503  502  0.00000000000E+00  0.00000000000E+00  0.98661355876E+02  0.98661355876E+02  0.00000000000E+00 0. -1.
         21   -1    0    0  501  503 -0.00000000000E+00 -0.00000000000E+00 -0.57384038873E+03  0.57384038873E+03  0.00000000000E+00 0. -1.
          6    2    1    2  501    0  0.95391799425E+02  0.11449319979E+03 -0.30292334715E+03  0.38555552670E+03  0.18623163461E+03 0.  0.
         24    2    3    3    0    0  0.14101716629E+02  0.12695416285E+02 -0.41119585561E+02  0.93093279792E+02  0.81335763469E+02 0.  0.
         -6    2    1    2    0  502 -0.95391799425E+02 -0.11449319979E+03 -0.17225568571E+03  0.28694621790E+03  0.17452169640E+03 0.  0.
        -24    2    5    5    0    0 -0.91766760342E+02 -0.11021680019E+03 -0.61255468232E+02  0.17570518779E+03  0.80939479109E+02 0.  0.
          5    1    3    3  501    0  0.81290082796E+02  0.10179778351E+03 -0.26180376159E+03  0.29246224691E+03  0.47000000000E+01 0. -1.
        -13    1    4    4    0    0  0.32612206468E+02 -0.24712341872E+02 -0.27041604112E+02  0.49045939735E+02  0.00000000000E+00 0.  1.
         14    1    4    4    0    0 -0.18510489839E+02  0.37407758157E+02 -0.14077981449E+02  0.44047340057E+02  0.00000000000E+00 0. -1.
         -5    1    5    5    0  502 -0.36250390829E+01 -0.42763995998E+01 -0.11100021747E+03  0.11124103011E+03  0.47000000000E+01 0.  1.
         13    1    6    6    0    0 -0.67037914920E+02 -0.81467992429E+02 -0.80943969025E+02  0.13297759942E+03  0.00000000000E+00 0. -1.
        -14    1    6    6    0    0 -0.24728845422E+02 -0.28748807764E+02  0.19688500793E+02  0.42727588362E+02  0.00000000000E+00 0.  1.
<mgrwt>
<rscale>  2 0.23622798E+03</rscale>
<asrwt>0</asrwt>
<pdfrwt beam="1">  1       21 0.15178670E-01 0.23851732E+03</pdfrwt>
<pdfrwt beam="2">  1       21 0.88283136E-01 0.23851732E+03</pdfrwt>
<totfact> 0.41226532E+04</totfact>
</mgrwt>
</event>
<event>
12    1  0.1026879E-001  0.1843068E+03  0.7546771E-02  0.1163732E+00
         21   -1    0    0  503  502  0.00000000000E+00  0.00000000000E+00  0.83049300902E+03  0.83049300902E+03  0.00000000000E+00 0. -1.
         21   -1    0    0  501  503 -0.00000000000E+00 -0.00000000000E+00 -0.14237173782E+03  0.14237173782E+03  0.00000000000E+00 0. -1.
          6    2    1    2  501    0 -0.39169104397E+02 -0.50797211387E+02 -0.66621016854E+02  0.19597792383E+03  0.17278429130E+03 0.  0.
         24    2    3    3    0    0 -0.25120117839E+02  0.36499384978E+02 -0.27905047012E+02  0.99338976815E+02  0.84417505542E+02 0.  0.
         -6    2    1    2    0  502  0.39169104397E+02  0.50797211387E+02  0.75474228806E+03  0.77688682300E+03  0.17263440835E+03 0.  0.
        -24    2    5    5    0    0  0.76435505502E+02 -0.30719929208E+01  0.38605473866E+03  0.40239613566E+03  0.83860390593E+02 0.  0.
          5    1    3    3  501    0 -0.14048986558E+02 -0.87296596365E+02 -0.38715969842E+02  0.96638947019E+02  0.47000000000E+01 0. -1.
        -13    1    4    4    0    0 -0.46831698560E+02 -0.32060862412E+01 -0.15433224378E+01  0.46966677795E+02  0.00000000000E+00 0.  1.
         14    1    4    4    0    0  0.21711580721E+02  0.39705471219E+02 -0.26361724574E+02  0.52372299020E+02  0.00000000000E+00 0. -1.
         -5    1    5    5    0  502 -0.37266401105E+02  0.53869204308E+02  0.36868754940E+03  0.37449068734E+03  0.47000000000E+01 0.  1.
         13    1    6    6    0    0  0.37816031374E+02 -0.37112063937E+02  0.27407900905E+03  0.27915347162E+03  0.00000000000E+00 0. -1.
        -14    1    6    6    0    0  0.38619474128E+02  0.34040071016E+02  0.11197572961E+03  0.12324266403E+03  0.00000000000E+00 0.  1.
<mgrwt>
<rscale>  2 0.18427164E+03</rscale>
<asrwt>0</asrwt>
<pdfrwt beam="1">  1       21 0.12776815E+00 0.18430677E+03</pdfrwt>
<pdfrwt beam="2">  1       21 0.21903345E-01 0.18430677E+03</pdfrwt>
<totfact> 0.88435095E+03</totfact>
</mgrwt>
</event>
<event>
12    1  0.1026879E-001  0.1971749E+03  0.7546771E-02  0.1156566E+00
         21   -1    0    0  501  502  0.00000000000E+00  0.00000000000E+00  0.63158960133E+02  0.63158960133E+02  0.00000000000E+00 0. -1.
         21   -1    0    0  502  503 -0.00000000000E+00 -0.00000000000E+00 -0.57479158167E+03  0.57479158167E+03  0.00000000000E+00 0. -1.
         -6    2    1    2    0  503  0.38309135454E+02  0.17064755870E+00 -0.30012208522E+03  0.34878853208E+03  0.17352969513E+03 0.  0.
        -24    2    3    3    0    0  0.62656149127E+02  0.37283400660E+02 -0.11145930235E+03  0.15491777834E+03  0.79123302354E+02 0.  0.
          6    2    1    2  501    0 -0.38309135454E+02 -0.17064755870E+00 -0.21151053632E+03  0.28916200972E+03  0.19341753259E+03 0.  0.
         24    2    5    5    0    0 -0.32046884519E+02 -0.79451516382E+02 -0.13519724329E+03  0.17884210834E+03  0.79791345776E+02 0.  0.
          5    1    5    5  501    0 -0.62622509342E+01  0.79280868823E+02 -0.76313293032E+02  0.11031990138E+03  0.47000000000E+01 0. -1.
        -11    1    6    6    0    0 -0.37735007529E+02 -0.13871185279E+01 -0.33248920950E+02  0.50312479917E+02  0.00000000000E+00 0.  1.
         12    1    6    6    0    0  0.56881230092E+01 -0.78064397854E+02 -0.10194832234E+03  0.12852962842E+03  0.00000000000E+00 0. -1.
         -5    1    3    3    0  503 -0.24347013673E+02 -0.37112753101E+02 -0.18866278287E+03  0.19387075374E+03  0.47000000000E+01 0.  1.
         13    1    4    4    0    0 -0.12518713526E+02 -0.13412591848E+01 -0.46910898903E+02  0.48571077819E+02  0.00000000000E+00 0. -1.
        -14    1    4    4    0    0  0.75174862653E+02  0.38624659845E+02 -0.64548403451E+02  0.10634670052E+03  0.00000000000E+00 0.  1.
<mgrwt>
<rscale>  2 0.19211692E+03</rscale>
<asrwt>0</asrwt>
<pdfrwt beam="1">  1       21 0.97167631E-02 0.19717495E+03</pdfrwt>
<pdfrwt beam="2">  1       21 0.88429474E-01 0.19717495E+03</pdfrwt>
<totfact> 0.93226186E+04</totfact>
</mgrwt>
</event>
<event>
12    1  0.1026879E-001  0.2593157E+03  0.7546771E-02  0.1107581E+00
         21   -1    0    0  503  502  0.00000000000E+00  0.00000000000E+00  0.22589574580E+03  0.22589574580E+03  0.00000000000E+00 0.  1.
         21   -1    0    0  501  503 -0.00000000000E+00 -0.00000000000E+00 -0.32698286683E+03  0.32698286683E+03  0.00000000000E+00 0. -1.
          6    2    1    2  501    0 -0.13494055983E+03  0.13813163204E+03 -0.13355908347E+03  0.29153768742E+03  0.17282040374E+03 0.  0.
         24    2    3    3    0    0 -0.64088963397E+02  0.28988678844E+02 -0.11086198004E+00  0.10509023968E+03  0.78078213702E+02 0.  0.
         -6    2    1    2    0  502  0.13494055983E+03 -0.13813163204E+03  0.32471962445E+02  0.26134092521E+03  0.17307613466E+03 0.  0.
        -24    2    5    5    0    0  0.37933411631E+02 -0.53029321430E+02 -0.39620776056E+02  0.11344825123E+03  0.83962176982E+02 0.  0.
          5    1    3    3  501    0 -0.70851596433E+02  0.10914295319E+03 -0.13344822149E+03  0.18644744774E+03  0.47000000000E+01 0. -1.
        -11    1    4    4    0    0 -0.69825500120E+02  0.48038547021E+02  0.36939340467E+01  0.84834825489E+02  0.00000000000E+00 0.  1.
         12    1    4    4    0    0  0.57365367239E+01 -0.19049868178E+02 -0.38047960267E+01  0.20255414189E+02  0.00000000000E+00 0. -1.
         -5    1    5    5    0  502  0.97007148199E+02 -0.85102310607E+02  0.72092738500E+02  0.14789267398E+03  0.47000000000E+01 0.  1.
         13    1    6    6    0    0 -0.23420357442E+02 -0.34965179444E+02 -0.11843383920E+02  0.43718905052E+02  0.00000000000E+00 0. -1.
        -14    1    6    6    0    0  0.61353769073E+02 -0.18064141986E+02 -0.27777392136E+02  0.69729346182E+02  0.00000000000E+00 0.  1.
<mgrwt>
<rscale>  2 0.25927307E+03</rscale>
<asrwt>0</asrwt>
<pdfrwt beam="1">  1       21 0.34753192E-01 0.25931574E+03</pdfrwt>
<pdfrwt beam="2">  1       21 0.50305056E-01 0.25931574E+03</pdfrwt>
<totfact> 0.29053346E+04</totfact>
</mgrwt>
</event>
<event>
12    1  0.1026879E-001  0.1822444E+03  0.7546771E-02  0.1165895E+00
         21   -1    0    0  503  502  0.00000000000E+00  0.00000000000E+00  0.10004336778E+03  0.10004336778E+03  0.00000000000E+00 0. -1.
         21   -1    0    0  501  503 -0.00000000000E+00 -0.00000000000E+00 -0.78201918632E+03  0.78201918632E+03  0.00000000000E+00 0. -1.
          6    2    1    2  501    0  0.24495099151E+02  0.50828230882E+02 -0.67584323940E+03  0.69971495714E+03  0.17220167844E+03 0.  0.
         24    2    3    3    0    0 -0.40256922765E+02  0.18452750823E+02 -0.22223848831E+03  0.24034543675E+03  0.80092817618E+02 0.  0.
         -6    2    1    2    0  502 -0.24495099151E+02 -0.50828230882E+02 -0.61325791363E+01  0.18234759696E+03  0.17329027281E+03 0.  0.
        -24    2    5    5    0    0 -0.81979433740E+01 -0.88371692234E+02 -0.42201546627E+02  0.12759205666E+03  0.81375672790E+02 0.  0.
          5    1    3    3  501    0  0.64752021917E+02  0.32375480059E+02 -0.45360475109E+03  0.45936952039E+03  0.47000000000E+01 0. -1.
        -13    1    4    4    0    0 -0.18061677134E+02  0.34212277667E+01 -0.20110082069E+01  0.18492515631E+02  0.00000000000E+00 0.  1.
         14    1    4    4    0    0 -0.22195245631E+02  0.15031523056E+02 -0.22022748011E+03  0.22185292112E+03  0.00000000000E+00 0. -1.
         -5    1    5    5    0  502 -0.16297155777E+02  0.37543461352E+02  0.36068967491E+02  0.54755540292E+02  0.47000000000E+01 0.  1.
         13    1    6    6    0    0 -0.24063850761E+02 -0.28851008343E+01  0.99558139326E+01  0.26201353998E+02  0.00000000000E+00 0. -1.
        -14    1    6    6    0    0  0.15865907387E+02 -0.85486591400E+02 -0.52157360560E+02  0.10139070267E+03  0.00000000000E+00 0.  1.
<mgrwt>
<rscale>  2 0.18198519E+03</rscale>
<asrwt>0</asrwt>
<pdfrwt beam="1">  1       21 0.15391288E-01 0.18224444E+03</pdfrwt>
<pdfrwt beam="2">  1       21 0.12031064E+00 0.18224444E+03</pdfrwt>
<totfact> 0.19770821E+04</totfact>
</mgrwt>
</event>
<event>
12    1  0.1026879E-001  0.2377908E+03  0.7546771E-02  0.1121463E+00
         21   -1    0    0  503  502  0.00000000000E+00  0.00000000000E+00  0.29700802305E+03  0.29700802305E+03  0.00000000000E+00 0.  1.
         21   -1    0    0  501  503 -0.00000000000E+00 -0.00000000000E+00 -0.19557187812E+03  0.19557187812E+03  0.00000000000E+00 0.  1.
          6    2    1    2  501    0 -0.16249093606E+03 -0.15893161201E+02  0.73797181262E+01  0.23790523613E+03  0.17288303636E+03 0.  0.
         24    2    3    3    0    0 -0.16531119175E+03  0.21737243413E+02 -0.26684152634E+02  0.18685194549E+03  0.80008172470E+02 0.  0.
         -6    2    1    2    0  502  0.16249093606E+03  0.15893161201E+02  0.94056426801E+02  0.25467466505E+03  0.17133790217E+03 0.  0.
        -24    2    5    5    0    0  0.28658936689E+02 -0.34774698998E+02  0.52664625246E+02  0.10563236451E+03  0.79712102830E+02 0.  0.
          5    1    3    3  501    0  0.28202556926E+01 -0.37630404614E+02  0.34063870760E+02  0.51053290636E+02  0.47000000000E+01 0. -1.
        -11    1    4    4    0    0 -0.88097211857E+02  0.17853043871E+01  0.25275241214E+02  0.91668663496E+02  0.00000000000E+00 0.  1.
         12    1    4    4    0    0 -0.77213979894E+02  0.19951939026E+02 -0.51959393848E+02  0.95183281993E+02  0.00000000000E+00 0. -1.
         -5    1    5    5    0  502  0.13383199937E+03  0.50667860199E+02  0.41391801555E+02  0.14904230053E+03  0.47000000000E+01 0.  1.
         11    1    6    6    0    0  0.52305120837E+02 -0.33562453544E+02  0.53408467244E+02  0.81943445907E+02  0.00000000000E+00 0. -1.
        -12    1    6    6    0    0 -0.23646184148E+02 -0.12122454541E+01 -0.74384199766E+00  0.23688918606E+02  0.00000000000E+00 0.  1.
<mgrwt>
<rscale>  2 0.23751001E+03</rscale>
<asrwt>0</asrwt>
<pdfrwt beam="1">  1       21 0.45693542E-01 0.23779075E+03</pdfrwt>
<pdfrwt beam="2">  1       21 0.30087981E-01 0.23779075E+03</pdfrwt>
<totfact> 0.47651452E+04</totfact>
</mgrwt>
</event>
<event>
12    1  0.1026879E-001  0.2032343E+03  0.7546771E-02  0.1147235E+00
         21   -1    0    0  503  502  0.00000000000E+00  0.00000000000E+00  0.31675190526E+03  0.31675190526E+03  0.00000000000E+00 0. -1.
         21   -1    0    0  501  503 -0.00000000000E+00 -0.00000000000E+00 -0.28988038552E+03  0.28988038552E+03  0.00000000000E+00 0. -1.
          6    2    1    2  501    0  0.44425534702E+02  0.87749543951E+02 -0.21198539505E+03  0.29301337361E+03  0.17676373723E+03 0.  0.
         24    2    3    3    0    0 -0.31043971628E+02  0.45881339699E+02 -0.17087299900E+03  0.19730072020E+03  0.81615972074E+02 0.  0.
         -6    2    1    2    0  502 -0.44425534702E+02 -0.87749543951E+02  0.23885691479E+03  0.31361891718E+03  0.17784990546E+03 0.  0.
        -24    2    5    5    0    0  0.15765205496E+02 -0.56185439342E+02  0.43861369772E+02  0.10706487950E+03  0.78318090918E+02 0.  0.
          5    1    3    3  501    0  0.75469506329E+02  0.41868204253E+02 -0.41112396047E+02  0.95712653404E+02  0.47000000000E+01 0. -1.
        -13    1    4    4    0    0 -0.32317156811E+01 -0.19577462144E+02 -0.77070142593E+02  0.79583464925E+02  0.00000000000E+00 0.  1.
         14    1    4    4    0    0 -0.27812255946E+02  0.65458801842E+02 -0.93802856409E+02  0.11771725528E+03  0.00000000000E+00 0. -1.
         -5    1    5    5    0  502 -0.60190740198E+02 -0.31564104609E+02  0.19499554502E+03  0.20655403768E+03  0.47000000000E+01 0.  1.
         13    1    6    6    0    0 -0.24223421876E+02 -0.32798897187E+02  0.45000773961E+02  0.60725706922E+02  0.00000000000E+00 0. -1.
        -14    1    6    6    0    0  0.39988627372E+02 -0.23386542155E+02 -0.11394041897E+01  0.46339172575E+02  0.00000000000E+00 0.  1.
<mgrwt>
<rscale>  2 0.20299647E+03</rscale>
<asrwt>0</asrwt>
<pdfrwt beam="1">  1       21 0.48731062E-01 0.20323435E+03</pdfrwt>
<pdfrwt beam="2">  1       21 0.44596983E-01 0.20323435E+03</pdfrwt>
<totfact> 0.19279612E+04</totfact>
</mgrwt>
</event>
<event>
12    1  0.1026879E-001  0.2135325E+03  0.7546771E-02  0.1140275E+00
         21   -1    0    0  501  502  0.00000000000E+00  0.00000000000E+00  0.58508354501E+02  0.58508354501E+02  0.00000000000E+00 0. -1.
         21   -1    0    0  502  503 -0.00000000000E+00 -0.00000000000E+00 -0.75451542318E+03  0.75451542318E+03  0.00000000000E+00 0. -1.
         -6    2    1    2    0  503  0.50085832132E+02 -0.10105983287E+03 -0.31960557579E+03  0.38027185036E+03  0.17244499327E+03 0.  0.
        -24    2    3    3    0    0  0.36034355164E+02 -0.10219223883E+03 -0.10104895290E+03  0.16121064030E+03  0.63531497957E+02 0.  0.
          6    2    1    2  501    0 -0.50085832132E+02  0.10105983287E+03 -0.37640149290E+03  0.43275192732E+03  0.18131317202E+03 0.  0.
         24    2    5    5    0    0 -0.52811042818E+02  0.29498701040E+02 -0.33546087520E+03  0.35012840440E+03  0.79979504715E+02 0.  0.
          5    1    5    5  501    0  0.27252106855E+01  0.71561131829E+02 -0.40940617696E+02  0.82623522917E+02  0.47000000000E+01 0. -1.
        -11    1    6    6    0    0 -0.20353930489E+02 -0.61232229380E+01 -0.25817734801E+03  0.25905080462E+03  0.00000000000E+00 0.  1.
         12    1    6    6    0    0 -0.32457112329E+02  0.35621923979E+02 -0.77283527186E+02  0.91077599787E+02  0.00000000000E+00 0. -1.
         -5    1    3    3    0  503  0.14051476968E+02  0.11324059637E+01 -0.21855662289E+03  0.21906121007E+03  0.47000000000E+01 0.  1.
         11    1    4    4    0    0 -0.33631435542E+00 -0.70265256698E+02 -0.84868491938E+02  0.11018157890E+03  0.00000000000E+00 0. -1.
        -12    1    4    4    0    0  0.36370669519E+02 -0.31926982135E+02 -0.16180460963E+02  0.51029061392E+02  0.00000000000E+00 0.  1.
<mgrwt>
<rscale>  2 0.21163828E+03</rscale>
<asrwt>0</asrwt>
<pdfrwt beam="1">  1       21 0.90012852E-02 0.21353254E+03</pdfrwt>
<pdfrwt beam="2">  1       21 0.11607930E+00 0.21353254E+03</pdfrwt>
<totfact> 0.55373136E+04</totfact>
</mgrwt>
</event>
<event>
12    1  0.1026879E-001  0.2012716E+03  0.7546771E-02  0.1149019E+00
         21   -1    0    0  501  502  0.00000000000E+00  0.00000000000E+00  0.52974492256E+03  0.52974492256E+03  0.00000000000E+00 0.  1.
         21   -1    0    0  502  503 -0.00000000000E+00 -0.00000000000E+00 -0.83050636723E+02  0.83050636723E+02  0.00000000000E+00 0.  1.
         -6    2    1    2    0  503 -0.93005460491E+02 -0.39328244587E+02  0.13392229656E+03  0.24175495045E+03  0.17410786326E+03 0.  0.
        -24    2    3    3    0    0 -0.10726026007E+03 -0.39435247183E+02  0.39084650781E+02  0.14573682811E+03  0.81558022482E+02 0.  0.
          6    2    1    2  501    0  0.93005460491E+02  0.39328244587E+02  0.31277198928E+03  0.37104060883E+03  0.17218620625E+03 0.  0.
         24    2    5    5    0    0  0.59155861715E+02 -0.38271474410E+02  0.12240887747E+03  0.16264743221E+03  0.80660598757E+02 0.  0.
          5    1    5    5  501    0  0.33849598776E+02  0.77599718997E+02  0.19036311181E+03  0.20839317662E+03  0.47000000000E+01 0. -1.
        -11    1    6    6    0    0  0.70296706915E+02 -0.47381363400E+02  0.75293318669E+02  0.11338299889E+03  0.00000000000E+00 0.  1.
         12    1    6    6    0    0 -0.11140845200E+02  0.91098889905E+01  0.47115558801E+02  0.49264433320E+02  0.00000000000E+00 0. -1.
         -5    1    3    3    0  503  0.14254799580E+02  0.10700259611E+00  0.94837645775E+02  0.96018122335E+02  0.47000000000E+01 0.  1.
         11    1    4    4    0    0 -0.14810742322E+02  0.25884178463E+01  0.41516604871E+02  0.44155254218E+02  0.00000000000E+00 0. -1.
        -12    1    4    4    0    0 -0.92449517749E+02 -0.42023665029E+02 -0.24319540895E+01  0.10158157390E+03  0.00000000000E+00 0.  1.
<mgrwt>
<rscale>  2 0.20085536E+03</rscale>
<asrwt>0</asrwt>
<pdfrwt beam="1">  1       21 0.81499217E-01 0.20127164E+03</pdfrwt>
<pdfrwt beam="2">  1       21 0.12777021E-01 0.20127164E+03</pdfrwt>
<totfact> 0.68875947E+04</totfact>
</mgrwt>
</event>
<event>
12    1  0.1026879E-001  0.2879975E+03  0.7546771E-02  0.1091518E+00
         21   -1    0    0  503  502  0.00000000000E+00  0.00000000000E+00  0.63825660086E+03  0.63825660086E+03  0.00000000000E+00 0. -1.
         21   -1    0    0  501  503 -0.00000000000E+00 -0.00000000000E+00 -0.15150170222E+03  0.15150170222E+03  0.00000000000E+00 0.  1.
          6    2    1    2  501    0 -0.20902939145E+03 -0.95704723224E+02  0.93379944871E+02  0.30275792001E+03  0.17346430032E+03 0.  0.
         24    2    3    3    0    0 -0.18266092104E+03 -0.20751644843E+02  0.33734091765E+02  0.20329446952E+03  0.79968803606E+02 0.  0.
         -6    2    1    2    0  502  0.20902939145E+03  0.95704723224E+02  0.39337495377E+03  0.48700038306E+03  0.17196755017E+03 0.  0.
        -24    2    5    5    0    0  0.14071367005E+03  0.62803411400E+02  0.36689687645E+03  0.40654721228E+03  0.83202839125E+02 0.  0.
          5    1    3    3  501    0 -0.26368470406E+02 -0.74953078381E+02  0.59645853106E+02  0.99463450488E+02  0.47000000000E+01 0. -1.
        -13    1    4    4    0    0 -0.42210683667E+02 -0.21141557855E+02  0.41180889796E+02  0.62646412256E+02  0.00000000000E+00 0.  1.
         14    1    4    4    0    0 -0.14045023738E+03  0.38991301203E+00 -0.74467980306E+01  0.14064805727E+03  0.00000000000E+00 0. -1.
         -5    1    5    5    0  502  0.68315721403E+02  0.32901311824E+02  0.26478077316E+02  0.80453170782E+02  0.47000000000E+01 0.  1.
         13    1    6    6    0    0  0.10579694908E+03  0.27183848220E+02  0.16006088331E+03  0.19378194551E+03  0.00000000000E+00 0. -1.
        -14    1    6    6    0    0  0.34916720965E+02  0.35619563180E+02  0.20683599314E+03  0.21276526677E+03  0.00000000000E+00 0.  1.
<mgrwt>
<rscale>  2 0.28777245E+03</rscale>
<asrwt>0</asrwt>
<pdfrwt beam="1">  1       21 0.98193322E-01 0.28799747E+03</pdfrwt>
<pdfrwt beam="2">  1       21 0.23307955E-01 0.28799747E+03</pdfrwt>
<totfact> 0.14069001E+04</totfact>
</mgrwt>
</event>
<event>
12    1  0.1026879E-001  0.2924582E+03  0.7546771E-02  0.1089098E+00
         21   -1    0    0  501  502  0.00000000000E+00  0.00000000000E+00  0.14937086168E+04  0.14937086168E+04  0.00000000000E+00 0. -1.
         21   -1    0    0  502  503 -0.00000000000E+00 -0.00000000000E+00 -0.61171976072E+02  0.61171976072E+02  0.00000000000E+00 0. -1.
         -6    2    1    2    0  503  0.18900903207E+03  0.14088265136E+03  0.51895523357E+03  0.59568979391E+03  0.17308801362E+03 0.  0.
        -24    2    3    3    0    0  0.78589525213E+02  0.10900668804E+03  0.40245894139E+03  0.43197656712E+03  0.81066537662E+02 0.  0.
          6    2    1    2  501    0 -0.18900903207E+03 -0.14088265136E+03  0.91358140715E+03  0.95919079895E+03  0.17275319287E+03 0.  0.
         24    2    5    5    0    0 -0.15891767915E+03 -0.55827737352E+02  0.73794973816E+03  0.76168535329E+03  0.84989389619E+02 0.  0.
          5    1    5    5  501    0 -0.30091352923E+02 -0.85054914011E+02  0.17563166898E+03  0.19750544567E+03  0.47000000000E+01 0. -1.
        -11    1    6    6    0    0 -0.10134686645E+03 -0.66093818109E+02  0.59607483211E+03  0.60823086538E+03  0.00000000000E+00 0.  1.
         12    1    6    6    0    0 -0.57570812698E+02  0.10266080757E+02  0.14187490606E+03  0.15345448790E+03  0.00000000000E+00 0. -1.
         -5    1    3    3    0  503  0.11041950686E+03  0.31875963326E+02  0.11649629218E+03  0.16371322679E+03  0.47000000000E+01 0.  1.
         11    1    4    4    0    0  0.65010484397E+02  0.11679553428E+03  0.30138512503E+03  0.32969766984E+03  0.00000000000E+00 0. -1.
        -12    1    4    4    0    0  0.13579040815E+02 -0.77888462477E+01  0.10107381635E+03  0.10227889727E+03  0.00000000000E+00 0.  1.
<mgrwt>
<rscale>  2 0.29240867E+03</rscale>
<asrwt>0</asrwt>
<pdfrwt beam="1">  1       21 0.22980130E+00 0.29245820E+03</pdfrwt>
<pdfrwt beam="2">  1       21 0.94110744E-02 0.29245820E+03</pdfrwt>
<totfact> 0.73329800E+03</totfact>
</mgrwt>
</event>
<event>
12    1  0.1026879E-001  0.1890808E+03  0.7546771E-02  0.1160170E+00
         21   -1    0    0  503  502  0.00000000000E+00  0.00000000000E+00  0.74834929005E+02  0.74834929005E+02  0.00000000000E+00 0.  1.
         21   -1    0    0  501  503 -0.00000000000E+00 -0.00000000000E+00 -0.56622124628E+03  0.56622124628E+03  0.00000000000E+00 0.  1.
          6    2    1    2  501    0 -0.41626785841E+02  0.51771608170E+02 -0.11021103915E+03  0.21556098987E+03  0.17293634231E+03 0.  0.
         24    2    3    3    0    0 -0.52935142006E+02 -0.70114842741E+01 -0.11982396601E+02  0.10043372510E+03  0.84214399831E+02 0.  0.
         -6    2    1    2    0  502  0.41626785841E+02 -0.51771608170E+02 -0.38117527812E+03  0.42549518541E+03  0.17702675347E+03 0.  0.
        -24    2    5    5    0    0  0.87343157121E+02 -0.17193727319E+02 -0.31900134855E+03  0.34079982564E+03  0.80362985432E+02 0.  0.
          5    1    3    3  501    0  0.11308356165E+02  0.58783092444E+02 -0.98228642550E+02  0.11512726477E+03  0.47000000000E+01 0. -1.
        -11    1    4    4    0    0 -0.49812711134E+02 -0.40434653022E+02 -0.17292301122E+02  0.66447656344E+02  0.00000000000E+00 0.  1.
         12    1    4    4    0    0 -0.31224308722E+01  0.33423168748E+02  0.53099045209E+01  0.33986068760E+02  0.00000000000E+00 0. -1.
         -5    1    5    5    0  502 -0.45716371280E+02 -0.34577880850E+02 -0.62173929573E+02  0.84695359764E+02  0.47000000000E+01 0.  1.
         11    1    6    6    0    0  0.32143635572E+01 -0.95179269635E+00  0.47995314043E+01  0.58543611194E+01  0.00000000000E+00 0. -1.
        -12    1    6    6    0    0  0.84128793564E+02 -0.16241934623E+02 -0.32380087995E+03  0.33494546453E+03  0.00000000000E+00 0.  1.
<mgrwt>
<rscale>  2 0.18811747E+03</rscale>
<asrwt>0</asrwt>
<pdfrwt beam="1">  1       21 0.11513066E-01 0.18908083E+03</pdfrwt>
<pdfrwt beam="2">  1       21 0.87110962E-01 0.18908083E+03</pdfrwt>
<totfact> 0.71688154E+04</totfact>
</mgrwt>
</event>
<event>
12    1  0.1026879E-001  0.1789950E+03  0.7546771E-02  0.1170454E+00
         21   -1    0    0  501  502  0.00000000000E+00  0.00000000000E+00  0.14060323671E+03  0.14060323671E+03  0.00000000000E+00 0. -1.
         21   -1    0    0  502  503 -0.00000000000E+00 -0.00000000000E+00 -0.43301911833E+03  0.43301911833E+03  0.00000000000E+00 0. -1.
         -6    2    1    2    0  503 -0.95615523489E+01 -0.11294725612E+02 -0.34906583875E+03  0.39228326746E+03  0.17838219651E+03 0.  0.
        -24    2    3    3    0    0 -0.56476922301E+02  0.18056471791E+02 -0.30670910989E+03  0.32243538126E+03  0.79864999031E+02 0.  0.
          6    2    1    2  501    0  0.95615523489E+01  0.11294725612E+02  0.56649957132E+02  0.18133908757E+03  0.17162649250E+03 0.  0.
         24    2    5    5    0    0  0.44136519121E+02 -0.46683918701E+02  0.26810108394E+02  0.10738330284E+03  0.81761673359E+02 0.  0.
          5    1    5    5  501    0 -0.34574966772E+02  0.57978644313E+02  0.29839848737E+02  0.73955784739E+02  0.47000000000E+01 0. -1.
        -11    1    6    6    0    0  0.19495582538E+02 -0.11478164105E+02  0.52604959321E+02  0.57263493911E+02  0.00000000000E+00 0.  1.
         12    1    6    6    0    0  0.24640936583E+02 -0.35205754595E+02 -0.25794850927E+02  0.50119808925E+02  0.00000000000E+00 0. -1.
         -5    1    3    3    0  503  0.46915369952E+02 -0.29351197403E+02 -0.42356728861E+02  0.69847886199E+02  0.47000000000E+01 0.  1.
         13    1    4    4    0    0 -0.10369196105E+01  0.36840217456E+02 -0.16589266968E+03  0.16993720804E+03  0.00000000000E+00 0. -1.
        -14    1    4    4    0    0 -0.55440002690E+02 -0.18783745665E+02 -0.14081644021E+03  0.15249817322E+03  0.00000000000E+00 0.  1.
<mgrwt>
<rscale>  2 0.17728779E+03</rscale>
<asrwt>0</asrwt>
<pdfrwt beam="1">  1       21 0.21631267E-01 0.17899498E+03</pdfrwt>
<pdfrwt beam="2">  1       21 0.66618327E-01 0.17899498E+03</pdfrwt>
<totfact> 0.41447368E+04</totfact>
</mgrwt>
</event>
<event>
12    1  0.1026879E-001  0.2552966E+03  0.7546771E-02  0.1110085E+00
         21   -1    0    0  501  502  0.00000000000E+00  0.00000000000E+00  0.84442856123E+03  0.84442856123E+03  0.00000000000E+00 0. -1.
         21   -1    0    0  502  503 -0.00000000000E+00 -0.00000000000E+00 -0.21090607632E+03  0.21090607632E+03  0.00000000000E+00 0.  1.
         -6    2    1    2    0  503 -0.14728910736E+03  0.11584339250E+03 -0.10377531725E+03  0.27508825241E+03  0.17259912344E+03 0.  0.
        -24    2    3    3    0    0 -0.48958495381E+02  0.26016697901E+02  0.13262258620E+02  0.97725267320E+02  0.79375925377E+02 0.  0.
          6    2    1    2  501    0  0.14728910736E+03 -0.11584339250E+03  0.73729780216E+03  0.78024638514E+03  0.17338569643E+03 0.  0.
         24    2    5    5    0    0  0.14149401208E+03 -0.13611655623E+03  0.72436719225E+03  0.75506951144E+03  0.82908778557E+02 0.  0.
          5    1    5    5  501    0  0.57950952781E+01  0.20273163731E+02  0.12930609914E+02  0.25176873708E+02  0.47000000000E+01 0. -1.
        -13    1    6    6    0    0  0.10376692112E+02 -0.12332627180E+01  0.51318974206E+01  0.11641866141E+02  0.00000000000E+00 0.  1.
         14    1    6    6    0    0  0.13111731997E+03 -0.13488329351E+03  0.71923529483E+03  0.74342764529E+03  0.00000000000E+00 0. -1.
         -5    1    3    3    0  503 -0.98330611980E+02  0.89826694596E+02 -0.11703757587E+03  0.17736298509E+03  0.47000000000E+01 0.  1.
         11    1    4    4    0    0 -0.60984665512E+01 -0.18304643918E+02  0.28310864719E+02  0.34260127618E+02  0.00000000000E+00 0. -1.
        -12    1    4    4    0    0 -0.42860028830E+02  0.44321341819E+02 -0.15048606098E+02  0.63465139702E+02  0.00000000000E+00 0.  1.
<mgrwt>
<rscale>  2 0.25516314E+03</rscale>
<asrwt>0</asrwt>
<pdfrwt beam="1">  1       21 0.12991208E+00 0.25529664E+03</pdfrwt>
<pdfrwt beam="2">  1       21 0.32447089E-01 0.25529664E+03</pdfrwt>
<totfact> 0.37740513E+03</totfact>
</mgrwt>
</event>
<event>
12    1  0.1026879E-001  0.2041312E+03  0.7546771E-02  0.1146695E+00
         21   -1    0    0  501  502  0.00000000000E+00  0.00000000000E+00  0.17217494020E+04  0.17217494020E+04  0.00000000000E+00 0. -1.
         21   -1    0    0  502  503 -0.00000000000E+00 -0.00000000000E+00 -0.24174488645E+02  0.24174488645E+02  0.00000000000E+00 0.  1.
         -6    2    1    2    0  503  0.86466980720E+02 -0.58193622994E+02  0.93203330335E+03  0.95412558670E+03  0.17551786270E+03 0.  0.
        -24    2    3    3    0    0 -0.32307185704E+02 -0.26032801843E+02  0.33322647012E+03  0.34278825384E+03  0.68865416290E+02 0.  0.
          6    2    1    2  501    0 -0.86466980720E+02  0.58193622994E+02  0.76554161000E+03  0.79179830394E+03  0.17328462416E+03 0.  0.
         24    2    5    5    0    0 -0.66687180558E+02 -0.27128581393E+02  0.33912950708E+03  0.35645879210E+03  0.82890939863E+02 0.  0.
          5    1    5    5  501    0 -0.19779800162E+02  0.85322204387E+02  0.42641210292E+03  0.43533951185E+03  0.47000000000E+01 0. -1.
        -11    1    6    6    0    0 -0.62202032385E+02  0.11619588152E+02  0.14132118932E+03  0.15484116446E+03  0.00000000000E+00 0.  1.
         12    1    6    6    0    0 -0.44851481729E+01 -0.38748169545E+02  0.19780831776E+03  0.20161762763E+03  0.00000000000E+00 0. -1.
         -5    1    3    3    0  503  0.11877416642E+03 -0.32160821151E+02  0.59880683323E+03  0.61133733286E+03  0.47000000000E+01 0.  1.
         13    1    4    4    0    0 -0.20951118903E+02  0.91857943464E+00  0.28903980345E+03  0.28979958791E+03  0.00000000000E+00 0. -1.
        -14    1    4    4    0    0 -0.11356066801E+02 -0.26951381277E+02  0.44186666670E+02  0.52988665933E+02  0.00000000000E+00 0.  1.
<mgrwt>
<rscale>  2 0.20365028E+03</rscale>
<asrwt>0</asrwt>
<pdfrwt beam="1">  1       21 0.26488443E+00 0.20413122E+03</pdfrwt>
<pdfrwt beam="2">  1       21 0.37191534E-02 0.20413122E+03</pdfrwt>
<totfact> 0.23850840E+04</totfact>
</mgrwt>
</event>
<event>
12    1  0.1026879E-001  0.3129708E+03  0.7546771E-02  0.1079009E+00
         21   -1    0    0  503  502  0.00000000000E+00  0.00000000000E+00  0.64099068547E+03  0.64099068547E+03  0.00000000000E+00 0. -1.
         21   -1    0    0  501  503 -0.00000000000E+00 -0.00000000000E+00 -0.22077825093E+03  0.22077825093E+03  0.00000000000E+00 0.  1.
          6    2    1    2  501    0 -0.86869856159E+02 -0.24559738132E+03 -0.29683699044E+02  0.31372034936E+03  0.17226401248E+03 0.  0.
         24    2    3    3    0    0 -0.68184490779E+02 -0.25120776839E+03 -0.58083159503E+02  0.27894624007E+03  0.81748906694E+02 0.  0.
         -6    2    1    2    0  502  0.86869856159E+02  0.24559738132E+03  0.44989613358E+03  0.54804858704E+03  0.17345396255E+03 0.  0.
        -24    2    5    5    0    0 -0.67705050202E+01  0.13107676658E+03  0.15517487015E+03  0.21825137425E+03  0.79545355380E+02 0.  0.
          5    1    3    3  501    0 -0.18685365381E+02  0.56103870792E+01  0.28399460459E+02  0.34774109291E+02  0.47000000000E+01 0. -1.
        -13    1    4    4    0    0 -0.42930744252E+02 -0.23268284192E+03 -0.33164778932E+02  0.23892311794E+03  0.00000000000E+00 0.  1.
         14    1    4    4    0    0 -0.25253746527E+02 -0.18524926479E+02 -0.24918380571E+02  0.40023122129E+02  0.00000000000E+00 0. -1.
         -5    1    5    5    0  502  0.93640361179E+02  0.11452061474E+03  0.29472126343E+03  0.32979721278E+03  0.47000000000E+01 0.  1.
         11    1    6    6    0    0 -0.26795355998E+02  0.18856486349E+02  0.65411271669E+02  0.73158681248E+02  0.00000000000E+00 0. -1.
        -12    1    6    6    0    0  0.20024850978E+02  0.11222028023E+03  0.89763598481E+02  0.14509269301E+03  0.00000000000E+00 0.  1.
<mgrwt>
<rscale>  2 0.31280619E+03</rscale>
<asrwt>0</asrwt>
<pdfrwt beam="1">  1       21 0.98613951E-01 0.31297080E+03</pdfrwt>
<pdfrwt beam="2">  1       21 0.33965885E-01 0.31297080E+03</pdfrwt>
<totfact> 0.65920624E+03</totfact>
</mgrwt>
</event>
<event>
12    1  0.1026879E-001  0.2335732E+03  0.7546771E-02  0.1124408E+00
         21   -1    0    0  501  502  0.00000000000E+00  0.00000000000E+00  0.12802539854E+03  0.12802539854E+03  0.00000000000E+00 0.  1.
         21   -1    0    0  502  503 -0.00000000000E+00 -0.00000000000E+00 -0.44237775412E+03  0.44237775412E+03  0.00000000000E+00 0.  1.
         -6    2    1    2    0  503 -0.25827626344E+02 -0.15151118995E+03 -0.97649071701E+02  0.25178619455E+03  0.17389145925E+03 0.  0.
        -24    2    3    3    0    0 -0.20078320533E+02 -0.17572399754E+03 -0.11132337634E+03  0.22300440905E+03  0.77820370531E+02 0.  0.
          6    2    1    2  501    0  0.25827626344E+02  0.15151118995E+03 -0.21670328388E+03  0.31861695811E+03  0.17587991866E+03 0.  0.
         24    2    5    5    0    0  0.37522324486E+02  0.73312041310E+01 -0.59390791834E+02  0.10485553870E+03  0.77496751239E+02 0.  0.
          5    1    5    5  501    0 -0.11694698141E+02  0.14417998582E+03 -0.15731249205E+03  0.21376141941E+03  0.47000000000E+01 0. -1.
        -11    1    6    6    0    0 -0.69832073152E+01  0.34013525323E+01 -0.59672529790E+02  0.60175951966E+02  0.00000000000E+00 0.  1.
         12    1    6    6    0    0  0.44505531801E+02  0.39298515987E+01  0.28173795642E+00  0.44679586734E+02  0.00000000000E+00 0. -1.
         -5    1    3    3    0  503 -0.57493058112E+01  0.24212807595E+02  0.13674304638E+02  0.28781785495E+02  0.47000000000E+01 0.  1.
         13    1    4    4    0    0 -0.89485448017E+01 -0.10398592106E+01  0.72680852159E+01  0.11575094987E+02  0.00000000000E+00 0. -1.
        -14    1    4    4    0    0 -0.11129775731E+02 -0.17468413833E+03 -0.11859146156E+03  0.21142931407E+03  0.00000000000E+00 0.  1.
<mgrwt>
<rscale>  2 0.23319893E+03</rscale>
<asrwt>0</asrwt>
<pdfrwt beam="1">  1       21 0.19696215E-01 0.23357323E+03</pdfrwt>
<pdfrwt beam="2">  1       21 0.68058116E-01 0.23357323E+03</pdfrwt>
<totfact> 0.45916480E+04</totfact>
</mgrwt>
</event>
<event>
12    1  0.1026879E-001  0.2326151E+03  0.7546771E-02  0.1125154E+00
         21   -1    0    0  501  502  0.00000000000E+00  0.00000000000E+00  0.14959447216E+03  0.14959447216E+03  0.00000000000E+00 0.  1.
         21   -1    0    0  502  503 -0.00000000000E+00 -0.00000000000E+00 -0.39262840418E+03  0.39262840418E+03  0.00000000000E+00 0.  1.
         -6    2    1    2    0  503  0.13528622428E+03  0.73549582221E+02 -0.20077672972E+03  0.30580066117E+03  0.17172898895E+03 0.  0.
        -24    2    3    3    0    0  0.16593010600E+03  0.70431650634E+02 -0.17398292210E+03  0.26470604946E+03  0.85474077647E+02 0.  0.
          6    2    1    2  501    0 -0.13528622428E+03 -0.73549582221E+02 -0.42257202297E+02  0.23642221518E+03  0.17434990438E+03 0.  0.
         24    2    5    5    0    0 -0.14390387308E+02 -0.69096733106E+02  0.63220905383E+01  0.10597042732E+03  0.78792898569E+02 0.  0.
          5    1    5    5  501    0 -0.12089583697E+03 -0.44528491155E+01 -0.48579292835E+02  0.13045178786E+03  0.47000000000E+01 0. -1.
        -13    1    6    6    0    0 -0.37564793934E+02 -0.47056816887E+02 -0.21141213391E+02  0.63815426524E+02  0.00000000000E+00 0.  1.
         14    1    6    6    0    0  0.23174406626E+02 -0.22039916219E+02  0.27463303929E+02  0.42155000796E+02  0.00000000000E+00 0. -1.
         -5    1    3    3    0  503 -0.30643881721E+02  0.31179315868E+01 -0.26793807620E+02  0.41094611704E+02  0.47000000000E+01 0.  1.
         13    1    4    4    0    0  0.88227449854E+02 -0.20099214458E+00 -0.11268739836E+03  0.14311734016E+03  0.00000000000E+00 0. -1.
        -14    1    4    4    0    0  0.77702656148E+02  0.70632642779E+02 -0.61295523739E+02  0.12158870930E+03  0.00000000000E+00 0.  1.
<mgrwt>
<rscale>  2 0.23212409E+03</rscale>
<asrwt>0</asrwt>
<pdfrwt beam="1">  1       21 0.23014534E-01 0.23261512E+03</pdfrwt>
<pdfrwt beam="2">  1       21 0.60404370E-01 0.23261512E+03</pdfrwt>
<totfact> 0.44419984E+04</totfact>
</mgrwt>
</event>
<event>
12    1  0.1026879E-001  0.1759841E+03  0.7546771E-02  0.1172331E+00
         21   -1    0    0  501  502  0.00000000000E+00  0.00000000000E+00  0.55353820925E+03  0.55353820925E+03  0.00000000000E+00 0. -1.
         21   -1    0    0  502  503 -0.00000000000E+00 -0.00000000000E+00 -0.68426414887E+02  0.68426414887E+02  0.00000000000E+00 0. -1.
         -6    2    1    2    0  503  0.37866756190E+02 -0.19044721751E+02  0.10720306914E+03  0.20606530032E+03  0.17080344643E+03 0.  0.
        -24    2    3    3    0    0  0.68776766477E+02 -0.60694081801E+02  0.57837086458E+02  0.13430745632E+03  0.79242343992E+02 0.  0.
          6    2    1    2  501    0 -0.37866756190E+02  0.19044721751E+02  0.37790872523E+03  0.41589932382E+03  0.16840620625E+03 0.  0.
         24    2    5    5    0    0 -0.27305817023E+01 -0.51761517220E+00  0.75032788920E+02  0.11032910509E+03  0.80838530508E+02 0.  0.
          5    1    5    5  501    0 -0.35136174488E+02  0.19562336923E+02  0.30287593631E+03  0.30557021873E+03  0.47000000000E+01 0. -1.
        -11    1    6    6    0    0  0.36640404112E+02  0.13541705738E+02  0.35094574724E+02  0.52512152716E+02  0.00000000000E+00 0.  1.
         12    1    6    6    0    0 -0.39370985815E+02 -0.14059320910E+02  0.39938214196E+02  0.57816952373E+02  0.00000000000E+00 0. -1.
         -5    1    3    3    0  503 -0.30910010287E+02  0.41649360050E+02  0.49365982681E+02  0.71757843994E+02  0.47000000000E+01 0.  1.
         13    1    4    4    0    0  0.54516809182E+02 -0.65046978778E+02  0.11520088989E+02  0.85649894231E+02  0.00000000000E+00 0. -1.
        -14    1    4    4    0    0  0.14259957295E+02  0.43528969766E+01  0.46316997470E+02  0.48657562092E+02  0.00000000000E+00 0.  1.
<mgrwt>
<rscale>  2 0.17539979E+03</rscale>
<asrwt>0</asrwt>
<pdfrwt beam="1">  1       21 0.85159722E-01 0.17598412E+03</pdfrwt>
<pdfrwt beam="2">  1       21 0.10527141E-01 0.17598412E+03</pdfrwt>
<totfact> 0.89017603E+04</totfact>
</mgrwt>
</event>
<event>
12    1  0.1026879E-001  0.1795439E+03  0.7546771E-02  0.1168574E+00
         21   -1    0    0  501  502  0.00000000000E+00  0.00000000000E+00  0.28029608982E+03  0.28029608982E+03  0.00000000000E+00 0. -1.
         21   -1    0    0  502  503 -0.00000000000E+00 -0.00000000000E+00 -0.25560526256E+03  0.25560526256E+03  0.00000000000E+00 0. -1.
         -6    2    1    2    0  503  0.42602727619E+02  0.39633179327E+01 -0.18701214889E+03  0.25831502337E+03  0.17298094454E+03 0.  0.
        -24    2    3    3    0    0  0.86201390527E+02  0.23833683551E+02 -0.16460263257E+03  0.20521181010E+03  0.83780285016E+02 0.  0.
          6    2    1    2  501    0 -0.42602727619E+02 -0.39633179327E+01  0.21170297615E+03  0.27758632902E+03  0.17437121224E+03 0.  0.
         24    2    5    5    0    0 -0.55778592108E+02 -0.33729555452E+02  0.22059560902E+03  0.24351579599E+03  0.79928630226E+02 0.  0.
          5    1    5    5  501    0  0.13175864489E+02  0.29766237520E+02 -0.88926328752E+01  0.34070533024E+02  0.47000000000E+01 0. -1.
        -11    1    6    6    0    0 -0.64618301103E+02  0.24789642677E+01  0.12139377419E+03  0.13754315146E+03  0.00000000000E+00 0.  1.
         12    1    6    6    0    0  0.88397089956E+01 -0.36208519720E+02  0.99201834827E+02  0.10597264453E+03  0.00000000000E+00 0. -1.
         -5    1    3    3    0  503 -0.43598662908E+02 -0.19870365618E+02 -0.22409516325E+02  0.53103213265E+02  0.47000000000E+01 0.  1.
         13    1    4    4    0    0  0.79004439594E+02  0.16244528282E+02 -0.17359542007E+03  0.19141827511E+03  0.00000000000E+00 0. -1.
        -14    1    4    4    0    0  0.71969509323E+01  0.75891552684E+01  0.89927875092E+01  0.13793534993E+02  0.00000000000E+00 0.  1.
<mgrwt>
<rscale>  2 0.17920549E+03</rscale>
<asrwt>0</asrwt>
<pdfrwt beam="1">  1       21 0.43122475E-01 0.17954392E+03</pdfrwt>
<pdfrwt beam="2">  1       21 0.39323887E-01 0.17954392E+03</pdfrwt>
<totfact> 0.32460648E+04</totfact>
</mgrwt>
</event>
<event>
12    1  0.1026879E-001  0.1826957E+03  0.7546771E-02  0.1165260E+00
         21   -1    0    0  503  502  0.00000000000E+00  0.00000000000E+00  0.52007257960E+02  0.52007257960E+02  0.00000000000E+00 0. -1.
         21   -1    0    0  501  503 -0.00000000000E+00 -0.00000000000E+00 -0.64120533705E+03  0.64120533705E+03  0.00000000000E+00 0. -1.
          6    2    1    2  501    0  0.16488171127E+02 -0.56114298487E+02 -0.29586312871E+03  0.34763610951E+03  0.17290228288E+03 0.  0.
         24    2    3    3    0    0  0.35486348047E+02 -0.25658730595E+02 -0.67343181952E+02  0.11626643041E+03  0.84054311791E+02 0.  0.
         -6    2    1    2    0  502 -0.16488171127E+02  0.56114298487E+02 -0.29333495037E+03  0.34557648549E+03  0.17308102130E+03 0.  0.
        -24    2    5    5    0    0  0.27654910612E+02  0.91843377257E+02 -0.21156674388E+03  0.24591050168E+03  0.80693789703E+02 0.  0.
          5    1    3    3  501    0 -0.18998176920E+02 -0.30455567892E+02 -0.22851994676E+03  0.23136967910E+03  0.47000000000E+01 0. -1.
        -13    1    4    4    0    0 -0.21402301533E+02 -0.20046135879E+02 -0.19197258446E+01  0.29386926037E+02  0.00000000000E+00 0.  1.
         14    1    4    4    0    0  0.56888649580E+02 -0.56125947153E+01 -0.65423456107E+02  0.86879504369E+02  0.00000000000E+00 0. -1.
         -5    1    5    5    0  502 -0.44143081739E+02 -0.35729078770E+02 -0.81768206497E+02  0.99665983810E+02  0.47000000000E+01 0.  1.
         11    1    6    6    0    0  0.20142338592E+02  0.29724514232E+02 -0.13775768652E+02  0.38458189664E+02  0.00000000000E+00 0. -1.
        -12    1    6    6    0    0  0.75125720200E+01  0.62118863025E+02 -0.19779097523E+03  0.20745231202E+03  0.00000000000E+00 0.  1.
<mgrwt>
<rscale>  2 0.18265334E+03</rscale>
<asrwt>0</asrwt>
<pdfrwt beam="1">  1       21 0.80011166E-02 0.18269569E+03</pdfrwt>
<pdfrwt beam="2">  1       21 0.98646975E-01 0.18269569E+03</pdfrwt>
<totfact> 0.10213003E+05</totfact>
</mgrwt>
</event>
<event>
12    1  0.1026879E-001  0.1787579E+03  0.7546771E-02  0.1169265E+00
         21   -1    0    0  501  502  0.00000000000E+00  0.00000000000E+00  0.38467789377E+03  0.38467789377E+03  0.00000000000E+00 0.  1.
         21   -1    0    0  502  503 -0.00000000000E+00 -0.00000000000E+00 -0.14291972397E+03  0.14291972397E+03  0.00000000000E+00 0.  1.
         -6    2    1    2    0  503 -0.33647599850E+02  0.28917004603E+02 -0.50315243240E+02  0.18570407209E+03  0.17316473243E+03 0.  0.
        -24    2    3    3    0    0  0.34368933137E+02  0.46554572082E+02  0.77099538413E+00  0.98702771390E+02  0.79956806460E+02 0.  0.
          6    2    1    2  501    0  0.33647599850E+02 -0.28917004603E+02  0.29207341303E+03  0.34189354566E+03  0.17209289302E+03 0.  0.
         24    2    5    5    0    0 -0.11481219541E+02  0.35052744860E+02  0.21334106095E+03  0.23076473548E+03  0.79858885103E+02 0.  0.
          5    1    5    5  501    0  0.45128819391E+02 -0.63969749464E+02  0.78732352078E+02  0.11112881017E+03  0.47000000000E+01 0. -1.
        -11    1    6    6    0    0  0.19432605849E+02 -0.11234401932E+02  0.12005100157E+03  0.12213140847E+03  0.00000000000E+00 0.  1.
         12    1    6    6    0    0 -0.30913825390E+02  0.46287146792E+02  0.93290059382E+02  0.10863332701E+03  0.00000000000E+00 0. -1.
         -5    1    3    3    0  503 -0.68016532988E+02 -0.17637567479E+02 -0.51086238624E+02  0.87001300697E+02  0.47000000000E+01 0.  1.
         13    1    4    4    0    0  0.14164085754E+02  0.43492356804E+01  0.36784309548E+02  0.39656305995E+02  0.00000000000E+00 0. -1.
        -14    1    4    4    0    0  0.20204847384E+02  0.42205336402E+02 -0.36013314163E+02  0.59046465395E+02  0.00000000000E+00 0.  1.
<mgrwt>
<rscale>  2 0.17849778E+03</rscale>
<asrwt>0</asrwt>
<pdfrwt beam="1">  1       21 0.59181214E-01 0.17875788E+03</pdfrwt>
<pdfrwt beam="2">  1       21 0.21987650E-01 0.17875788E+03</pdfrwt>
<totfact> 0.51906808E+04</totfact>
</mgrwt>
</event>
<event>
12    1  0.1026879E-001  0.1957901E+03  0.7546771E-02  0.1153488E+00
         21   -1    0    0  501  502  0.00000000000E+00  0.00000000000E+00  0.74805317995E+03  0.74805317995E+03  0.00000000000E+00 0. -1.
         21   -1    0    0  502  503 -0.00000000000E+00 -0.00000000000E+00 -0.96900242003E+02  0.96900242003E+02  0.00000000000E+00 0.  1.
         -6    2    1    2    0  503 -0.70964898240E+02 -0.54015225441E+02  0.35318423071E+02  0.19895016067E+03  0.17429892157E+03 0.  0.
        -24    2    3    3    0    0  0.10437632522E+02 -0.43177169053E+02 -0.28620092041E+02  0.94767344446E+02  0.78667196498E+02 0.  0.
          6    2    1    2  501    0  0.70964898240E+02  0.54015225441E+02  0.61583451488E+03  0.64600326129E+03  0.17353501814E+03 0.  0.
         24    2    5    5    0    0  0.11594965732E+03  0.36436664122E+02  0.43657161789E+03  0.46028866681E+03  0.80615914787E+02 0.  0.
          5    1    5    5  501    0 -0.44984759082E+02  0.17578561319E+02  0.17926289699E+03  0.18571459448E+03  0.47000000000E+01 0. -1.
        -11    1    6    6    0    0  0.60949596253E+02 -0.17644583772E+02  0.13757463628E+03  0.15150236027E+03  0.00000000000E+00 0.  1.
         12    1    6    6    0    0  0.55000061069E+02  0.54081247895E+02  0.29899698162E+03  0.30878630654E+03  0.00000000000E+00 0. -1.
         -5    1    3    3    0  503 -0.81402530762E+02 -0.10838056388E+02  0.63938515112E+02  0.10418281622E+03  0.47000000000E+01 0.  1.
         13    1    4    4    0    0 -0.26202153529E+02 -0.23201108373E+02  0.11539331960E+02  0.36851057805E+02  0.00000000000E+00 0. -1.
        -14    1    4    4    0    0  0.36639786051E+02 -0.19976060680E+02 -0.40159424001E+02  0.57916286641E+02  0.00000000000E+00 0.  1.
<mgrwt>
<rscale>  2 0.19561997E+03</rscale>
<asrwt>0</asrwt>
<pdfrwt beam="1">  1       21 0.11508510E+00 0.19579013E+03</pdfrwt>
<pdfrwt beam="2">  1       21 0.14907730E-01 0.19579013E+03</pdfrwt>
<totfact> 0.23171454E+04</totfact>
</mgrwt>
</event>
<event>
12    1  0.1026879E-001  0.2116402E+03  0.7546771E-02  0.1140758E+00
         21   -1    0    0  503  502  0.00000000000E+00  0.00000000000E+00  0.13320396158E+03  0.13320396158E+03  0.00000000000E+00 0.  1.
         21   -1    0    0  501  503 -0.00000000000E+00 -0.00000000000E+00 -0.61474536237E+03  0.61474536237E+03  0.00000000000E+00 0.  1.
          6    2    1    2  501    0  0.42263806847E+02  0.10857429131E+03 -0.49346663299E+03  0.53597340884E+03  0.17373419642E+03 0.  0.
         24    2    3    3    0    0  0.34627243445E+02  0.12895154891E+03 -0.27099027123E+03  0.31238590635E+03  0.79508989606E+02 0.  0.
         -6    2    1    2    0  502 -0.42263806847E+02 -0.10857429131E+03  0.11925232203E+02  0.21197591512E+03  0.17668325140E+03 0.  0.
        -24    2    5    5    0    0  0.10954123928E+02 -0.12732074220E+02  0.51385707682E+02  0.95369320715E+02  0.78566645816E+02 0.  0.
          5    1    3    3  501    0  0.76365634025E+01 -0.20377257601E+02 -0.22247636176E+03  0.22358750249E+03  0.47000000000E+01 0. -1.
        -13    1    4    4    0    0 -0.21308857183E+02  0.25674200200E+02 -0.96004285930E+02  0.10163687750E+03  0.00000000000E+00 0.  1.
         14    1    4    4    0    0  0.55936100627E+02  0.10327734871E+03 -0.17498598530E+03  0.21074902885E+03  0.00000000000E+00 0. -1.
         -5    1    5    5    0  502 -0.53217930775E+02 -0.95842217091E+02 -0.39460475479E+02  0.11660659440E+03  0.47000000000E+01 0.  1.
         13    1    6    6    0    0 -0.87318285906E+01 -0.11752534660E+02 -0.18020510348E+02  0.23218649717E+02  0.00000000000E+00 0. -1.
        -14    1    6    6    0    0  0.19685952518E+02 -0.97953955986E+00  0.69406218030E+02  0.72150670998E+02  0.00000000000E+00 0.  1.
<mgrwt>
<rscale>  2 0.21102360E+03</rscale>
<asrwt>0</asrwt>
<pdfrwt beam="1">  1       21 0.20492918E-01 0.21164021E+03</pdfrwt>
<pdfrwt beam="2">  1       21 0.94576207E-01 0.21164021E+03</pdfrwt>
<totfact> 0.20409712E+04</totfact>
</mgrwt>
</event>
<event>
12    1  0.1026879E-001  0.2366883E+03  0.7546771E-02  0.1122038E+00
         21   -1    0    0  501  502  0.00000000000E+00  0.00000000000E+00  0.10730838494E+03  0.10730838494E+03  0.00000000000E+00 0.  1.
         21   -1    0    0  502  503 -0.00000000000E+00 -0.00000000000E+00 -0.26462050406E+04  0.26462050406E+04  0.00000000000E+00 0.  1.
         -6    2    1    2    0  503  0.25608916052E+02 -0.15942368064E+03 -0.25030763176E+04  0.25142419116E+04  0.17305956168E+03 0.  0.
        -24    2    3    3    0    0 -0.48942605858E+02 -0.12037651993E+03 -0.17408314203E+04  0.17473507957E+04  0.76517215050E+02 0.  0.
          6    2    1    2  501    0 -0.25608916052E+02  0.15942368064E+03 -0.35820338111E+02  0.23927151398E+03  0.17290469701E+03 0.  0.
         24    2    5    5    0    0  0.34291831629E+02  0.12985259027E+03  0.12445672760E+02  0.15672306297E+03  0.79809766192E+02 0.  0.
          5    1    5    5  501    0 -0.59900747681E+02  0.29571090365E+02 -0.48266010871E+02  0.82548451006E+02  0.47000000000E+01 0. -1.
        -11    1    6    6    0    0  0.44764626114E+02  0.91218616926E+02 -0.21941321363E+02  0.10395253440E+03  0.00000000000E+00 0.  1.
         12    1    6    6    0    0 -0.10472794485E+02  0.38633973346E+02  0.34386994123E+02  0.52770528570E+02  0.00000000000E+00 0. -1.
         -5    1    3    3    0  503  0.74551521911E+02 -0.39047160705E+02 -0.76224489731E+03  0.76689111590E+03  0.47000000000E+01 0.  1.
         11    1    4    4    0    0  0.12795159102E+02 -0.18141172938E+02 -0.11399811831E+03  0.11613952484E+03  0.00000000000E+00 0. -1.
        -12    1    4    4    0    0 -0.61737764960E+02 -0.10223534699E+03 -0.16268333019E+04  0.16312112708E+04  0.00000000000E+00 0.  1.
<mgrwt>
<rscale>  2 0.23665997E+03</rscale>
<asrwt>0</asrwt>
<pdfrwt beam="1">  1       21 0.16508983E-01 0.23668827E+03</pdfrwt>
<pdfrwt beam="2">  1       21 0.40710844E+00 0.23668827E+03</pdfrwt>
<totfact> 0.24174690E+02</totfact>
</mgrwt>
</event>
<event>
12    1  0.1026879E-001  0.1830948E+03  0.7546771E-02  0.1164977E+00
         21   -1    0    0  503  502  0.00000000000E+00  0.00000000000E+00  0.22374797323E+04  0.22374797323E+04  0.00000000000E+00 0. -1.
         21   -1    0    0  501  503 -0.00000000000E+00 -0.00000000000E+00 -0.25683882669E+02  0.25683882669E+02  0.00000000000E+00 0. -1.
          6    2    1    2  501    0  0.37009910432E+02  0.42810475741E+02  0.37286889338E+03  0.41514412286E+03  0.17352510134E+03 0.  0.
         24    2    3    3    0    0 -0.18346370457E+02  0.67781979482E+02  0.30619798554E+03  0.32483911866E+03  0.82657489728E+02 0.  0.
         -6    2    1    2    0  502 -0.37009910432E+02 -0.42810475741E+02  0.18389269562E+04  0.18480194921E+04  0.17412990114E+03 0.  0.
        -24    2    5    5    0    0 -0.77029885291E+02  0.17631277080E+02  0.10441517939E+04  0.10499314941E+04  0.76542200367E+02 0.  0.
          5    1    3    3  501    0  0.55356280890E+02 -0.24971503741E+02  0.66670907838E+02  0.90305004208E+02  0.47000000000E+01 0. -1.
        -11    1    4    4    0    0  0.26276702648E+02  0.12061721940E+02  0.15452459998E+03  0.15720624109E+03  0.00000000000E+00 0.  1.
         12    1    4    4    0    0 -0.44623073106E+02  0.55720257541E+02  0.15167338556E+03  0.16763287757E+03  0.00000000000E+00 0. -1.
         -5    1    5    5    0  502  0.40019974859E+02 -0.60441752821E+02  0.79477516230E+03  0.79808799796E+03  0.47000000000E+01 0.  1.
         13    1    6    6    0    0 -0.75033659325E+02  0.39509192059E+02  0.91534734581E+03  0.91926698503E+03  0.00000000000E+00 0. -1.
        -14    1    6    6    0    0 -0.19962259661E+01 -0.21877914979E+02  0.12880444811E+03  0.13066450909E+03  0.00000000000E+00 0.  1.
<mgrwt>
<rscale>  2 0.18295082E+03</rscale>
<asrwt>0</asrwt>
<pdfrwt beam="1">  1       21 0.34422750E+00 0.18309476E+03</pdfrwt>
<pdfrwt beam="2">  1       21 0.39513683E-02 0.18309476E+03</pdfrwt>
<totfact> 0.76543894E+03</totfact>
</mgrwt>
</event>
<event>
12    1  0.1026879E-001  0.2238221E+03  0.7546771E-02  0.1131814E+00
         21   -1    0    0  503  502  0.00000000000E+00  0.00000000000E+00  0.73710855312E+03  0.73710855312E+03  0.00000000000E+00 0.  1.
         21   -1    0    0  501  503 -0.00000000000E+00 -0.00000000000E+00 -0.23343903781E+03  0.23343903781E+03  0.00000000000E+00 0.  1.
          6    2    1    2  501    0  0.53004902309E+02  0.12836870700E+03 -0.15890658950E+03  0.27118829512E+03  0.17030485201E+03 0.  0.
         24    2    3    3    0    0  0.37851648327E+02  0.15201787116E+03 -0.92256765281E+02  0.19870937998E+03  0.80199292492E+02 0.  0.
         -6    2    1    2    0  502 -0.53004902309E+02 -0.12836870700E+03  0.66257610482E+03  0.69935929580E+03  0.17552289124E+03 0.  0.
        -24    2    5    5    0    0 -0.90187174983E+02 -0.55456151315E+02  0.32436296053E+03  0.35135213619E+03  0.83832465006E+02 0.  0.
          5    1    3    3  501    0  0.15153253981E+02 -0.23649164161E+02 -0.66649824224E+02  0.72478915146E+02  0.47000000000E+01 0. -1.
        -13    1    4    4    0    0  0.57544576767E+02  0.77847419492E+02 -0.34910961335E+02  0.10290954406E+03  0.00000000000E+00 0.  1.
         14    1    4    4    0    0 -0.19692928440E+02  0.74170451671E+02 -0.57345803946E+02  0.95799835918E+02  0.00000000000E+00 0. -1.
         -5    1    5    5    0  502  0.37182272674E+02 -0.72912555687E+02  0.33821314428E+03  0.34800715961E+03  0.47000000000E+01 0.  1.
         11    1    6    6    0    0 -0.16785009103E+02 -0.56183279472E+02  0.10822664682E+03  0.12309063532E+03  0.00000000000E+00 0. -1.
        -12    1    6    6    0    0 -0.73402165880E+02  0.72712815760E+00  0.21613631371E+03  0.22826150087E+03  0.00000000000E+00 0.  1.
<mgrwt>
<rscale>  2 0.22279805E+03</rscale>
<asrwt>0</asrwt>
<pdfrwt beam="1">  1       21 0.11340131E+00 0.22382209E+03</pdfrwt>
<pdfrwt beam="2">  1       21 0.35913698E-01 0.22382209E+03</pdfrwt>
<totfact> 0.44259830E+03</totfact>
</mgrwt>
</event>
<event>
12    1  0.1026879E-001  0.1751821E+03  0.7546771E-02  0.1174120E+00
         21   -1    0    0  503  502  0.00000000000E+00  0.00000000000E+00  0.21278580206E+03  0.21278580206E+03  0.00000000000E+00 0.  1.
         21   -1    0    0  501  503 -0.00000000000E+00 -0.00000000000E+00 -0.43077288365E+03  0.43077288365E+03  0.00000000000E+00 0.  1.
          6    2    1    2  501    0 -0.35605317706E+02 -0.40803921080E+02 -0.37433846277E+03  0.41330141741E+03  0.16660155550E+03 0.  0.
         24    2    3    3    0    0  0.34769797762E+02 -0.52983522447E+02 -0.24350672892E+03  0.26417049456E+03  0.80463225632E+02 0.  0.
         -6    2    1    2    0  502  0.35605317706E+02  0.40803921080E+02  0.15635138119E+03  0.23025726831E+03  0.16012481564E+03 0.  0.
        -24    2    5    5    0    0 -0.14400860258E+02  0.37579625242E+02  0.31545638326E+02  0.95685438532E+02  0.80876219250E+02 0.  0.
          5    1    3    3  501    0 -0.70375115469E+02  0.12179601366E+02 -0.13083173385E+03  0.14913092284E+03  0.47000000000E+01 0. -1.
        -11    1    4    4    0    0 -0.18637144803E+02 -0.20649537187E+02 -0.14427918091E+03  0.14693613781E+03  0.00000000000E+00 0.  1.
         12    1    4    4    0    0  0.53406942565E+02 -0.32333985260E+02 -0.99227548018E+02  0.11723435675E+03  0.00000000000E+00 0. -1.
         -5    1    5    5    0  502  0.50006177964E+02  0.32242958385E+01  0.12480574286E+03  0.13457182977E+03  0.47000000000E+01 0.  1.
         13    1    6    6    0    0 -0.28468468876E+02 -0.17134756095E+02  0.63542841257E+01  0.33829432649E+02  0.00000000000E+00 0. -1.
        -14    1    6    6    0    0  0.14067608619E+02  0.54714381337E+02  0.25191354200E+02  0.61856005883E+02  0.00000000000E+00 0.  1.
<mgrwt>
<rscale>  2 0.17362456E+03</rscale>
<asrwt>0</asrwt>
<pdfrwt beam="1">  1       21 0.32736278E-01 0.17518213E+03</pdfrwt>
<pdfrwt beam="2">  1       21 0.66272750E-01 0.17518213E+03</pdfrwt>
<totfact> 0.18966909E+04</totfact>
</mgrwt>
</event>
<event>
12    1  0.1026879E-001  0.1777803E+03  0.7546771E-02  0.1172811E+00
         21   -1    0    0  501  502  0.00000000000E+00  0.00000000000E+00  0.34240244361E+02  0.34240244361E+02  0.00000000000E+00 0. -1.
         21   -1    0    0  502  503 -0.00000000000E+00 -0.00000000000E+00 -0.90853224215E+03  0.90853224215E+03  0.00000000000E+00 0. -1.
         -6    2    1    2    0  503  0.36980745263E+02  0.56556066492E+00 -0.34872704508E+03  0.39142863551E+03  0.17389056716E+03 0.  0.
        -24    2    3    3    0    0  0.18771565236E+02 -0.45397545455E+02 -0.32137179547E+03  0.33473136007E+03  0.79699082152E+02 0.  0.
          6    2    1    2  501    0 -0.36980745263E+02 -0.56556066492E+00 -0.52556495271E+03  0.55134385100E+03  0.16246115579E+03 0.  0.
         24    2    5    5    0    0  0.28916953964E+02 -0.40660532807E+02 -0.29486484687E+03  0.30804415435E+03  0.73867814077E+02 0.  0.
          5    1    5    5  501    0 -0.65897699227E+02  0.40094972142E+02 -0.23070010584E+03  0.24329969665E+03  0.47000000000E+01 0. -1.
        -11    1    6    6    0    0 -0.11873607261E+02  0.13795181541E+02 -0.35379344181E+02  0.39786776419E+02  0.00000000000E+00 0.  1.
         12    1    6    6    0    0  0.40790561225E+02 -0.54455714348E+02 -0.25948550269E+03  0.26825737793E+03  0.00000000000E+00 0. -1.
         -5    1    3    3    0  503  0.18209180027E+02  0.45963106120E+02 -0.27355249615E+02  0.56697275446E+02  0.47000000000E+01 0.  1.
         13    1    4    4    0    0 -0.63424998811E+01  0.10872700018E+01  0.22560002453E+01  0.68190173709E+01  0.00000000000E+00 0. -1.
        -14    1    4    4    0    0  0.25114065117E+02 -0.46484815457E+02 -0.32362779571E+03  0.32791234270E+03  0.00000000000E+00 0.  1.
<mgrwt>
<rscale>  2 0.17492146E+03</rscale>
<asrwt>0</asrwt>
<pdfrwt beam="1">  1       21 0.52677309E-02 0.17778027E+03</pdfrwt>
<pdfrwt beam="2">  1       21 0.13977417E+00 0.17778027E+03</pdfrwt>
<totfact> 0.89093010E+04</totfact>
</mgrwt>
</event>
<event>
12    1  0.1026879E-001  0.1794559E+03  0.7546771E-02  0.1169068E+00
         21   -1    0    0  501  502  0.00000000000E+00  0.00000000000E+00  0.24859502177E+02  0.24859502177E+02  0.00000000000E+00 0.  1.
         21   -1    0    0  502  503 -0.00000000000E+00 -0.00000000000E+00 -0.14353617051E+04  0.14353617051E+04  0.00000000000E+00 0.  1.
         -6    2    1    2    0  503 -0.28483016714E+02 -0.41645627657E+02 -0.94487242488E+03  0.96120666374E+03  0.16908196409E+03 0.  0.
        -24    2    3    3    0    0 -0.20823977641E+02 -0.85214651176E+02 -0.73789715320E+03  0.74950457642E+03  0.97824979190E+02 0.  0.
          6    2    1    2  501    0  0.28483016714E+02  0.41645627657E+02 -0.46562977804E+03  0.49901454353E+03  0.17221725789E+03 0.  0.
         24    2    5    5    0    0 -0.19794037663E+02 -0.27281238647E+02 -0.30673175590E+03  0.31914720820E+03  0.81452443291E+02 0.  0.
          5    1    5    5  501    0  0.48277054377E+02  0.68926866305E+02 -0.15889802214E+03  0.17986733533E+03  0.47000000000E+01 0. -1.
        -13    1    6    6    0    0 -0.64275961331E+01  0.97894827418E+01 -0.20030770651E+01  0.11881089265E+02  0.00000000000E+00 0.  1.
         14    1    6    6    0    0 -0.13366441530E+02 -0.37070721389E+02 -0.30472867883E+03  0.30726611894E+03  0.00000000000E+00 0. -1.
         -5    1    3    3    0  503 -0.76590390731E+01  0.43569023519E+02 -0.20697527167E+03  0.21170208732E+03  0.47000000000E+01 0.  1.
         13    1    4    4    0    0 -0.46073900313E+02 -0.38957825431E+01 -0.26385708519E+03  0.26787785055E+03  0.00000000000E+00 0. -1.
        -14    1    4    4    0    0  0.25249922672E+02 -0.81318868633E+02 -0.47404006801E+03  0.48162672587E+03  0.00000000000E+00 0.  1.
<mgrwt>
<rscale>  2 0.17869949E+03</rscale>
<asrwt>0</asrwt>
<pdfrwt beam="1">  1       21 0.38245379E-02 0.17945591E+03</pdfrwt>
<pdfrwt beam="2">  1       21 0.22082493E+00 0.17945591E+03</pdfrwt>
<totfact> 0.42409137E+04</totfact>
</mgrwt>
</event>
<event>
12    1  0.1026879E-001  0.2124000E+03  0.7546771E-02  0.1140305E+00
         21   -1    0    0  501  502  0.00000000000E+00  0.00000000000E+00  0.53553292663E+03  0.53553292663E+03  0.00000000000E+00 0. -1.
         21   -1    0    0  502  503 -0.00000000000E+00 -0.00000000000E+00 -0.84398022034E+02  0.84398022034E+02  0.00000000000E+00 0.  1.
         -6    2    1    2    0  503 -0.92129565739E+02  0.83804791487E+02  0.18378612572E+03  0.27847943868E+03  0.16811412136E+03 0.  0.
        -24    2    3    3    0    0  0.13238338420E+02  0.56481818253E+02  0.10370952215E+03  0.14326371277E+03  0.80021103564E+02 0.  0.
          6    2    1    2  501    0  0.92129565739E+02 -0.83804791487E+02  0.26734877888E+03  0.34145150999E+03  0.17205424768E+03 0.  0.
         24    2    5    5    0    0  0.10138541759E+03 -0.11260015543E+03  0.25757961125E+03  0.30932098845E+03  0.79839964038E+02 0.  0.
          5    1    5    5  501    0 -0.92558518514E+01  0.28795363948E+02  0.97691676299E+01  0.32130521542E+02  0.47000000000E+01 0. -1.
        -13    1    6    6    0    0  0.45429500634E+02 -0.27104028480E+02  0.32377607685E+02  0.62022394077E+02  0.00000000000E+00 0.  1.
         14    1    6    6    0    0  0.55955916956E+02 -0.85496126955E+02  0.22520200357E+03  0.24729859437E+03  0.00000000000E+00 0. -1.
         -5    1    3    3    0  503 -0.10536790416E+03  0.27322973234E+02  0.80076603572E+02  0.13521572591E+03  0.47000000000E+01 0.  1.
         13    1    4    4    0    0 -0.11813872380E+02  0.65622222282E+02  0.93210437085E+02  0.11460379234E+03  0.00000000000E+00 0. -1.
        -14    1    4    4    0    0  0.25052210800E+02 -0.91404040283E+01  0.10499085061E+02  0.28659920427E+02  0.00000000000E+00 0.  1.
<mgrwt>
<rscale>  2 0.21160078E+03</rscale>
<asrwt>0</asrwt>
<pdfrwt beam="1">  1       21 0.82389679E-01 0.21240001E+03</pdfrwt>
<pdfrwt beam="2">  1       21 0.12984311E-01 0.21240001E+03</pdfrwt>
<totfact> 0.64943513E+04</totfact>
</mgrwt>
</event>
<event>
12    1  0.1026879E-001  0.1780225E+03  0.7546771E-02  0.1170643E+00
         21   -1    0    0  501  502  0.00000000000E+00  0.00000000000E+00  0.28268796655E+03  0.28268796655E+03  0.00000000000E+00 0.  1.
         21   -1    0    0  502  503 -0.00000000000E+00 -0.00000000000E+00 -0.11312586501E+03  0.11312586501E+03  0.00000000000E+00 0.  1.
         -6    2    1    2    0  503 -0.56631869834E+01  0.15646556613E+02  0.51747779474E+02  0.18539106860E+03  0.17724313587E+03 0.  0.
        -24    2    3    3    0    0 -0.52735452615E+02 -0.31360219001E+02  0.60286610466E+02  0.11815687506E+03  0.81006669013E+02 0.  0.
          6    2    1    2  501    0  0.56631869834E+01 -0.15646556613E+02  0.11781432206E+03  0.21042276297E+03  0.17355298405E+03 0.  0.
         24    2    5    5    0    0  0.55703911131E+02 -0.53036163772E+02  0.85962054959E+02  0.14014678047E+03  0.79598271337E+02 0.  0.
          5    1    5    5  501    0 -0.50040724148E+02  0.37389607159E+02  0.31852267098E+02  0.70275982498E+02  0.47000000000E+01 0. -1.
        -13    1    6    6    0    0 -0.17418156974E+00  0.11409845774E+02  0.43294229555E+02  0.44772818010E+02  0.00000000000E+00 0.  1.
         14    1    6    6    0    0  0.55878092701E+02 -0.64446009545E+02  0.42667825404E+02  0.95373962458E+02  0.00000000000E+00 0. -1.
         -5    1    3    3    0  503  0.47072265632E+02  0.47006775614E+02 -0.85388309912E+01  0.67234193533E+02  0.47000000000E+01 0.  1.
         13    1    4    4    0    0 -0.55903610084E+02 -0.35723788634E+02  0.94238212209E+01  0.67009037459E+02  0.00000000000E+00 0. -1.
        -14    1    4    4    0    0  0.31681574691E+01  0.43635696324E+01  0.50862789245E+02  0.51147837603E+02  0.00000000000E+00 0.  1.
<mgrwt>
<rscale>  2 0.17709691E+03</rscale>
<asrwt>0</asrwt>
<pdfrwt beam="1">  1       21 0.43490456E-01 0.17802251E+03</pdfrwt>
<pdfrwt beam="2">  1       21 0.17403979E-01 0.17802251E+03</pdfrwt>
<totfact> 0.15254196E+05</totfact>
</mgrwt>
</event>
<event>
12    1  0.1026879E-001  0.2211267E+03  0.7546771E-02  0.1133082E+00
         21   -1    0    0  503  502  0.00000000000E+00  0.00000000000E+00  0.46901179566E+03  0.46901179566E+03  0.00000000000E+00 0.  1.
         21   -1    0    0  501  503 -0.00000000000E+00 -0.00000000000E+00 -0.10712108058E+03  0.10712108058E+03  0.00000000000E+00 0. -1.
          6    2    1    2  501    0 -0.13021897609E+03  0.44115218032E+02  0.22872552102E+03  0.31800500256E+03  0.17294127180E+03 0.  0.
         24    2    3    3    0    0 -0.14729152407E+03 -0.42630109287E+01  0.18760364622E+03  0.25208821017E+03  0.81488473456E+02 0.  0.
         -6    2    1    2    0  502  0.13021897609E+03 -0.44115218032E+02  0.13316519407E+03  0.25812787369E+03  0.17318745933E+03 0.  0.
        -24    2    5    5    0    0  0.17616085937E+02  0.14187960790E+02  0.89179281836E+02  0.12383147759E+03  0.82883447189E+02 0.  0.
          5    1    3    3  501    0  0.17072547983E+02  0.48378228961E+02  0.41121874792E+02  0.65916792386E+02  0.47000000000E+01 0. -1.
        -13    1    4    4    0    0 -0.15079026340E+02 -0.14881033243E+02 -0.13497240912E+01  0.21228375841E+02  0.00000000000E+00 0.  1.
         14    1    4    4    0    0 -0.13221249773E+03  0.10618022314E+02  0.18895337032E+03  0.23085983433E+03  0.00000000000E+00 0. -1.
         -5    1    5    5    0  502  0.11260289015E+03 -0.58303178823E+02  0.43985912230E+02  0.13429639610E+03  0.47000000000E+01 0.  1.
         11    1    6    6    0    0  0.22661753930E+01 -0.32214353696E+02  0.56369870780E+02  0.64965086521E+02  0.00000000000E+00 0. -1.
        -12    1    6    6    0    0  0.15349910544E+02  0.46402314487E+02  0.32809411056E+02  0.58866391067E+02  0.00000000000E+00 0.  1.
<mgrwt>
<rscale>  2 0.22107852E+03</rscale>
<asrwt>0</asrwt>
<pdfrwt beam="1">  1       21 0.72155660E-01 0.22112673E+03</pdfrwt>
<pdfrwt beam="2">  1       21 0.16480166E-01 0.22112673E+03</pdfrwt>
<totfact> 0.56474936E+04</totfact>
</mgrwt>
</event>
<event>
12    1  0.1026879E-001  0.1948275E+03  0.7546771E-02  0.1154302E+00
         21   -1    0    0  503  502  0.00000000000E+00  0.00000000000E+00  0.56919098782E+03  0.56919098782E+03  0.00000000000E+00 0.  1.
         21   -1    0    0  501  503 -0.00000000000E+00 -0.00000000000E+00 -0.71956186382E+02  0.71956186382E+02  0.00000000000E+00 0.  1.
          6    2    1    2  501    0 -0.17789285189E+02  0.89285612602E+02  0.15994443729E+03  0.25163137796E+03  0.17160346171E+03 0.  0.
         24    2    3    3    0    0  0.50046509481E+02  0.62076126721E+02  0.13063984758E+03  0.17274601723E+03  0.80101923017E+02 0.  0.
         -6    2    1    2    0  502  0.17789285189E+02 -0.89285612602E+02  0.33729036415E+03  0.38951579624E+03  0.17224803769E+03 0.  0.
        -24    2    5    5    0    0 -0.98367798559E+01 -0.98649186666E+02  0.33695460633E+03  0.35996789069E+03  0.78803878899E+02 0.  0.
          5    1    3    3  501    0 -0.67835794671E+02  0.27209485881E+02  0.29304589710E+02  0.78885360737E+02  0.47000000000E+01 0. -1.
        -13    1    4    4    0    0 -0.18800353752E+02  0.14614460052E+02  0.97004001652E+01  0.25712516547E+02  0.00000000000E+00 0.  1.
         14    1    4    4    0    0  0.68846863234E+02  0.47461666669E+02  0.12093944742E+03  0.14703350068E+03  0.00000000000E+00 0. -1.
         -5    1    5    5    0  502  0.27626065045E+02  0.93635740645E+01  0.33575781212E+00  0.29547905551E+02  0.47000000000E+01 0.  1.
         11    1    6    6    0    0 -0.56607250027E+01 -0.97422745139E+02  0.19604025778E+03  0.21898634146E+03  0.00000000000E+00 0. -1.
        -12    1    6    6    0    0 -0.41760548531E+01 -0.12264415271E+01  0.14091434856E+03  0.14098154923E+03  0.00000000000E+00 0.  1.
<mgrwt>
<rscale>  2 0.19468496E+03</rscale>
<asrwt>0</asrwt>
<pdfrwt beam="1">  1       21 0.87567841E-01 0.19482753E+03</pdfrwt>
<pdfrwt beam="2">  1       21 0.11070183E-01 0.19482753E+03</pdfrwt>
<totfact> 0.75764984E+04</totfact>
</mgrwt>
</event>
<event>
12    1  0.1026879E-001  0.2216975E+03  0.7546771E-02  0.1132723E+00
         21   -1    0    0  501  502  0.00000000000E+00  0.00000000000E+00  0.25604119512E+03  0.25604119512E+03  0.00000000000E+00 0. -1.
         21   -1    0    0  502  503 -0.00000000000E+00 -0.00000000000E+00 -0.19374464128E+03  0.19374464128E+03  0.00000000000E+00 0. -1.
         -6    2    1    2    0  503 -0.13695780973E+03  0.22257979036E+02  0.69565264887E+01  0.22180662196E+03  0.17290727287E+03 0.  0.
        -24    2    3    3    0    0 -0.76765962903E+02  0.22402017527E+02 -0.62227791698E+02  0.12998266510E+03  0.81414566984E+02 0.  0.
          6    2    1    2  501    0  0.13695780973E+03 -0.22257979036E+02  0.55340027358E+02  0.22797921443E+03  0.17221830423E+03 0.  0.
         24    2    5    5    0    0  0.41365758596E+02 -0.44991476197E+02 -0.26222003115E+02  0.10019382033E+03  0.74938970300E+02 0.  0.
          5    1    5    5  501    0  0.95592051131E+02  0.22733497161E+02  0.81562030473E+02  0.12778539411E+03  0.47000000000E+01 0. -1.
        -11    1    6    6    0    0  0.26739918789E+01 -0.14059926198E+02  0.25082145219E+02  0.28878119157E+02  0.00000000000E+00 0.  1.
         12    1    6    6    0    0  0.38691766717E+02 -0.30931549998E+02 -0.51304148334E+02  0.71315701169E+02  0.00000000000E+00 0. -1.
         -5    1    3    3    0  503 -0.60191846824E+02 -0.14403849087E+00  0.69184318187E+02  0.91823956864E+02  0.47000000000E+01 0.  1.
         11    1    4    4    0    0 -0.68883863997E+02  0.44035988890E+02 -0.67892337170E+02  0.10627099549E+03  0.00000000000E+00 0. -1.
        -12    1    4    4    0    0 -0.78820989058E+01 -0.21633971364E+02  0.56645454721E+01  0.23711669607E+02  0.00000000000E+00 0.  1.
<mgrwt>
<rscale>  2 0.22156315E+03</rscale>
<asrwt>0</asrwt>
<pdfrwt beam="1">  1       21 0.39390953E-01 0.22169751E+03</pdfrwt>
<pdfrwt beam="2">  1       21 0.29806868E-01 0.22169751E+03</pdfrwt>
<totfact> 0.66196726E+04</totfact>
</mgrwt>
</event>
<event>
12    1  0.1026879E-001  0.2333668E+03  0.7546771E-02  0.1124318E+00
         21   -1    0    0  501  502  0.00000000000E+00  0.00000000000E+00  0.32942103987E+03  0.32942103987E+03  0.00000000000E+00 0. -1.
         21   -1    0    0  502  503 -0.00000000000E+00 -0.00000000000E+00 -0.23242827558E+03  0.23242827558E+03  0.00000000000E+00 0. -1.
         -6    2    1    2    0  503  0.12117641245E+03 -0.99019712928E+02 -0.10256073880E+03  0.25490932457E+03  0.17312259277E+03 0.  0.
        -24    2    3    3    0    0  0.31618878127E+02  0.14184822286E+02 -0.29101400158E+02  0.92877898050E+02  0.81107643399E+02 0.  0.
          6    2    1    2  501    0 -0.12117641245E+03  0.99019712928E+02  0.19955350309E+03  0.30693999087E+03  0.17292174796E+03 0.  0.
         24    2    5    5    0    0 -0.10043236322E+03  0.14847431744E+02  0.17406793865E+03  0.21645854254E+03  0.79041429387E+02 0.  0.
          5    1    5    5  501    0 -0.20744049230E+02  0.84172281184E+02  0.25485564437E+02  0.90481448335E+02  0.47000000000E+01 0. -1.
        -13    1    6    6    0    0 -0.65069916810E+02 -0.63155518832E+01  0.41031678751E+02  0.77185354377E+02  0.00000000000E+00 0.  1.
         14    1    6    6    0    0 -0.35362446412E+02  0.21162983627E+02  0.13303625990E+03  0.13927318816E+03  0.00000000000E+00 0. -1.
         -5    1    3    3    0  503  0.89557534325E+02 -0.11320453521E+03 -0.73459338642E+02  0.16203142652E+03  0.47000000000E+01 0.  1.
         13    1    4    4    0    0 -0.73416357143E+01 -0.55977839474E+00 -0.46974683217E+02  0.47548226362E+02  0.00000000000E+00 0. -1.
        -14    1    4    4    0    0  0.38960513841E+02  0.14744600681E+02  0.17873283059E+02  0.45329671688E+02  0.00000000000E+00 0.  1.
<mgrwt>
<rscale>  2 0.23332954E+03</rscale>
<asrwt>0</asrwt>
<pdfrwt beam="1">  1       21 0.50680160E-01 0.23336679E+03</pdfrwt>
<pdfrwt beam="2">  1       21 0.35758196E-01 0.23336679E+03</pdfrwt>
<totfact> 0.27339741E+04</totfact>
</mgrwt>
</event>
<event>
12    1  0.1026879E-001  0.1909739E+03  0.7546771E-02  0.1157850E+00
         21   -1    0    0  503  502  0.00000000000E+00  0.00000000000E+00  0.74260381691E+02  0.74260381691E+02  0.00000000000E+00 0. -1.
         21   -1    0    0  501  503 -0.00000000000E+00 -0.00000000000E+00 -0.93958589795E+03  0.93958589795E+03  0.00000000000E+00 0.  1.
          6    2    1    2  501    0  0.77945226515E+02 -0.16485782366E+02 -0.78336150411E+03  0.80602633788E+03  0.17226715263E+03 0.  0.
         24    2    3    3    0    0  0.63964858192E+02 -0.68396701790E+02 -0.65915889343E+03  0.67060635134E+03  0.80329445239E+02 0.  0.
         -6    2    1    2    0  502 -0.77945226515E+02  0.16485782366E+02 -0.81964012145E+02  0.20781994176E+03  0.17356206253E+03 0.  0.
        -24    2    5    5    0    0 -0.81871713414E+02  0.60414694042E+02 -0.21588221586E+02  0.13290337039E+03  0.82730537504E+02 0.  0.
          5    1    3    3  501    0  0.13980368322E+02  0.51910919424E+02 -0.12420261069E+03  0.13541998654E+03  0.47000000000E+01 0. -1.
        -13    1    4    4    0    0  0.45916479519E+02 -0.36660184698E+02 -0.58504280027E+03  0.58798585899E+03  0.00000000000E+00 0.  1.
         14    1    4    4    0    0  0.18048378673E+02 -0.31736517092E+02 -0.74116093159E+02  0.82620492343E+02  0.00000000000E+00 0. -1.
         -5    1    5    5    0  502  0.39264868997E+01 -0.43928911676E+02 -0.60375790559E+02  0.74916571371E+02  0.47000000000E+01 0.  1.
         13    1    6    6    0    0 -0.33647203653E+02  0.51366116058E+02  0.23998723808E+02  0.65928377327E+02  0.00000000000E+00 0. -1.
        -14    1    6    6    0    0 -0.48224509761E+02  0.90485779838E+01 -0.45586945394E+02  0.66974993061E+02  0.00000000000E+00 0.  1.
<mgrwt>
<rscale>  2 0.19067919E+03</rscale>
<asrwt>0</asrwt>
<pdfrwt beam="1">  1       21 0.11424673E-01 0.19097390E+03</pdfrwt>
<pdfrwt beam="2">  1       21 0.14455169E+00 0.19097390E+03</pdfrwt>
<totfact> 0.21120887E+04</totfact>
</mgrwt>
</event>
<event>
12    1  0.1026879E-001  0.2743289E+03  0.7546771E-02  0.1098875E+00
         21   -1    0    0  501  502  0.00000000000E+00  0.00000000000E+00  0.40775349016E+03  0.40775349016E+03  0.00000000000E+00 0. -1.
         21   -1    0    0  502  503 -0.00000000000E+00 -0.00000000000E+00 -0.23594768290E+03  0.23594768290E+03  0.00000000000E+00 0. -1.
         -6    2    1    2    0  503  0.63112592849E+02 -0.20290603018E+03  0.23639147099E+03  0.36187204541E+03  0.17296356042E+03 0.  0.
        -24    2    3    3    0    0  0.33563537203E+01 -0.95776985925E+02  0.19819787570E+03  0.23330968327E+03  0.77243214810E+02 0.  0.
          6    2    1    2  501    0 -0.63112592849E+02  0.20290603018E+03 -0.64585663735E+02  0.28182912764E+03  0.17350012325E+03 0.  0.
         24    2    5    5    0    0 -0.17143773627E+02  0.27428871021E+02  0.43737943271E+01  0.87708385365E+02  0.81408714808E+02 0.  0.
          5    1    5    5  501    0 -0.45968819222E+02  0.17547715916E+03 -0.68959458062E+02  0.19412074228E+03  0.47000000000E+01 0. -1.
        -11    1    6    6    0    0  0.32323696831E+02  0.12459710883E+02  0.90789213388E+01  0.35811905629E+02  0.00000000000E+00 0.  1.
         12    1    6    6    0    0 -0.49467470458E+02  0.14969160138E+02 -0.47051270117E+01  0.51896479736E+02  0.00000000000E+00 0. -1.
         -5    1    3    3    0  503  0.59756239129E+02 -0.10712904425E+03  0.38193595295E+02  0.12856236214E+03  0.47000000000E+01 0.  1.
         11    1    4    4    0    0  0.35156626946E+02 -0.73628584439E+02  0.10985215665E+03  0.13683805460E+03  0.00000000000E+00 0. -1.
        -12    1    4    4    0    0 -0.31800273226E+02 -0.22148401486E+02  0.88345719043E+02  0.96471628673E+02  0.00000000000E+00 0.  1.
<mgrwt>
<rscale>  2 0.27424411E+03</rscale>
<asrwt>0</asrwt>
<pdfrwt beam="1">  1       21 0.62731306E-01 0.27432891E+03</pdfrwt>
<pdfrwt beam="2">  1       21 0.36299644E-01 0.27432891E+03</pdfrwt>
<totfact> 0.16486216E+04</totfact>
</mgrwt>
</event>
<event>
12    1  0.1026879E-001  0.1792917E+03  0.7546771E-02  0.1168667E+00
         21   -1    0    0  501  502  0.00000000000E+00  0.00000000000E+00  0.93768613089E+03  0.93768613089E+03  0.00000000000E+00 0.  1.
         21   -1    0    0  502  503 -0.00000000000E+00 -0.00000000000E+00 -0.35780073363E+02  0.35780073363E+02  0.00000000000E+00 0.  1.
         -6    2    1    2    0  503  0.23297226613E+02  0.37583061714E+02  0.34598366846E+03  0.38934701370E+03  0.17300621648E+03 0.  0.
        -24    2    3    3    0    0  0.66624360630E+02  0.49531338865E+02  0.31276358029E+03  0.33326077540E+03  0.79683927508E+02 0.  0.
          6    2    1    2  501    0 -0.23297226613E+02 -0.37583061714E+02  0.55592238907E+03  0.58411919056E+03  0.17375350014E+03 0.  0.
         24    2    5    5    0    0 -0.23705187737E+02  0.23890847272E+02  0.47408400950E+03  0.48165544922E+03  0.78125637208E+02 0.  0.
          5    1    5    5  501    0  0.40796112371E+00 -0.61473908985E+02  0.81838379575E+02  0.10246374134E+03  0.47000000000E+01 0. -1.
        -13    1    6    6    0    0 -0.32600108617E+02  0.26156490084E+02  0.11344312096E+03  0.12089776982E+03  0.00000000000E+00 0.  1.
         14    1    6    6    0    0  0.88949208794E+01 -0.22656428122E+01  0.36064088854E+03  0.36075767939E+03  0.00000000000E+00 0. -1.
         -5    1    3    3    0  503 -0.43327134017E+02 -0.11948277151E+02  0.33220088168E+02  0.56086238302E+02  0.47000000000E+01 0.  1.
         11    1    4    4    0    0  0.21553044711E+02  0.51447632084E+02  0.89302875629E+02  0.10529195686E+03  0.00000000000E+00 0. -1.
        -12    1    4    4    0    0  0.45071315919E+02 -0.19162932191E+01  0.22346070466E+03  0.22796881854E+03  0.00000000000E+00 0.  1.
<mgrwt>
<rscale>  2 0.17911043E+03</rscale>
<asrwt>0</asrwt>
<pdfrwt beam="1">  1       21 0.14425939E+00 0.17929173E+03</pdfrwt>
<pdfrwt beam="2">  1       21 0.55046274E-02 0.17929173E+03</pdfrwt>
<totfact> 0.76134028E+04</totfact>
</mgrwt>
</event>
<event>
12    1  0.1026879E-001  0.4065338E+03  0.7546771E-02  0.1041616E+00
         21   -1    0    0  501  502  0.00000000000E+00  0.00000000000E+00  0.22923486624E+03  0.22923486624E+03  0.00000000000E+00 0. -1.
         21   -1    0    0  502  503 -0.00000000000E+00 -0.00000000000E+00 -0.11887053831E+04  0.11887053831E+04  0.00000000000E+00 0. -1.
         -6    2    1    2    0  503  0.25962980195E+03  0.25916555413E+03 -0.92553392511E+03  0.10108821743E+04  0.17520075714E+03 0.  0.
        -24    2    3    3    0    0  0.14754503144E+03  0.12160055995E+03 -0.65589169481E+03  0.68805691854E+03  0.81683384744E+02 0.  0.
          6    2    1    2  501    0 -0.25962980195E+03 -0.25916555413E+03 -0.33936591738E+02  0.40705807501E+03  0.17311893502E+03 0.  0.
         24    2    5    5    0    0 -0.11066887065E+03 -0.20290790091E+03 -0.37856607501E+02  0.24771021929E+03  0.80672268012E+02 0.  0.
          5    1    5    5  501    0 -0.14896093130E+03 -0.56257653221E+02  0.39200157631E+01  0.15934785572E+03  0.47000000000E+01 0. -1.
        -11    1    6    6    0    0 -0.96148883684E+02 -0.14523017063E+03  0.52531978273E+01  0.17425270839E+03  0.00000000000E+00 0.  1.
         12    1    6    6    0    0 -0.14519986970E+02 -0.57677730284E+02 -0.43109805329E+02  0.73457510901E+02  0.00000000000E+00 0. -1.
         -5    1    3    3    0  503  0.11208477051E+03  0.13756499418E+03 -0.26964223030E+03  0.32282525578E+03  0.47000000000E+01 0.  1.
         13    1    4    4    0    0  0.93128225586E+02  0.12201690634E+03 -0.48455221138E+03  0.50828322556E+03  0.00000000000E+00 0. -1.
        -14    1    4    4    0    0  0.54416805852E+02 -0.41634639657E+00 -0.17133948343E+03  0.17977369298E+03  0.00000000000E+00 0.  1.
<mgrwt>
<rscale>  2 0.40631040E+03</rscale>
<asrwt>0</asrwt>
<pdfrwt beam="1">  1       21 0.35266903E-01 0.40653379E+03</pdfrwt>
<pdfrwt beam="2">  1       21 0.18287775E+00 0.40653379E+03</pdfrwt>
<totfact> 0.11564116E+03</totfact>
</mgrwt>
</event>
<event>
12    1  0.1026879E-001  0.1930974E+03  0.7546771E-02  0.1156003E+00
         21   -1    0    0  501  502  0.00000000000E+00  0.00000000000E+00  0.20644639228E+03  0.20644639228E+03  0.00000000000E+00 0. -1.
         21   -1    0    0  502  503 -0.00000000000E+00 -0.00000000000E+00 -0.20102788392E+03  0.20102788392E+03  0.00000000000E+00 0. -1.
         -6    2    1    2    0  503 -0.83739921343E+02  0.24272627634E+01 -0.64228028158E+02  0.20349896229E+03  0.17397793545E+03 0.  0.
        -24    2    3    3    0    0 -0.14583301222E+02 -0.57728021654E+02 -0.50576431670E+02  0.11071021062E+03  0.78444745757E+02 0.  0.
          6    2    1    2  501    0  0.83739921343E+02 -0.24272627634E+01  0.69646536526E+02  0.20397531391E+03  0.17244425941E+03 0.  0.
         24    2    5    5    0    0  0.33241135145E+02 -0.57703129765E+02 -0.13305664916E+01  0.10070194835E+03  0.75528059318E+02 0.  0.
          5    1    5    5  501    0  0.50498786198E+02  0.55275867002E+02  0.70977103018E+02  0.10327336555E+03  0.47000000000E+01 0. -1.
        -11    1    6    6    0    0  0.19283504395E+02 -0.30436910588E+02 -0.38371271494E+02  0.52636617901E+02  0.00000000000E+00 0.  1.
         12    1    6    6    0    0  0.13957630750E+02 -0.27266219177E+02  0.37040705003E+02  0.48065330452E+02  0.00000000000E+00 0. -1.
         -5    1    3    3    0  503 -0.69156620121E+02  0.60155284418E+02 -0.13651596488E+02  0.92788751671E+02  0.47000000000E+01 0.  1.
         13    1    4    4    0    0 -0.18582046159E+02  0.16058500005E+02 -0.13767705986E+02  0.28155240898E+02  0.00000000000E+00 0. -1.
        -14    1    4    4    0    0  0.39987449377E+01 -0.73786521659E+02 -0.36808725684E+02  0.82554969724E+02  0.00000000000E+00 0.  1.
<mgrwt>
<rscale>  2 0.19275126E+03</rscale>
<asrwt>0</asrwt>
<pdfrwt beam="1">  1       21 0.31760984E-01 0.19309735E+03</pdfrwt>
<pdfrwt beam="2">  1       21 0.30927367E-01 0.19309735E+03</pdfrwt>
<totfact> 0.95699054E+04</totfact>
</mgrwt>
</event>
<event>
12    1  0.1026879E-001  0.2194215E+03  0.7546771E-02  0.1134566E+00
         21   -1    0    0  503  502  0.00000000000E+00  0.00000000000E+00  0.16728075957E+03  0.16728075957E+03  0.00000000000E+00 0.  1.
         21   -1    0    0  501  503 -0.00000000000E+00 -0.00000000000E+00 -0.29737120656E+03  0.29737120656E+03  0.00000000000E+00 0.  1.
          6    2    1    2  501    0 -0.12693973484E+03 -0.40520835946E+02 -0.11054621350E+03  0.24569548249E+03  0.17432776707E+03 0.  0.
         24    2    3    3    0    0 -0.13239787015E+03  0.17570855389E+02 -0.10279288793E+03  0.18664770607E+03  0.80206342597E+02 0.  0.
         -6    2    1    2    0  502  0.12693973484E+03  0.40520835946E+02 -0.19544233490E+02  0.21895648363E+03  0.17263930675E+03 0.  0.
        -24    2    5    5    0    0  0.11761587377E+02 -0.21052602226E+02 -0.28539950808E+02  0.87959129192E+02  0.79628717294E+02 0.  0.
          5    1    3    3  501    0  0.54581353137E+01 -0.58091691336E+02 -0.77533255736E+01  0.59047776425E+02  0.47000000000E+01 0. -1.
        -11    1    4    4    0    0 -0.11462078071E+03 -0.17890343462E+02 -0.73434035276E+02  0.13729728802E+03  0.00000000000E+00 0.  1.
         12    1    4    4    0    0 -0.17777089442E+02  0.35461198852E+02 -0.29358852650E+02  0.49350418052E+02  0.00000000000E+00 0. -1.
         -5    1    5    5    0  502  0.11517814746E+03  0.61573438173E+02  0.89957173183E+01  0.13099735444E+03  0.47000000000E+01 0.  1.
         11    1    6    6    0    0 -0.26576120981E+01  0.27729298534E+02 -0.24210338590E+02  0.36906874616E+02  0.00000000000E+00 0. -1.
        -12    1    6    6    0    0  0.14419199476E+02 -0.48781900760E+02 -0.43296122175E+01  0.51052254576E+02  0.00000000000E+00 0.  1.
<mgrwt>
<rscale>  2 0.21908599E+03</rscale>
<asrwt>0</asrwt>
<pdfrwt beam="1">  1       21 0.25735502E-01 0.21942152E+03</pdfrwt>
<pdfrwt beam="2">  1       21 0.45749416E-01 0.21942152E+03</pdfrwt>
<totfact> 0.64861704E+04</totfact>
</mgrwt>
</event>
<event>
12    1  0.1026879E-001  0.2250635E+03  0.7546771E-02  0.1130609E+00
         21   -1    0    0  503  502  0.00000000000E+00  0.00000000000E+00  0.54250853523E+03  0.54250853523E+03  0.00000000000E+00 0. -1.
         21   -1    0    0  501  503 -0.00000000000E+00 -0.00000000000E+00 -0.13920345204E+03  0.13920345204E+03  0.00000000000E+00 0.  1.
          6    2    1    2  501    0 -0.49205393110E+02  0.13587824339E+03  0.31890328456E+01  0.22264070522E+03  0.16933589682E+03 0.  0.
         24    2    3    3    0    0 -0.33886735755E+01  0.15449881073E+03 -0.74708047175E+01  0.17183106584E+03  0.74757853340E+02 0.  0.
         -6    2    1    2    0  502  0.49205393110E+02 -0.13587824339E+03  0.40011605034E+03  0.45907128205E+03  0.17253846103E+03 0.  0.
        -24    2    5    5    0    0  0.92513610372E+02 -0.99634371352E+02  0.22432871328E+03  0.27437559230E+03  0.80453825216E+02 0.  0.
          5    1    3    3  501    0 -0.45816719534E+02 -0.18620567348E+02  0.10659837563E+02  0.50809639382E+02  0.47000000000E+01 0. -1.
        -11    1    4    4    0    0 -0.27430158989E+02  0.91125946176E+02 -0.30994699326E+02  0.10008507918E+03  0.00000000000E+00 0.  1.
         12    1    4    4    0    0  0.24041485414E+02  0.63372864559E+02  0.23523894609E+02  0.71745986653E+02  0.00000000000E+00 0. -1.
         -5    1    5    5    0  502 -0.43308217262E+02 -0.36243872035E+02  0.17578733706E+03  0.18469568975E+03  0.47000000000E+01 0.  1.
         13    1    6    6    0    0  0.67133741289E+02 -0.18228516639E+02  0.12835055357E+03  0.14599000870E+03  0.00000000000E+00 0. -1.
        -14    1    6    6    0    0  0.25379869083E+02 -0.81405854712E+02  0.95978159703E+02  0.12838558360E+03  0.00000000000E+00 0.  1.
<mgrwt>
<rscale>  2 0.22444960E+03</rscale>
<asrwt>0</asrwt>
<pdfrwt beam="1">  1       21 0.83462850E-01 0.22506352E+03</pdfrwt>
<pdfrwt beam="2">  1       21 0.21415916E-01 0.22506352E+03</pdfrwt>
<totfact> 0.24910316E+04</totfact>
</mgrwt>
</event>
<event>
12    1  0.1026879E-001  0.1946301E+03  0.7546771E-02  0.1154665E+00
         21   -1    0    0  503  502  0.00000000000E+00  0.00000000000E+00  0.59536362690E+03  0.59536362690E+03  0.00000000000E+00 0.  1.
         21   -1    0    0  501  503 -0.00000000000E+00 -0.00000000000E+00 -0.93635234878E+02  0.93635234878E+02  0.00000000000E+00 0.  1.
          6    2    1    2  501    0 -0.84810347627E+02  0.21465338852E+02  0.54950311480E+02  0.20223850153E+03  0.17386005560E+03 0.  0.
         24    2    3    3    0    0 -0.72579412437E+02 -0.39831324811E+02 -0.40938443014E+00  0.11861038017E+03  0.84934970074E+02 0.  0.
         -6    2    1    2    0  502  0.84810347627E+02 -0.21465338852E+02  0.44677808054E+03  0.48676036024E+03  0.17225399623E+03 0.  0.
        -24    2    5    5    0    0  0.12076186593E+03  0.10220907915E+02  0.31140713325E+03  0.34308046160E+03  0.77729693643E+02 0.  0.
          5    1    3    3  501    0 -0.12230935190E+02  0.61296663664E+02  0.55359695910E+02  0.83628121366E+02  0.47000000000E+01 0. -1.
        -13    1    4    4    0    0  0.48526420779E+01 -0.28782809679E+02 -0.23039328122E+02  0.37186138661E+02  0.00000000000E+00 0.  1.
         14    1    4    4    0    0 -0.77432054515E+02 -0.11048515132E+02  0.22629943692E+02  0.81424241505E+02  0.00000000000E+00 0. -1.
         -5    1    5    5    0  502 -0.35951518306E+02 -0.31686246767E+02  0.13537094730E+03  0.14367989864E+03  0.47000000000E+01 0.  1.
         13    1    6    6    0    0  0.44916023978E+02  0.38255482614E+02  0.92477395488E+02  0.10969503105E+03  0.00000000000E+00 0. -1.
        -14    1    6    6    0    0  0.75845841955E+02 -0.28034574700E+02  0.21892973776E+03  0.23338543055E+03  0.00000000000E+00 0.  1.
<mgrwt>
<rscale>  2 0.19427077E+03</rscale>
<asrwt>0</asrwt>
<pdfrwt beam="1">  1       21 0.91594402E-01 0.19463010E+03</pdfrwt>
<pdfrwt beam="2">  1       21 0.14405421E-01 0.19463010E+03</pdfrwt>
<totfact> 0.42544859E+04</totfact>
</mgrwt>
</event>
<event>
12    1  0.1026879E-001  0.1881878E+03  0.7546771E-02  0.1160217E+00
         21   -1    0    0  503  502  0.00000000000E+00  0.00000000000E+00  0.12262452625E+03  0.12262452625E+03  0.00000000000E+00 0. -1.
         21   -1    0    0  501  503 -0.00000000000E+00 -0.00000000000E+00 -0.32361630999E+03  0.32361630999E+03  0.00000000000E+00 0. -1.
          6    2    1    2  501    0  0.15494869630E+02  0.72870858011E+02 -0.17433436566E+03  0.25617436242E+03  0.17228633139E+03 0.  0.
         24    2    3    3    0    0  0.15539492419E+02 -0.25930048381E+02 -0.61056433399E+02  0.10578951933E+03  0.80930161916E+02 0.  0.
         -6    2    1    2    0  502 -0.15494869630E+02 -0.72870858011E+02 -0.26657418081E+02  0.19006647381E+03  0.17281317541E+03 0.  0.
        -24    2    5    5    0    0 -0.73424526463E+02 -0.29935147419E+02 -0.30142102244E+02  0.11772317137E+03  0.81626739561E+02 0.  0.
          5    1    3    3  501    0 -0.44622788961E-01  0.98800906393E+02 -0.11327793226E+03  0.15038484309E+03  0.47000000000E+01 0. -1.
        -11    1    4    4    0    0 -0.15189554370E+01 -0.88827561724E+01 -0.76580273405E+02  0.77108682116E+02  0.00000000000E+00 0.  1.
         12    1    4    4    0    0  0.17058447856E+02 -0.17047292209E+02  0.15523840007E+02  0.28680837217E+02  0.00000000000E+00 0. -1.
         -5    1    5    5    0  502  0.57929656833E+02 -0.42935710593E+02  0.34846841630E+01  0.72343302445E+02  0.47000000000E+01 0.  1.
         11    1    6    6    0    0 -0.16556005592E+02 -0.34954734434E+02  0.18358325463E+02  0.42813115915E+02  0.00000000000E+00 0. -1.
        -12    1    6    6    0    0 -0.56868520871E+02  0.50195870155E+01 -0.48500427708E+02  0.74910055451E+02  0.00000000000E+00 0.  1.
<mgrwt>
<rscale>  2 0.18806676E+03</rscale>
<asrwt>0</asrwt>
<pdfrwt beam="1">  1       21 0.18865312E-01 0.18818780E+03</pdfrwt>
<pdfrwt beam="2">  1       21 0.49787125E-01 0.18818780E+03</pdfrwt>
<totfact> 0.99110891E+04</totfact>
</mgrwt>
</event>
<event>
12    1  0.1026879E-001  0.1759549E+03  0.7546771E-02  0.1172313E+00
         21   -1    0    0  503  502  0.00000000000E+00  0.00000000000E+00  0.35307153810E+02  0.35307153810E+02  0.00000000000E+00 0.  1.
         21   -1    0    0  501  503 -0.00000000000E+00 -0.00000000000E+00 -0.11967949440E+04  0.11967949440E+04  0.00000000000E+00 0.  1.
          6    2    1    2  501    0  0.22612729541E+02  0.13854332288E+02 -0.90706688381E+03  0.92397535625E+03  0.17394496020E+03 0.  0.
         24    2    3    3    0    0 -0.45236061518E+02  0.32358727254E+02 -0.64734658911E+03  0.65486089629E+03  0.81803414079E+02 0.  0.
         -6    2    1    2    0  502 -0.22612729541E+02 -0.13854332288E+02 -0.25442090638E+03  0.30812674157E+03  0.17178129469E+03 0.  0.
        -24    2    5    5    0    0 -0.20422109767E+01 -0.75885462687E+02 -0.15899409148E+03  0.19237107486E+03  0.77231698443E+02 0.  0.
          5    1    3    3  501    0  0.67848791060E+02 -0.18504394967E+02 -0.25972029470E+03  0.26911445996E+03  0.47000000000E+01 0. -1.
        -13    1    4    4    0    0 -0.72344638606E+01 -0.66621396025E+01 -0.45078454674E+03  0.45089181535E+03  0.00000000000E+00 0.  1.
         14    1    4    4    0    0 -0.38001597658E+02  0.39020866857E+02 -0.19656204238E+03  0.20396908094E+03  0.00000000000E+00 0. -1.
         -5    1    5    5    0  502 -0.20570518564E+02  0.62031130400E+02 -0.95426814901E+02  0.11575566671E+03  0.47000000000E+01 0.  1.
         13    1    6    6    0    0  0.30945847606E+02 -0.23368033568E+02 -0.97964595811E+02  0.10536020363E+03  0.00000000000E+00 0. -1.
        -14    1    6    6    0    0 -0.32988058583E+02 -0.52517429120E+02 -0.61029495669E+02  0.87010871229E+02  0.00000000000E+00 0.  1.
<mgrwt>
<rscale>  2 0.17541779E+03</rscale>
<asrwt>0</asrwt>
<pdfrwt beam="1">  1       21 0.54318705E-02 0.17595490E+03</pdfrwt>
<pdfrwt beam="2">  1       21 0.18412228E+00 0.17595490E+03</pdfrwt>
<totfact> 0.40317279E+04</totfact>
</mgrwt>
</event>
<event>
12    1  0.1026879E-001  0.2669035E+03  0.7546771E-02  0.1103099E+00
         21   -1    0    0  503  502  0.00000000000E+00  0.00000000000E+00  0.22281086770E+04  0.22281086770E+04  0.00000000000E+00 0.  1.
         21   -1    0    0  501  503 -0.00000000000E+00 -0.00000000000E+00 -0.32518598322E+02  0.32518598322E+02  0.00000000000E+00 0.  1.
          6    2    1    2  501    0  0.11634205140E+03 -0.16654125238E+03  0.94803800903E+03  0.98489266341E+03  0.17310699064E+03 0.  0.
         24    2    3    3    0    0  0.14307525967E+03 -0.96964134564E+02  0.72666895118E+03  0.75126477655E+03  0.80488673425E+02 0.  0.
         -6    2    1    2    0  502 -0.11634205140E+03  0.16654125238E+03  0.12475520696E+04  0.12757346119E+04  0.17274597497E+03 0.  0.
        -24    2    5    5    0    0 -0.98696764118E+02  0.19167607925E+03  0.11646666877E+04  0.11872179908E+04  0.80977116827E+02 0.  0.
          5    1    3    3  501    0 -0.26733208267E+02 -0.69577117818E+02  0.22136905785E+03  0.23362788686E+03  0.47000000000E+01 0. -1.
        -13    1    4    4    0    0  0.33328400068E+02 -0.97035970769E+01  0.30336198438E+03  0.30534150654E+03  0.00000000000E+00 0.  1.
         14    1    4    4    0    0  0.10974685960E+03 -0.87260537487E+02  0.42330696680E+03  0.44592327001E+03  0.00000000000E+00 0. -1.
         -5    1    5    5    0  502 -0.17645287282E+02 -0.25134826871E+02  0.82885381865E+02  0.88516621106E+02  0.47000000000E+01 0.  1.
         11    1    6    6    0    0 -0.35381490038E+02  0.71152420582E+02  0.24594064361E+03  0.25845950741E+03  0.00000000000E+00 0. -1.
        -12    1    6    6    0    0 -0.63315274079E+02  0.12052365867E+03  0.91872604412E+03  0.92875848334E+03  0.00000000000E+00 0.  1.
<mgrwt>
<rscale>  2 0.26684501E+03</rscale>
<asrwt>0</asrwt>
<pdfrwt beam="1">  1       21 0.34278583E+00 0.26690353E+03</pdfrwt>
<pdfrwt beam="2">  1       21 0.50028630E-02 0.26690353E+03</pdfrwt>
<totfact> 0.47867201E+03</totfact>
</mgrwt>
</event>
<event>
12    1  0.1026879E-001  0.1914626E+03  0.7546771E-02  0.1157587E+00
         21   -1    0    0  503  502  0.00000000000E+00  0.00000000000E+00  0.98060070413E+03  0.98060070413E+03  0.00000000000E+00 0. -1.
         21   -1    0    0  501  503 -0.00000000000E+00 -0.00000000000E+00 -0.87909712393E+02  0.87909712393E+02  0.00000000000E+00 0. -1.
          6    2    1    2  501    0  0.31181161245E+02  0.74666121720E+02  0.38832314463E+02  0.19344895239E+03  0.17136876607E+03 0.  0.
         24    2    3    3    0    0  0.65911331221E+02  0.93000274880E+02  0.56751192201E+02  0.15002658421E+03  0.79334251388E+02 0.  0.
         -6    2    1    2    0  502 -0.31181161245E+02 -0.74666121720E+02  0.85385867727E+03  0.87506146413E+03  0.17352415021E+03 0.  0.
        -24    2    5    5    0    0 -0.18476084220E+02  0.26937436366E+02  0.33310571107E+03  0.34431628629E+03  0.80791701855E+02 0.  0.
          5    1    3    3  501    0 -0.34730169976E+02 -0.18334153160E+02 -0.17918877738E+02  0.43422368177E+02  0.47000000000E+01 0. -1.
        -11    1    4    4    0    0  0.44294872133E+00  0.36211509893E+02  0.51819809161E+02  0.63219951548E+02  0.00000000000E+00 0.  1.
         12    1    4    4    0    0  0.65468382500E+02  0.56788764987E+02  0.49313830399E+01  0.86806632665E+02  0.00000000000E+00 0. -1.
         -5    1    5    5    0  502 -0.12705077024E+02 -0.10160355809E+03  0.52075296620E+03  0.53074517784E+03  0.47000000000E+01 0.  1.
         13    1    6    6    0    0  0.14036637093E+02 -0.12566451930E+02  0.21215081751E+03  0.21298570906E+03  0.00000000000E+00 0. -1.
        -14    1    6    6    0    0 -0.32512721313E+02  0.39503888297E+02  0.12095489356E+03  0.13133057723E+03  0.00000000000E+00 0.  1.
<mgrwt>
<rscale>  2 0.19097291E+03</rscale>
<asrwt>0</asrwt>
<pdfrwt beam="1">  1       21 0.15086164E+00 0.19146259E+03</pdfrwt>
<pdfrwt beam="2">  1       21 0.13524572E-01 0.19146259E+03</pdfrwt>
<totfact> 0.13947781E+04</totfact>
</mgrwt>
</event>
<event>
12    1  0.1026879E-001  0.2178482E+03  0.7546771E-02  0.1135614E+00
         21   -1    0    0  503  502  0.00000000000E+00  0.00000000000E+00  0.10870670610E+04  0.10870670610E+04  0.00000000000E+00 0. -1.
         21   -1    0    0  501  503 -0.00000000000E+00 -0.00000000000E+00 -0.47779753048E+02  0.47779753048E+02  0.00000000000E+00 0.  1.
          6    2    1    2  501    0  0.13008598398E+03  0.26207607996E+02  0.34982246334E+03  0.41178413909E+03  0.17199191669E+03 0.  0.
         24    2    3    3    0    0  0.13707591721E+03  0.35359225589E+02  0.18339479731E+03  0.24489234992E+03  0.79363275243E+02 0.  0.
         -6    2    1    2    0  502 -0.13008598398E+03 -0.26207607996E+02  0.68946484462E+03  0.72306267496E+03  0.17276764169E+03 0.  0.
        -24    2    5    5    0    0  0.25942888550E+01 -0.86832809243E+01  0.32479688327E+03  0.33458362936E+03  0.79818919764E+02 0.  0.
          5    1    3    3  501    0 -0.69899332327E+01 -0.91516175931E+01  0.16642766603E+03  0.16689178917E+03  0.47000000000E+01 0. -1.
        -11    1    4    4    0    0  0.13349254799E+03  0.75008137235E+01  0.15848489959E+03  0.20734991192E+03  0.00000000000E+00 0.  1.
         12    1    4    4    0    0  0.35833692171E+01  0.27858411865E+02  0.24909897717E+02  0.37542437999E+02  0.00000000000E+00 0. -1.
         -5    1    5    5    0  502 -0.13268027283E+03 -0.17524327072E+02  0.36466796135E+03  0.38847904560E+03  0.47000000000E+01 0.  1.
         13    1    6    6    0    0  0.46563099815E+01 -0.34257512908E+01  0.32802684026E+03  0.32807777268E+03  0.00000000000E+00 0. -1.
        -14    1    6    6    0    0 -0.20620211266E+01 -0.52575296335E+01 -0.32299569925E+01  0.65058566805E+01  0.00000000000E+00 0.  1.
<mgrwt>
<rscale>  2 0.21769442E+03</rscale>
<asrwt>0</asrwt>
<pdfrwt beam="1">  1       21 0.16724107E+00 0.21784825E+03</pdfrwt>
<pdfrwt beam="2">  1       21 0.73507321E-02 0.21784825E+03</pdfrwt>
<totfact> 0.30530497E+04</totfact>
</mgrwt>
</event>
<event>
12    1  0.1026879E-001  0.1810788E+03  0.7546771E-02  0.1167758E+00
         21   -1    0    0  501  502  0.00000000000E+00  0.00000000000E+00  0.29750861248E+03  0.29750861248E+03  0.00000000000E+00 0.  1.
         21   -1    0    0  502  503 -0.00000000000E+00 -0.00000000000E+00 -0.19407718235E+03  0.19407718235E+03  0.00000000000E+00 0.  1.
         -6    2    1    2    0  503  0.26446451930E+02  0.28159318713E+02  0.21598081218E+03  0.28184613013E+03  0.17691005564E+03 0.  0.
        -24    2    3    3    0    0 -0.40956782631E+02  0.41146091290E+02  0.17714269262E+03  0.20283763804E+03  0.79956957074E+02 0.  0.
          6    2    1    2  501    0 -0.26446451930E+02 -0.28159318713E+02 -0.11254938205E+03  0.20973966469E+03  0.17271653510E+03 0.  0.
         24    2    5    5    0    0 -0.70123420668E+02  0.24827282660E+02 -0.63472195153E+02  0.12520613409E+03  0.78193147814E+02 0.  0.
          5    1    5    5  501    0  0.43676968738E+02 -0.52986601373E+02 -0.49077186895E+02  0.84533530606E+02  0.47000000000E+01 0. -1.
        -11    1    6    6    0    0 -0.27839802326E+02  0.45817813994E+02 -0.55795951809E+02  0.77379034053E+02  0.00000000000E+00 0.  1.
         12    1    6    6    0    0 -0.42283618343E+02 -0.20990531334E+02 -0.76762433444E+01  0.47827100035E+02  0.00000000000E+00 0. -1.
         -5    1    3    3    0  503  0.67403234561E+02 -0.12986772578E+02  0.38838119561E+02  0.79008492090E+02  0.47000000000E+01 0.  1.
         11    1    4    4    0    0 -0.30257319347E+02  0.40362745321E+01  0.11288077512E+02  0.32545623055E+02  0.00000000000E+00 0. -1.
        -12    1    4    4    0    0 -0.10699463285E+02  0.37109816758E+02  0.16585461511E+03  0.17029201498E+03  0.00000000000E+00 0.  1.
<mgrwt>
<rscale>  2 0.18004632E+03</rscale>
<asrwt>0</asrwt>
<pdfrwt beam="1">  1       21 0.45770556E-01 0.18107879E+03</pdfrwt>
<pdfrwt beam="2">  1       21 0.29858028E-01 0.18107879E+03</pdfrwt>
<totfact> 0.49485452E+04</totfact>
</mgrwt>
</event>
<event>
12    1  0.1026879E-001  0.1787029E+03  0.7546771E-02  0.1169546E+00
         21   -1    0    0  501  502  0.00000000000E+00  0.00000000000E+00  0.28221541080E+03  0.28221541080E+03  0.00000000000E+00 0. -1.
         21   -1    0    0  502  503 -0.00000000000E+00 -0.00000000000E+00 -0.13650100134E+03  0.13650100134E+03  0.00000000000E+00 0.  1.
         -6    2    1    2    0  503 -0.35845239948E+02  0.67155512941E+01 -0.16313612479E+02  0.17749495827E+03  0.17294029722E+03 0.  0.
        -24    2    3    3    0    0 -0.28781940694E+01  0.18651088480E+02 -0.75093964882E+02  0.10889100073E+03  0.76563694889E+02 0.  0.
          6    2    1    2  501    0  0.35845239948E+02 -0.67155512941E+01  0.16202802194E+03  0.24122145387E+03  0.17494207629E+03 0.  0.
         24    2    5    5    0    0 -0.41749903597E+02  0.15794243094E+02  0.11456339013E+03  0.14739886374E+03  0.81296630366E+02 0.  0.
          5    1    5    5  501    0  0.77595143544E+02 -0.22509794388E+02  0.47464631810E+02  0.93822590126E+02  0.47000000000E+01 0. -1.
        -11    1    6    6    0    0 -0.53213886252E+02 -0.67148065389E+00  0.31274123994E+02  0.61727136722E+02  0.00000000000E+00 0.  1.
         12    1    6    6    0    0  0.11463982655E+02  0.16465723748E+02  0.83289266139E+02  0.85671727022E+02  0.00000000000E+00 0. -1.
         -5    1    3    3    0  503 -0.32967045878E+02 -0.11935537186E+02  0.58780352403E+02  0.68603957542E+02  0.47000000000E+01 0.  1.
         13    1    4    4    0    0  0.34586019806E+02  0.22362590899E+02 -0.37954890176E+02  0.56007605965E+02  0.00000000000E+00 0. -1.
        -14    1    4    4    0    0 -0.37464213875E+02 -0.37115024187E+01 -0.37139074707E+02  0.52883394762E+02  0.00000000000E+00 0.  1.
<mgrwt>
<rscale>  2 0.17821103E+03</rscale>
<asrwt>0</asrwt>
<pdfrwt beam="1">  1       21 0.43417755E-01 0.17870285E+03</pdfrwt>
<pdfrwt beam="2">  1       21 0.21000154E-01 0.17870285E+03</pdfrwt>
<totfact> 0.10797996E+05</totfact>
</mgrwt>
</event>
<event>
12    1  0.1026879E-001  0.1860685E+03  0.7546771E-02  0.1162289E+00
         21   -1    0    0  503  502  0.00000000000E+00  0.00000000000E+00  0.87538806057E+03  0.87538806057E+03  0.00000000000E+00 0.  1.
         21   -1    0    0  501  503 -0.00000000000E+00 -0.00000000000E+00 -0.88275654155E+02  0.88275654155E+02  0.00000000000E+00 0. -1.
          6    2    1    2  501    0  0.64256938662E+02  0.14289395333E+02  0.35272338569E+02  0.18938224332E+03  0.17403549992E+03 0.  0.
         24    2    3    3    0    0  0.42979459868E+02  0.76061621769E+02  0.16176490655E+02  0.12115262753E+03  0.82363074442E+02 0.  0.
         -6    2    1    2    0  502 -0.64256938662E+02 -0.14289395333E+02  0.75184006784E+03  0.77428147140E+03  0.17296001954E+03 0.  0.
        -24    2    5    5    0    0  0.25485987711E+01  0.32443157623E+02  0.14798146973E+03  0.16492590373E+03  0.65138195448E+02 0.  0.
          5    1    3    3  501    0  0.21277478794E+02 -0.61772226435E+02  0.19095847914E+02  0.68229615785E+02  0.47000000000E+01 0. -1.
        -11    1    4    4    0    0  0.13091187410E+02  0.49619131679E+01 -0.28691363379E+02  0.31924819540E+02  0.00000000000E+00 0.  1.
         12    1    4    4    0    0  0.29888272458E+02  0.71099708601E+02  0.44867854034E+02  0.89227807993E+02  0.00000000000E+00 0. -1.
         -5    1    5    5    0  502 -0.66805537434E+02 -0.46732552956E+02  0.60385859811E+03  0.60935556767E+03  0.47000000000E+01 0.  1.
         11    1    6    6    0    0  0.29193232494E+02  0.27409105099E+01  0.89077533880E+02  0.93779339174E+02  0.00000000000E+00 0. -1.
        -12    1    6    6    0    0 -0.26644633723E+02  0.29702247113E+02  0.58903935850E+02  0.71146564558E+02  0.00000000000E+00 0.  1.
<mgrwt>
<rscale>  2 0.18581663E+03</rscale>
<asrwt>0</asrwt>
<pdfrwt beam="1">  1       21 0.13467508E+00 0.18606853E+03</pdfrwt>
<pdfrwt beam="2">  1       21 0.13580870E-01 0.18606853E+03</pdfrwt>
<totfact> 0.18648524E+04</totfact>
</mgrwt>
</event>
<event>
12    1  0.1026879E-001  0.2007762E+03  0.7546771E-02  0.1149546E+00
         21   -1    0    0  503  502  0.00000000000E+00  0.00000000000E+00  0.60762816896E+03  0.60762816896E+03  0.00000000000E+00 0. -1.
         21   -1    0    0  501  503 -0.00000000000E+00 -0.00000000000E+00 -0.95480484124E+02  0.95480484124E+02  0.00000000000E+00 0. -1.
          6    2    1    2  501    0  0.30854544701E+01 -0.10101925797E+03  0.45170153827E+03  0.49343071153E+03  0.17095372736E+03 0.  0.
         24    2    3    3    0    0  0.56633205027E+02 -0.10554031587E+03  0.29834784031E+03  0.33086611443E+03  0.78197657722E+02 0.  0.
         -6    2    1    2    0  502 -0.30854544701E+01  0.10101925797E+03  0.60446146568E+02  0.20967794155E+03  0.17348398205E+03 0.  0.
        -24    2    5    5    0    0  0.19161396518E+02  0.31381575686E+00 -0.12605641628E+02  0.83205959562E+02  0.79981697337E+02 0.  0.
          5    1    3    3  501    0 -0.53547750557E+02  0.45210578969E+01  0.15335369796E+03  0.16256459710E+03  0.47000000000E+01 0. -1.
        -11    1    4    4    0    0  0.35012059784E+02 -0.26766471113E+01  0.49126172865E+02  0.60385342844E+02  0.00000000000E+00 0.  1.
         12    1    4    4    0    0  0.21621145242E+02 -0.10286366876E+03  0.24922166745E+03  0.27048077158E+03  0.00000000000E+00 0. -1.
         -5    1    5    5    0  502 -0.22246850989E+02  0.10070544221E+03  0.73051788196E+02  0.12647198199E+03  0.47000000000E+01 0.  1.
         11    1    6    6    0    0 -0.24701697613E+01  0.26418061704E+02  0.22216495793E+02  0.34606190316E+02  0.00000000000E+00 0. -1.
        -12    1    6    6    0    0  0.21631566280E+02 -0.26104245947E+02 -0.34822137421E+02  0.48599769246E+02  0.00000000000E+00 0.  1.
<mgrwt>
<rscale>  2 0.20022846E+03</rscale>
<asrwt>0</asrwt>
<pdfrwt beam="1">  1       21 0.93481254E-01 0.20077625E+03</pdfrwt>
<pdfrwt beam="2">  1       21 0.14689306E-01 0.20077625E+03</pdfrwt>
<totfact> 0.39027385E+04</totfact>
</mgrwt>
</event>
<event>
12    1  0.1026879E-001  0.1879833E+03  0.7546771E-02  0.1160401E+00
         21   -1    0    0  503  502  0.00000000000E+00  0.00000000000E+00  0.55499390236E+02  0.55499390236E+02  0.00000000000E+00 0. -1.
         21   -1    0    0  501  503 -0.00000000000E+00 -0.00000000000E+00 -0.68049408177E+03  0.68049408177E+03  0.00000000000E+00 0. -1.
          6    2    1    2  501    0 -0.63100563854E+02 -0.32900094354E+02 -0.40788306091E+03  0.44911726582E+03  0.17399318870E+03 0.  0.
         24    2    3    3    0    0 -0.17881707656E+02  0.13511493509E+02 -0.35718062949E+03  0.36670605909E+03  0.79956336583E+02 0.  0.
         -6    2    1    2    0  502  0.63100563854E+02  0.32900094354E+02 -0.21711163062E+03  0.28687620618E+03  0.17348314084E+03 0.  0.
        -24    2    5    5    0    0  0.52975075840E+02 -0.45821552620E+02 -0.13743922624E+03  0.17431775368E+03  0.81185990133E+02 0.  0.
          5    1    3    3  501    0 -0.45218856198E+02 -0.46411587864E+02 -0.50702431418E+02  0.82411206736E+02  0.47000000000E+01 0. -1.
        -11    1    4    4    0    0  0.29251746297E+02  0.62121531451E+00 -0.78529483974E+02  0.83802926101E+02  0.00000000000E+00 0.  1.
         12    1    4    4    0    0 -0.47133453953E+02  0.12890278195E+02 -0.27865114552E+03  0.28290313299E+03  0.00000000000E+00 0. -1.
         -5    1    5    5    0  502  0.10125488014E+02  0.78721646975E+02 -0.79672404379E+02  0.11255845250E+03  0.47000000000E+01 0.  1.
         13    1    6    6    0    0  0.88834392664E+01  0.98028223041E+01  0.58090556119E+01  0.14448389025E+02  0.00000000000E+00 0. -1.
        -14    1    6    6    0    0  0.44091636574E+02 -0.55624374924E+02 -0.14324828186E+03  0.15986936466E+03  0.00000000000E+00 0.  1.
<mgrwt>
<rscale>  2 0.18786521E+03</rscale>
<asrwt>0</asrwt>
<pdfrwt beam="1">  1       21 0.85383680E-02 0.18798332E+03</pdfrwt>
<pdfrwt beam="2">  1       21 0.10469139E+00 0.18798332E+03</pdfrwt>
<totfact> 0.78978840E+04</totfact>
</mgrwt>
</event>
<event>
12    1  0.1026879E-001  0.1785013E+03  0.7546771E-02  0.1169322E+00
         21   -1    0    0  501  502  0.00000000000E+00  0.00000000000E+00  0.12470681813E+03  0.12470681813E+03  0.00000000000E+00 0.  1.
         21   -1    0    0  502  503 -0.00000000000E+00 -0.00000000000E+00 -0.32135578396E+03  0.32135578396E+03  0.00000000000E+00 0.  1.
         -6    2    1    2    0  503 -0.68952679365E+01  0.42634808150E+02 -0.19950628013E+03  0.26753844439E+03  0.17294158503E+03 0.  0.
        -24    2    3    3    0    0  0.51716444138E+02  0.53101788666E+02 -0.16706705467E+03  0.19957313102E+03  0.80147634496E+02 0.  0.
          6    2    1    2  501    0  0.68952679365E+01 -0.42634808150E+02  0.28573142985E+01  0.17852415769E+03  0.17319768777E+03 0.  0.
         24    2    5    5    0    0 -0.24198115224E+02  0.53747278270E+01  0.55788118813E+02  0.10045064050E+03  0.79772053352E+02 0.  0.
          5    1    5    5  501    0  0.31093383161E+02 -0.48009535977E+02 -0.52930804514E+02  0.78073517198E+02  0.47000000000E+01 0. -1.
        -11    1    6    6    0    0 -0.36671182701E+01 -0.20705769064E+02 -0.12542808991E+02  0.24484662267E+02  0.00000000000E+00 0.  1.
         12    1    6    6    0    0 -0.20530996954E+02  0.26080496891E+02  0.68330927804E+02  0.75965978231E+02  0.00000000000E+00 0. -1.
         -5    1    3    3    0  503 -0.58611712075E+02 -0.10466980516E+02 -0.32439225452E+02  0.67965313369E+02  0.47000000000E+01 0.  1.
         11    1    4    4    0    0 -0.21635435691E+02  0.14377936056E+02 -0.34323763313E+02  0.43045764608E+02  0.00000000000E+00 0. -1.
        -12    1    4    4    0    0  0.73351879829E+02  0.38723852610E+02 -0.13274329136E+03  0.15652736641E+03  0.00000000000E+00 0.  1.
<mgrwt>
<rscale>  2 0.17843914E+03</rscale>
<asrwt>0</asrwt>
<pdfrwt beam="1">  1       21 0.19185664E-01 0.17850129E+03</pdfrwt>
<pdfrwt beam="2">  1       21 0.49439351E-01 0.17850129E+03</pdfrwt>
<totfact> 0.97831280E+04</totfact>
</mgrwt>
</event>
<event>
12    1  0.1026879E-001  0.2220924E+03  0.7546771E-02  0.1132966E+00
         21   -1    0    0  503  502  0.00000000000E+00  0.00000000000E+00  0.20564931538E+03  0.20564931538E+03  0.00000000000E+00 0.  1.
         21   -1    0    0  501  503 -0.00000000000E+00 -0.00000000000E+00 -0.27770530431E+03  0.27770530431E+03  0.00000000000E+00 0.  1.
          6    2    1    2  501    0  0.89057647185E+02 -0.10569994174E+03 -0.12972021340E+03  0.25720104870E+03  0.17384275505E+03 0.  0.
         24    2    3    3    0    0  0.72617975945E+02 -0.64786047941E+02 -0.16005556195E+03  0.20347458531E+03  0.79457671215E+02 0.  0.
         -6    2    1    2    0  502 -0.89057647185E+02  0.10569994174E+03  0.57664224473E+02  0.22615357099E+03  0.16945953111E+03 0.  0.
        -24    2    5    5    0    0 -0.61990954776E+02  0.11789360213E+02 -0.15443859847E+02  0.10401150145E+03  0.81228148678E+02 0.  0.
          5    1    3    3  501    0  0.16439671240E+02 -0.40913893797E+02  0.30335348560E+02  0.53726463390E+02  0.47000000000E+01 0. -1.
        -13    1    4    4    0    0  0.23018327950E+02 -0.39076754484E+02 -0.13468727029E+03  0.14211789803E+03  0.00000000000E+00 0.  1.
         14    1    4    4    0    0  0.49599647995E+02 -0.25709293457E+02 -0.25368291663E+02  0.61356687274E+02  0.00000000000E+00 0. -1.
         -5    1    5    5    0  502 -0.27066692409E+02  0.93910581525E+02  0.73108084320E+02  0.12214206955E+03  0.47000000000E+01 0.  1.
         11    1    6    6    0    0 -0.39693801890E+02 -0.23322498805E+02 -0.35211035662E+02  0.57959933501E+02  0.00000000000E+00 0. -1.
        -12    1    6    6    0    0 -0.22297152886E+02  0.35111859018E+02  0.19767175815E+02  0.46051567945E+02  0.00000000000E+00 0.  1.
<mgrwt>
<rscale>  2 0.22123397E+03</rscale>
<asrwt>0</asrwt>
<pdfrwt beam="1">  1       21 0.31638356E-01 0.22209243E+03</pdfrwt>
<pdfrwt beam="2">  1       21 0.42723893E-01 0.22209243E+03</pdfrwt>
<totfact> 0.49912411E+04</totfact>
</mgrwt>
</event>
<event>
12    1  0.1026879E-001  0.2397612E+03  0.7546771E-02  0.1120034E+00
         21   -1    0    0  501  502  0.00000000000E+00  0.00000000000E+00  0.13216349802E+03  0.13216349802E+03  0.00000000000E+00 0.  1.
         21   -1    0    0  502  503 -0.00000000000E+00 -0.00000000000E+00 -0.56325932216E+03  0.56325932216E+03  0.00000000000E+00 0.  1.
         -6    2    1    2    0  503 -0.57839481050E+02 -0.15501056536E+03 -0.38190192198E+03  0.45066684685E+03  0.17285209832E+03 0.  0.
        -24    2    3    3    0    0 -0.50337810741E+02 -0.28436090006E+02 -0.23910137707E+03  0.25963947055E+03  0.83070330113E+02 0.  0.
          6    2    1    2  501    0  0.57839481050E+02  0.15501056536E+03 -0.49193902160E+02  0.24475597333E+03  0.17352742010E+03 0.  0.
         24    2    5    5    0    0  0.10422951897E+03  0.91078453272E+02 -0.27130843643E+02  0.16260842847E+03  0.80909462112E+02 0.  0.
          5    1    5    5  501    0 -0.46390037917E+02  0.63932112090E+02 -0.22063058517E+02  0.82147544853E+02  0.47000000000E+01 0. -1.
        -13    1    6    6    0    0  0.66706208476E+02  0.83227889539E+02 -0.50181681699E+02  0.11787621060E+03  0.00000000000E+00 0.  1.
         14    1    6    6    0    0  0.37523310491E+02  0.78505637325E+01  0.23050838056E+02  0.44732217877E+02  0.00000000000E+00 0. -1.
         -5    1    3    3    0  503 -0.75016703092E+01 -0.12657447536E+03 -0.14280054491E+03  0.19102737630E+03  0.47000000000E+01 0.  1.
         11    1    4    4    0    0 -0.42742472885E+02 -0.24512953350E+01 -0.22514927521E+03  0.22918360318E+03  0.00000000000E+00 0. -1.
        -12    1    4    4    0    0 -0.75953378557E+01 -0.25984794671E+02 -0.13952101864E+02  0.30455867377E+02  0.00000000000E+00 0.  1.
<mgrwt>
<rscale>  2 0.23963906E+03</rscale>
<asrwt>0</asrwt>
<pdfrwt beam="1">  1       21 0.20332846E-01 0.23976123E+03</pdfrwt>
<pdfrwt beam="2">  1       21 0.86655281E-01 0.23976123E+03</pdfrwt>
<totfact> 0.25009769E+04</totfact>
</mgrwt>
</event>
<event>
12    1  0.1026879E-001  0.1833183E+03  0.7546771E-02  0.1165051E+00
         21   -1    0    0  501  502  0.00000000000E+00  0.00000000000E+00  0.51045922823E+03  0.51045922823E+03  0.00000000000E+00 0. -1.
         21   -1    0    0  502  503 -0.00000000000E+00 -0.00000000000E+00 -0.67144337182E+02  0.67144337182E+02  0.00000000000E+00 0.  1.
         -6    2    1    2    0  503  0.32327153074E+02 -0.44462180554E+02  0.17354712232E+03  0.25243649886E+03  0.17488182286E+03 0.  0.
        -24    2    3    3    0    0 -0.56146851408E+02 -0.37672655117E+02  0.10930584329E+03  0.14278806496E+03  0.62201014876E+02 0.  0.
          6    2    1    2  501    0 -0.32327153074E+02  0.44462180554E+02  0.26976776873E+03  0.32516706656E+03  0.17302324063E+03 0.  0.
         24    2    5    5    0    0 -0.16849096185E+02  0.60865712704E+02  0.70196584385E+02  0.12427059139E+03  0.80790422698E+02 0.  0.
          5    1    5    5  501    0 -0.15478056889E+02 -0.16403532150E+02  0.19957118435E+03  0.20089647517E+03  0.47000000000E+01 0. -1.
        -11    1    6    6    0    0  0.20955777044E+02 -0.10250287948E+01 -0.30416608722E+01  0.21200164537E+02  0.00000000000E+00 0.  1.
         12    1    6    6    0    0 -0.37804873229E+02  0.61890741499E+02  0.73238245258E+02  0.10307042685E+03  0.00000000000E+00 0. -1.
         -5    1    3    3    0  503  0.88474004482E+02 -0.67895254371E+01  0.64241279023E+02  0.10964843389E+03  0.47000000000E+01 0.  1.
         13    1    4    4    0    0  0.68800581023E+01 -0.91425208076E+01  0.51133055260E+02  0.52397616610E+02  0.00000000000E+00 0. -1.
        -14    1    4    4    0    0 -0.63026909510E+02 -0.28530134309E+02  0.58172788033E+02  0.90390448354E+02  0.00000000000E+00 0.  1.
<mgrwt>
<rscale>  2 0.18287359E+03</rscale>
<asrwt>0</asrwt>
<pdfrwt beam="1">  1       21 0.78532186E-01 0.18331825E+03</pdfrwt>
<pdfrwt beam="2">  1       21 0.10329898E-01 0.18331825E+03</pdfrwt>
<totfact> 0.11026279E+05</totfact>
</mgrwt>
</event>
<event>
12    1  0.1026879E-001  0.1888025E+03  0.7546771E-02  0.1159959E+00
         21   -1    0    0  501  502  0.00000000000E+00  0.00000000000E+00  0.12755928552E+03  0.12755928552E+03  0.00000000000E+00 0.  1.
         21   -1    0    0  502  503 -0.00000000000E+00 -0.00000000000E+00 -0.35683788434E+03  0.35683788434E+03  0.00000000000E+00 0.  1.
         -6    2    1    2    0  503  0.69219690960E+02 -0.71563863030E+01 -0.22978676758E+03  0.29740265419E+03  0.17551011562E+03 0.  0.
        -24    2    3    3    0    0  0.49930346011E+01  0.55536842563E+02 -0.10680864639E+03  0.14508321150E+03  0.80819428592E+02 0.  0.
          6    2    1    2  501    0 -0.69219690960E+02  0.71563863030E+01  0.50816875447E+00  0.18699451567E+03  0.17356298907E+03 0.  0.
         24    2    5    5    0    0  0.55718324621E+01 -0.60049162691E+01 -0.51128300638E+02  0.95041229528E+02  0.79697100622E+02 0.  0.
          5    1    5    5  501    0 -0.74791523422E+02  0.13161302572E+02  0.51636469392E+02  0.91953286143E+02  0.47000000000E+01 0. -1.
        -11    1    6    6    0    0  0.54599475404E+01 -0.24111550718E+02  0.13330852217E+02  0.28087177252E+02  0.00000000000E+00 0.  1.
         12    1    6    6    0    0  0.11188492164E+00  0.18106634449E+02 -0.64459152855E+02  0.66954052275E+02  0.00000000000E+00 0. -1.
         -5    1    3    3    0  503  0.64226656359E+02 -0.62693228866E+02 -0.12297812118E+03  0.15231944269E+03  0.47000000000E+01 0.  1.
         13    1    4    4    0    0 -0.23630219871E+02  0.96958869302E+01 -0.18198563422E+00  0.25542721728E+02  0.00000000000E+00 0. -1.
        -14    1    4    4    0    0  0.28623254472E+02  0.45840955633E+02 -0.10662666076E+03  0.11954048977E+03  0.00000000000E+00 0.  1.
<mgrwt>
<rscale>  2 0.18834869E+03</rscale>
<asrwt>0</asrwt>
<pdfrwt beam="1">  1       21 0.19624506E-01 0.18880249E+03</pdfrwt>
<pdfrwt beam="2">  1       21 0.54898136E-01 0.18880249E+03</pdfrwt>
<totfact> 0.75006989E+04</totfact>
</mgrwt>
</event>
<event>
12    1  0.1026879E-001  0.2700394E+03  0.7546771E-02  0.1101465E+00
         21   -1    0    0  501  502  0.00000000000E+00  0.00000000000E+00  0.28440928870E+03  0.28440928870E+03  0.00000000000E+00 0.  1.
         21   -1    0    0  502  503 -0.00000000000E+00 -0.00000000000E+00 -0.26190240901E+03  0.26190240901E+03  0.00000000000E+00 0. -1.
         -6    2    1    2    0  503  0.20090957926E+03  0.56955016561E+02  0.55553846181E+02  0.27569463885E+03  0.17120972845E+03 0.  0.
        -24    2    3    3    0    0  0.13361162942E+03  0.65319578639E+02 -0.22685699294E+02  0.17204862384E+03  0.83470792155E+02 0.  0.
          6    2    1    2  501    0 -0.20090957926E+03 -0.56955016561E+02 -0.33046966494E+02  0.27061705886E+03  0.16891701396E+03 0.  0.
         24    2    5    5    0    0 -0.13181317069E+03 -0.92405989314E+02 -0.57688101314E+02  0.18900602609E+03  0.80509515183E+02 0.  0.
          5    1    5    5  501    0 -0.69096408566E+02  0.35450972753E+02  0.24641134820E+02  0.81611032778E+02  0.47000000000E+01 0. -1.
        -11    1    6    6    0    0 -0.36681086698E+02  0.79983678711E+01  0.36101351089E+01  0.37716164776E+02  0.00000000000E+00 0.  1.
         12    1    6    6    0    0 -0.95132083993E+02 -0.10040435719E+03 -0.61298236423E+02  0.15128986131E+03  0.00000000000E+00 0. -1.
         -5    1    3    3    0  503  0.67297949841E+02 -0.83645620778E+01  0.78239545475E+02  0.10364601501E+03  0.47000000000E+01 0.  1.
         13    1    4    4    0    0 -0.70156704563E+00  0.21243917556E+02 -0.22134107305E+02  0.30687374206E+02  0.00000000000E+00 0. -1.
        -14    1    4    4    0    0  0.13431319646E+03  0.44075661083E+02 -0.55159198892E+00  0.14136124963E+03  0.00000000000E+00 0.  1.
<mgrwt>
<rscale>  2 0.26967678E+03</rscale>
<asrwt>0</asrwt>
<pdfrwt beam="1">  1       21 0.43755275E-01 0.27003945E+03</pdfrwt>
<pdfrwt beam="2">  1       21 0.40292678E-01 0.27003945E+03</pdfrwt>
<totfact> 0.28694679E+04</totfact>
</mgrwt>
</event>
<event>
12    1  0.1026879E-001  0.1747134E+03  0.7546771E-02  0.1173444E+00
         21   -1    0    0  503  502  0.00000000000E+00  0.00000000000E+00  0.96131122018E+02  0.96131122018E+02  0.00000000000E+00 0.  1.
         21   -1    0    0  501  503 -0.00000000000E+00 -0.00000000000E+00 -0.72694755547E+03  0.72694755547E+03  0.00000000000E+00 0.  1.
          6    2    1    2  501    0 -0.11630136255E+02  0.17251977690E+02 -0.62473958692E+03  0.64825961865E+03  0.17177919228E+03 0.  0.
         24    2    3    3    0    0  0.20251010575E+02  0.30491585131E+02 -0.16509340168E+03  0.18729497756E+03  0.80521656389E+02 0.  0.
         -6    2    1    2    0  502  0.11630136255E+02 -0.17251977690E+02 -0.60768465397E+01  0.17481905885E+03  0.17347012558E+03 0.  0.
        -24    2    5    5    0    0  0.37210527969E+02 -0.69700891798E+02  0.11832425600E+02  0.11359751803E+03  0.80756127309E+02 0.  0.
          5    1    3    3  501    0 -0.31881146829E+02 -0.13239607442E+02 -0.45964618524E+03  0.46096464109E+03  0.47000000000E+01 0. -1.
        -11    1    4    4    0    0 -0.19466394691E+02 -0.73041904277E+01 -0.10023146316E+03  0.10236521835E+03  0.00000000000E+00 0.  1.
         12    1    4    4    0    0  0.39717405266E+02  0.37795775559E+02 -0.64861938518E+02  0.84929759210E+02  0.00000000000E+00 0. -1.
         -5    1    5    5    0  502 -0.25580391714E+02  0.52448914108E+02 -0.17909272140E+02  0.61221540817E+02  0.47000000000E+01 0.  1.
         11    1    6    6    0    0  0.28615681568E+01  0.96489196385E+01 -0.19244304607E+02  0.21717124172E+02  0.00000000000E+00 0. -1.
        -12    1    6    6    0    0  0.34348959812E+02 -0.79349811437E+02  0.31076730207E+02  0.91880393858E+02  0.00000000000E+00 0.  1.
<mgrwt>
<rscale>  2 0.17429219E+03</rscale>
<asrwt>0</asrwt>
<pdfrwt beam="1">  1       21 0.14789404E-01 0.17471341E+03</pdfrwt>
<pdfrwt beam="2">  1       21 0.11183808E+00 0.17471341E+03</pdfrwt>
<totfact> 0.25528733E+04</totfact>
</mgrwt>
</event>
<event>
12    1  0.1026879E-001  0.1856565E+03  0.7546771E-02  0.1164130E+00
         21   -1    0    0  503  502  0.00000000000E+00  0.00000000000E+00  0.12727491919E+04  0.12727491919E+04  0.00000000000E+00 0.  1.
         21   -1    0    0  501  503 -0.00000000000E+00 -0.00000000000E+00 -0.73266173296E+02  0.73266173296E+02  0.00000000000E+00 0.  1.
          6    2    1    2  501    0 -0.61586080544E+02  0.25975586562E+02  0.63690530016E+02  0.19627743626E+03  0.17320730919E+03 0.  0.
         24    2    3    3    0    0 -0.70454262909E+02  0.32553808812E+02 -0.18510555445E+02  0.11320502136E+03  0.80306802751E+02 0.  0.
         -6    2    1    2    0  502  0.61586080544E+02 -0.25975586562E+02  0.11357924886E+04  0.11497379289E+04  0.16554501408E+03 0.  0.
        -24    2    5    5    0    0 -0.54203883108E+01 -0.19782030479E+02  0.91592653715E+03  0.91975672621E+03  0.81303779810E+02 0.  0.
          5    1    3    3  501    0  0.88681823652E+01 -0.65782222494E+01  0.82201085460E+02  0.83072414900E+02  0.47000000000E+01 0. -1.
        -13    1    4    4    0    0  0.81282927667E+01  0.27351676832E+02  0.87829814177E+01  0.29855052025E+02  0.00000000000E+00 0.  1.
         14    1    4    4    0    0 -0.78582555676E+02  0.52021319794E+01 -0.27293536862E+02  0.83349969335E+02  0.00000000000E+00 0. -1.
         -5    1    5    5    0  502  0.67006468855E+02 -0.61935560838E+01  0.21986595140E+03  0.22998120269E+03  0.47000000000E+01 0.  1.
         11    1    6    6    0    0  0.17026937716E+02 -0.21271637676E+02  0.10373453642E+03  0.10725322011E+03  0.00000000000E+00 0. -1.
        -12    1    6    6    0    0 -0.22447326027E+02  0.14896071974E+01  0.81219200073E+03  0.81250350610E+03  0.00000000000E+00 0.  1.
<mgrwt>
<rscale>  2 0.18384850E+03</rscale>
<asrwt>0</asrwt>
<pdfrwt beam="1">  1       21 0.19580755E+00 0.18565653E+03</pdfrwt>
<pdfrwt beam="2">  1       21 0.11271720E-01 0.18565653E+03</pdfrwt>
<totfact> 0.94333506E+03</totfact>
</mgrwt>
</event>
<event>
12    1  0.1026879E-001  0.3245195E+03  0.7546771E-02  0.1074556E+00
         21   -1    0    0  503  502  0.00000000000E+00  0.00000000000E+00  0.24408482241E+03  0.24408482241E+03  0.00000000000E+00 0. -1.
         21   -1    0    0  501  503 -0.00000000000E+00 -0.00000000000E+00 -0.50054745834E+03  0.50054745834E+03  0.00000000000E+00 0.  1.
          6    2    1    2  501    0 -0.22085065491E+03 -0.14475866120E+03 -0.27871363103E+03  0.42777822294E+03  0.18863413831E+03 0.  0.
         24    2    3    3    0    0 -0.21419418841E+03 -0.58192811248E+02 -0.18478799002E+03  0.29978575846E+03  0.80370057191E+02 0.  0.
         -6    2    1    2    0  502  0.22085065491E+03  0.14475866120E+03  0.22250995097E+02  0.31685405781E+03  0.17369889291E+03 0.  0.
        -24    2    5    5    0    0  0.17524700185E+03  0.10645494377E+03 -0.47452851390E+02  0.22505218334E+03  0.79702856967E+02 0.  0.
          5    1    3    3  501    0 -0.66564664985E+01 -0.86565849952E+02 -0.93925641013E+02  0.12799246448E+03  0.47000000000E+01 0. -1.
        -13    1    4    4    0    0 -0.16848785732E+02  0.17697603860E+02 -0.15579726058E+02  0.28979555329E+02  0.00000000000E+00 0.  1.
         14    1    4    4    0    0 -0.19734540268E+03 -0.75890415109E+02 -0.16920826396E+03  0.27080620313E+03  0.00000000000E+00 0. -1.
         -5    1    5    5    0  502  0.45603653061E+02  0.38303717427E+02  0.69703846487E+02  0.91801874471E+02  0.47000000000E+01 0.  1.
         13    1    6    6    0    0  0.26665345224E+02 -0.10473257421E+02  0.44317052544E+01  0.28989131901E+02  0.00000000000E+00 0. -1.
        -14    1    6    6    0    0  0.14858165662E+03  0.11692820119E+03 -0.51884556644E+02  0.19606305144E+03  0.00000000000E+00 0.  1.
<mgrwt>
<rscale>  2 0.32238666E+03</rscale>
<asrwt>0</asrwt>
<pdfrwt beam="1">  1       21 0.37551512E-01 0.32451952E+03</pdfrwt>
<pdfrwt beam="2">  1       21 0.77007301E-01 0.32451952E+03</pdfrwt>
<totfact> 0.95390390E+03</totfact>
</mgrwt>
</event>
<event>
12    1  0.1026879E-001  0.1844841E+03  0.7546771E-02  0.1163606E+00
         21   -1    0    0  501  502  0.00000000000E+00  0.00000000000E+00  0.12444634431E+03  0.12444634431E+03  0.00000000000E+00 0.  1.
         21   -1    0    0  502  503 -0.00000000000E+00 -0.00000000000E+00 -0.31753763653E+03  0.31753763653E+03  0.00000000000E+00 0.  1.
         -6    2    1    2    0  503 -0.62537332131E+02  0.10441712822E+02 -0.17921927872E+03  0.25697907780E+03  0.17291254808E+03 0.  0.
        -24    2    3    3    0    0 -0.75844201316E+02 -0.49307775968E+02 -0.99858234897E+02  0.15664294545E+03  0.79885828767E+02 0.  0.
          6    2    1    2  501    0  0.62537332131E+02 -0.10441712822E+02 -0.13872013499E+02  0.18500490305E+03  0.17324674345E+03 0.  0.
         24    2    5    5    0    0  0.77619139165E+02 -0.31018955925E+02  0.42025639319E+02  0.12338087018E+03  0.80434932547E+02 0.  0.
          5    1    5    5  501    0 -0.15081807034E+02  0.20577243103E+02 -0.55897652818E+02  0.61624032874E+02  0.47000000000E+01 0. -1.
        -13    1    6    6    0    0  0.86478499536E+02 -0.54330426194E+01  0.42029954241E+02  0.96304547596E+02  0.00000000000E+00 0.  1.
         14    1    6    6    0    0 -0.88593603710E+01 -0.25585913306E+02 -0.43149226868E-02  0.27076322580E+02  0.00000000000E+00 0. -1.
         -5    1    3    3    0  503  0.13306869185E+02  0.59749488790E+02 -0.79361043822E+02  0.10033613235E+03  0.47000000000E+01 0.  1.
         13    1    4    4    0    0 -0.29273198093E+02 -0.14699029587E+02  0.83997035815E+01  0.33816218264E+02  0.00000000000E+00 0. -1.
        -14    1    4    4    0    0 -0.46571003223E+02 -0.34608746380E+02 -0.10825793848E+03  0.12282672718E+03  0.00000000000E+00 0.  1.
<mgrwt>
<rscale>  2 0.18440559E+03</rscale>
<asrwt>0</asrwt>
<pdfrwt beam="1">  1       21 0.19145591E-01 0.18448410E+03</pdfrwt>
<pdfrwt beam="2">  1       21 0.48851944E-01 0.18448410E+03</pdfrwt>
<totfact> 0.10044917E+05</totfact>
</mgrwt>
</event>
<event>
12    1  0.1026879E-001  0.1888581E+03  0.7546771E-02  0.1166252E+00
         21   -1    0    0  501  502  0.00000000000E+00  0.00000000000E+00  0.65098003773E+02  0.65098003773E+02  0.00000000000E+00 0. -1.
         21   -1    0    0  502  503 -0.00000000000E+00 -0.00000000000E+00 -0.13591233422E+04  0.13591233422E+04  0.00000000000E+00 0. -1.
         -6    2    1    2    0  503 -0.37452649338E+02 -0.26173553620E+02 -0.12394399881E+04  0.12537459302E+04  0.18324742143E+03 0.  0.
        -24    2    3    3    0    0 -0.15489762981E+02  0.14061817035E+02 -0.11508669611E+04  0.11539034315E+04  0.80998145809E+02 0.  0.
          6    2    1    2  501    0  0.37452649338E+02  0.26173553620E+02 -0.54585350253E+02  0.17047541573E+03  0.15490174646E+03 0.  0.
         24    2    5    5    0    0  0.32207234075E+02 -0.41649827264E+02 -0.28766253176E+02  0.97562857488E+02  0.76935036242E+02 0.  0.
          5    1    5    5  501    0  0.52454152629E+01  0.67823380883E+02 -0.25819097077E+02  0.72912558244E+02  0.47000000000E+01 0. -1.
        -11    1    6    6    0    0 -0.14459902512E+02 -0.30636218954E+02 -0.35584117189E+02  0.49131416513E+02  0.00000000000E+00 0.  1.
         12    1    6    6    0    0  0.46667136586E+02 -0.11013608310E+02  0.68178640138E+01  0.48431440975E+02  0.00000000000E+00 0. -1.
         -5    1    3    3    0  503 -0.21962886357E+02 -0.40235370655E+02 -0.88573027040E+02  0.99842498706E+02  0.47000000000E+01 0.  1.
         13    1    4    4    0    0 -0.41466554261E+01 -0.18736816120E+02 -0.94029193947E+03  0.94048774285E+03  0.00000000000E+00 0. -1.
        -14    1    4    4    0    0 -0.11343107555E+02  0.32798633155E+02 -0.21057502164E+03  0.21341568865E+03  0.00000000000E+00 0.  1.
<mgrwt>
<rscale>  2 0.18161216E+03</rscale>
<asrwt>0</asrwt>
<pdfrwt beam="1">  1       21 0.10015078E-01 0.18885808E+03</pdfrwt>
<pdfrwt beam="2">  1       21 0.20909589E+00 0.18885808E+03</pdfrwt>
<totfact> 0.95459887E+03</totfact>
</mgrwt>
</event>
<event>
12    1  0.1026879E-001  0.1747652E+03  0.7546771E-02  0.1173899E+00
         21   -1    0    0  503  502  0.00000000000E+00  0.00000000000E+00  0.14857831914E+04  0.14857831914E+04  0.00000000000E+00 0.  1.
         21   -1    0    0  501  503 -0.00000000000E+00 -0.00000000000E+00 -0.29349505312E+02  0.29349505312E+02  0.00000000000E+00 0.  1.
          6    2    1    2  501    0  0.86033238443E+01  0.13821988447E+02  0.30888825627E+03  0.35490117394E+03  0.17400524090E+03 0.  0.
         24    2    3    3    0    0  0.40432357303E+02  0.42228152663E+02  0.98641192363E+02  0.14031805388E+03  0.80876937500E+02 0.  0.
         -6    2    1    2    0  502 -0.86033238443E+01 -0.13821988447E+02  0.11475454299E+04  0.11602315228E+04  0.17032794362E+03 0.  0.
        -24    2    5    5    0    0 -0.14108213218E+02  0.25330737649E+02  0.30149574491E+03  0.31324545493E+03  0.79889566827E+02 0.  0.
          5    1    3    3  501    0 -0.31829033459E+02 -0.28406164216E+02  0.21024706390E+03  0.21458312006E+03  0.47000000000E+01 0. -1.
        -13    1    4    4    0    0  0.17765332811E+02 -0.23954235047E+02  0.28349796890E+02  0.41147580855E+02  0.00000000000E+00 0.  1.
         14    1    4    4    0    0  0.22667024492E+02  0.66182387709E+02  0.70291395473E+02  0.99170473024E+02  0.00000000000E+00 0. -1.
         -5    1    5    5    0  502  0.55048893736E+01 -0.39152726096E+02  0.84604968496E+03  0.84698606788E+03  0.47000000000E+01 0.  1.
         13    1    6    6    0    0  0.33320490476E+02  0.12127468759E+02  0.13932050321E+03  0.14376207149E+03  0.00000000000E+00 0. -1.
        -14    1    6    6    0    0 -0.47428703694E+02  0.13203268890E+02  0.16217524170E+03  0.16948338344E+03  0.00000000000E+00 0.  1.
<mgrwt>
<rscale>  2 0.17384272E+03</rscale>
<asrwt>0</asrwt>
<pdfrwt beam="1">  1       21 0.22858197E+00 0.17476524E+03</pdfrwt>
<pdfrwt beam="2">  1       21 0.45153097E-02 0.17476524E+03</pdfrwt>
<totfact> 0.28921116E+04</totfact>
</mgrwt>
</event>
<event>
12    1  0.1026879E-001  0.2229911E+03  0.7546771E-02  0.1131749E+00
         21   -1    0    0  501  502  0.00000000000E+00  0.00000000000E+00  0.69664342817E+02  0.69664342817E+02  0.00000000000E+00 0.  1.
         21   -1    0    0  502  503 -0.00000000000E+00 -0.00000000000E+00 -0.91240126683E+03  0.91240126683E+03  0.00000000000E+00 0.  1.
         -6    2    1    2    0  503 -0.66069481247E+01  0.14048290421E+03 -0.19180781810E+03  0.29413474907E+03  0.17304887573E+03 0.  0.
        -24    2    3    3    0    0 -0.29864766023E+02  0.44606876745E+02 -0.16601234614E+03  0.19205323699E+03  0.80266238649E+02 0.  0.
          6    2    1    2  501    0  0.66069481247E+01 -0.14048290421E+03 -0.65092910592E+03  0.68793086058E+03  0.17251397006E+03 0.  0.
         24    2    5    5    0    0 -0.15482999089E+02 -0.66985321444E+02 -0.55026378551E+03  0.56126019636E+03  0.86579546235E+02 0.  0.
          5    1    5    5  501    0  0.22089947213E+02 -0.73497582764E+02 -0.10066532041E+03  0.12667066421E+03  0.47000000000E+01 0. -1.
        -13    1    6    6    0    0 -0.39025199131E+02 -0.20300091680E+01 -0.14621608104E+03  0.15134804081E+03  0.00000000000E+00 0.  1.
         14    1    6    6    0    0  0.23542200042E+02 -0.64955312276E+02 -0.40404770447E+03  0.40991215555E+03  0.00000000000E+00 0. -1.
         -5    1    3    3    0  503  0.23257817898E+02  0.95876027463E+02 -0.25795471965E+02  0.10208151208E+03  0.47000000000E+01 0.  1.
         13    1    4    4    0    0  0.20709930142E+02  0.13462251797E+02 -0.10107546695E+03  0.10404990846E+03  0.00000000000E+00 0. -1.
        -14    1    4    4    0    0 -0.50574696165E+02  0.31144624947E+02 -0.64936879183E+02  0.88003328536E+02  0.00000000000E+00 0.  1.
<mgrwt>
<rscale>  2 0.22288727E+03</rscale>
<asrwt>0</asrwt>
<pdfrwt beam="1">  1       21 0.10717593E-01 0.22299106E+03</pdfrwt>
<pdfrwt beam="2">  1       21 0.14036940E+00 0.22299106E+03</pdfrwt>
<totfact> 0.25039347E+04</totfact>
</mgrwt>
</event>
<event>
12    1  0.1026879E-001  0.2006924E+03  0.7546771E-02  0.1150333E+00
         21   -1    0    0  501  502  0.00000000000E+00  0.00000000000E+00  0.46095048101E+03  0.46095048101E+03  0.00000000000E+00 0.  1.
         21   -1    0    0  502  503 -0.00000000000E+00 -0.00000000000E+00 -0.10246667540E+03  0.10246667540E+03  0.00000000000E+00 0.  1.
         -6    2    1    2    0  503  0.62243799920E+01  0.10178319883E+03  0.64990308227E+02  0.21095298258E+03  0.17285502084E+03 0.  0.
        -24    2    3    3    0    0  0.58756298997E+02  0.10762256236E+03  0.72225837706E+02  0.15739793084E+03  0.67250415600E+02 0.  0.
          6    2    1    2  501    0 -0.62243799920E+01 -0.10178319883E+03  0.29349349739E+03  0.35246417382E+03  0.16641513859E+03 0.  0.
         24    2    5    5    0    0 -0.42859051043E+02 -0.99262558461E+02  0.20418928688E+03  0.25579057471E+03  0.10975244629E+03 0.  0.
          5    1    5    5  501    0  0.36634671051E+02 -0.25206403646E+01  0.89304210504E+02  0.96673599109E+02  0.47000000000E+01 0. -1.
        -11    1    6    6    0    0 -0.27756711541E+01 -0.91166323281E+02  0.68482240508E+02  0.11405621472E+03  0.00000000000E+00 0.  1.
         12    1    6    6    0    0 -0.40083379889E+02 -0.80962351801E+01  0.13570704637E+03  0.14173435999E+03  0.00000000000E+00 0. -1.
         -5    1    3    3    0  503 -0.52531919005E+02 -0.58393635353E+01 -0.72355294793E+01  0.53555051747E+02  0.47000000000E+01 0.  1.
         11    1    4    4    0    0  0.20423233044E+02  0.12648445083E+02  0.45654401856E+02  0.51588913730E+02  0.00000000000E+00 0. -1.
        -12    1    4    4    0    0  0.38333065952E+02  0.94974117278E+02  0.26571435850E+02  0.10580901711E+03  0.00000000000E+00 0.  1.
<mgrwt>
<rscale>  2 0.19929809E+03</rscale>
<asrwt>0</asrwt>
<pdfrwt beam="1">  1       21 0.70915457E-01 0.20069235E+03</pdfrwt>
<pdfrwt beam="2">  1       21 0.15764104E-01 0.20069235E+03</pdfrwt>
<totfact> 0.64268872E+04</totfact>
</mgrwt>
</event>
<event>
12    1  0.1026879E-001  0.1741556E+03  0.7546771E-02  0.1174263E+00
         21   -1    0    0  503  502  0.00000000000E+00  0.00000000000E+00  0.62313915532E+03  0.62313915532E+03  0.00000000000E+00 0.  1.
         21   -1    0    0  501  503 -0.00000000000E+00 -0.00000000000E+00 -0.50477281207E+02  0.50477281207E+02  0.00000000000E+00 0.  1.
          6    2    1    2  501    0  0.88988190533E+01 -0.20131399597E+02  0.35990232808E+03  0.39866769413E+03  0.17006405368E+03 0.  0.
         24    2    3    3    0    0  0.28625450924E+02  0.35559883729E+01  0.35726809642E+03  0.36737453944E+03  0.80569833188E+02 0.  0.
         -6    2    1    2    0  502 -0.88988190533E+01  0.20131399597E+02  0.21275954603E+03  0.27494874239E+03  0.17275915110E+03 0.  0.
        -24    2    5    5    0    0  0.46043283846E+02  0.51683586296E+02  0.16178333016E+03  0.19349421680E+03  0.80467315944E+02 0.  0.
          5    1    3    3  501    0 -0.19726631870E+02 -0.23687387970E+02  0.26342316663E+01  0.31293154687E+02  0.47000000000E+01 0. -1.
        -11    1    4    4    0    0 -0.64092244680E+01  0.21407070781E+02  0.28270446897E+02  0.36035524215E+02  0.00000000000E+00 0.  1.
         12    1    4    4    0    0  0.35034675392E+02 -0.17851082408E+02  0.32899764952E+03  0.33133901523E+03  0.00000000000E+00 0. -1.
         -5    1    5    5    0  502 -0.54942102899E+02 -0.31552186699E+02  0.50976215863E+02  0.81454525597E+02  0.47000000000E+01 0.  1.
         11    1    6    6    0    0  0.16725621988E+02  0.45592377267E+02  0.15548854302E+03  0.16289597388E+03  0.00000000000E+00 0. -1.
        -12    1    6    6    0    0  0.29317661858E+02  0.60912090289E+01  0.62947871399E+01  0.30598242914E+02  0.00000000000E+00 0.  1.
<mgrwt>
<rscale>  2 0.17348347E+03</rscale>
<asrwt>0</asrwt>
<pdfrwt beam="1">  1       21 0.95867557E-01 0.17415564E+03</pdfrwt>
<pdfrwt beam="2">  1       21 0.77657360E-02 0.17415564E+03</pdfrwt>
<totfact> 0.11543068E+05</totfact>
</mgrwt>
</event>
<event>
12    1  0.1026879E-001  0.3764968E+03  0.7546771E-02  0.1052306E+00
         21   -1    0    0  501  502  0.00000000000E+00  0.00000000000E+00  0.10325607158E+04  0.10325607158E+04  0.00000000000E+00 0.  1.
         21   -1    0    0  502  503 -0.00000000000E+00 -0.00000000000E+00 -0.19156148097E+03  0.19156148097E+03  0.00000000000E+00 0.  1.
         -6    2    1    2    0  503  0.21178826654E+03  0.25781020027E+03  0.93572091700E+02  0.38722482811E+03  0.17282060628E+03 0.  0.
        -24    2    3    3    0    0  0.15711030800E+03  0.96698022129E+02  0.84432661763E+02  0.21677708751E+03  0.76349688507E+02 0.  0.
          6    2    1    2  501    0 -0.21178826654E+03 -0.25781020027E+03  0.74742714315E+03  0.83689736868E+03  0.17444054052E+03 0.  0.
         24    2    5    5    0    0 -0.20515347371E+03 -0.27433441671E+03  0.73514798121E+03  0.81476282503E+03  0.77772660985E+02 0.  0.
          5    1    5    5  501    0 -0.66347928327E+01  0.16524216441E+02  0.12279161945E+02  0.22134543659E+02  0.47000000000E+01 0. -1.
        -13    1    6    6    0    0 -0.88080056290E+02 -0.10433589258E+03  0.20980487715E+03  0.25032411245E+03  0.00000000000E+00 0.  1.
         14    1    6    6    0    0 -0.11707341742E+03 -0.16999852414E+03  0.52534310406E+03  0.56443871258E+03  0.00000000000E+00 0. -1.
         -5    1    3    3    0  503  0.54677958544E+02  0.16111217814E+03  0.91394299368E+01  0.17044774060E+03  0.47000000000E+01 0.  1.
         11    1    4    4    0    0  0.12167162452E+03  0.80377085579E+02  0.28502468572E+02  0.14858280794E+03  0.00000000000E+00 0. -1.
        -12    1    4    4    0    0  0.35438683478E+02  0.16320936550E+02  0.55930193191E+02  0.68194279576E+02  0.00000000000E+00 0.  1.
<mgrwt>
<rscale>  2 0.37630975E+03</rscale>
<asrwt>0</asrwt>
<pdfrwt beam="1">  1       21 0.15885549E+00 0.37649684E+03</pdfrwt>
<pdfrwt beam="2">  1       21 0.29470998E-01 0.37649684E+03</pdfrwt>
<totfact> 0.25061636E+03</totfact>
</mgrwt>
</event>
<event>
11    1  0.1026879E-001  0.1960125E+03  0.7546771E-02  0.1155951E+00
         21   -1    0    0  503  502  0.00000000000E+00  0.00000000000E+00  0.19729806135E+03  0.19729806135E+03  0.00000000000E+00 0. -1.
         21   -1    0    0  501  503 -0.00000000000E+00 -0.00000000000E+00 -0.18286712203E+03  0.18286712203E+03  0.00000000000E+00 0. -1.
          6    2    1    2  501    0 -0.25834809060E+02 -0.57866824112E+02 -0.13651812120E+01  0.18351725803E+03  0.17222286022E+03 0.  0.
         24    2    3    3    0    0 -0.98017865837E+01 -0.10080635815E+03 -0.24200859733E+02  0.13209333745E+03  0.81270974668E+02 0.  0.
         -6    2    1    2    0  502  0.25834809060E+02  0.57866824112E+02  0.15796120532E+02  0.19664792535E+03  0.18548553159E+03 0.  0.
          5    1    3    3  501    0 -0.16033022477E+02  0.42939534041E+02  0.22835678521E+02  0.51423920572E+02  0.47000000000E+01 0. -1.
        -13    1    4    4    0    0 -0.30595673241E+02 -0.21586585437E+02 -0.32749054518E+02  0.49745114974E+02  0.00000000000E+00 0.  1.
         14    1    4    4    0    0  0.20793886657E+02 -0.79219772716E+02  0.85481947851E+01  0.82348222480E+02  0.00000000000E+00 0. -1.
         -5    1    5    5    0  502  0.87606726511E+02  0.60390369100E+02  0.51690201290E+02  0.11838877531E+03  0.47000000000E+01 0.  1.
         13    1    5    5    0    0 -0.37435300295E+02 -0.15808886259E+02 -0.28272081883E+02  0.49503870626E+02  0.00000000000E+00 0. -1.
        -14    1    5    5    0    0 -0.24336617156E+02  0.13285341271E+02 -0.76219988745E+01  0.28755279414E+02  0.00000000000E+00 0.  1.
<mgrwt>
<rscale>  2 0.19280976E+03</rscale>
<asrwt>0</asrwt>
<pdfrwt beam="1">  1       21 0.30353548E-01 0.19601247E+03</pdfrwt>
<pdfrwt beam="2">  1       21 0.28133403E-01 0.19601247E+03</pdfrwt>
<totfact> 0.12558241E+05</totfact>
</mgrwt>
</event>
<event>
12    1  0.1026879E-001  0.2075284E+03  0.7546771E-02  0.1143610E+00
         21   -1    0    0  503  502  0.00000000000E+00  0.00000000000E+00  0.13916397723E+04  0.13916397723E+04  0.00000000000E+00 0.  1.
         21   -1    0    0  501  503 -0.00000000000E+00 -0.00000000000E+00 -0.32089222392E+02  0.32089222392E+02  0.00000000000E+00 0.  1.
          6    2    1    2  501    0  0.92078783951E+02  0.66658705390E+02  0.81769217861E+03  0.84361633778E+03  0.17362644081E+03 0.  0.
         24    2    3    3    0    0  0.72381397470E+02 -0.14564974394E+01  0.68030312575E+03  0.68893760706E+03  0.81126416357E+02 0.  0.
         -6    2    1    2    0  502 -0.92078783951E+02 -0.66658705390E+02  0.54185837134E+03  0.58011265696E+03  0.17320021568E+03 0.  0.
        -24    2    5    5    0    0  0.13766616437E+02 -0.26617200358E+02  0.29058219798E+03  0.30448904366E+03  0.85892775268E+02 0.  0.
          5    1    3    3  501    0  0.19697386481E+02  0.68115202829E+02  0.13738905286E+03  0.15467873071E+03  0.47000000000E+01 0. -1.
        -11    1    4    4    0    0  0.82167529579E+02  0.12817857160E+02  0.63532634144E+03  0.64074594069E+03  0.00000000000E+00 0.  1.
         12    1    4    4    0    0 -0.97861321090E+01 -0.14274354600E+02  0.44976784313E+02  0.48191666375E+02  0.00000000000E+00 0. -1.
         -5    1    5    5    0  502 -0.10584540039E+03 -0.40041505032E+02  0.25127617336E+03  0.27562361329E+03  0.47000000000E+01 0.  1.
         13    1    6    6    0    0 -0.20883821497E+02 -0.44873279171E+02  0.19523797755E+03  0.20141403392E+03  0.00000000000E+00 0. -1.
        -14    1    6    6    0    0  0.34650437934E+02  0.18256078813E+02  0.95344220431E+02  0.10307500974E+03  0.00000000000E+00 0.  1.
<mgrwt>
<rscale>  2 0.20743920E+03</rscale>
<asrwt>0</asrwt>
<pdfrwt beam="1">  1       21 0.21409838E+00 0.20752837E+03</pdfrwt>
<pdfrwt beam="2">  1       21 0.49368045E-02 0.20752837E+03</pdfrwt>
<totfact> 0.29742976E+04</totfact>
</mgrwt>
</event>
<event>
12    1  0.1026879E-001  0.1835420E+03  0.7546771E-02  0.1164624E+00
         21   -1    0    0  503  502  0.00000000000E+00  0.00000000000E+00  0.26151186931E+03  0.26151186931E+03  0.00000000000E+00 0. -1.
         21   -1    0    0  501  503 -0.00000000000E+00 -0.00000000000E+00 -0.13236990920E+03  0.13236990920E+03  0.00000000000E+00 0. -1.
          6    2    1    2  501    0  0.57423257824E+02  0.28096067843E+02  0.99339320547E+02  0.20793586948E+03  0.17112044192E+03 0.  0.
         24    2    3    3    0    0 -0.96870902097E+01 -0.13703119304E+02  0.99482064277E+02  0.12873308395E+03  0.79961932165E+02 0.  0.
         -6    2    1    2    0  502 -0.57423257824E+02 -0.28096067843E+02  0.29802639567E+02  0.18594590903E+03  0.17204901683E+03 0.  0.
        -24    2    5    5    0    0  0.10148819158E+02 -0.63356869880E+02  0.38581510649E+02  0.10907934721E+03  0.79326411323E+02 0.  0.
          5    1    3    3  501    0  0.67110348033E+02  0.41799187146E+02 -0.14274372973E+00  0.79202785526E+02  0.47000000000E+01 0. -1.
        -13    1    4    4    0    0 -0.36785337499E+02 -0.29555204288E+02  0.41697986921E+02  0.62971368643E+02  0.00000000000E+00 0.  1.
         14    1    4    4    0    0  0.27098247290E+02  0.15852084984E+02  0.57784077356E+02  0.65761715309E+02  0.00000000000E+00 0. -1.
         -5    1    5    5    0  502 -0.67572076981E+02  0.35260802037E+02 -0.87788710825E+01  0.76866561816E+02  0.47000000000E+01 0.  1.
         11    1    6    6    0    0  0.16540218594E+02  0.19608095396E+01  0.40111160358E+02  0.43431886793E+02  0.00000000000E+00 0. -1.
        -12    1    6    6    0    0 -0.63913994357E+01 -0.65317679419E+02 -0.15296497088E+01  0.65647460421E+02  0.00000000000E+00 0.  1.
<mgrwt>
<rscale>  2 0.18332413E+03</rscale>
<asrwt>0</asrwt>
<pdfrwt beam="1">  1       21 0.40232595E-01 0.18354205E+03</pdfrwt>
<pdfrwt beam="2">  1       21 0.20364601E-01 0.18354205E+03</pdfrwt>
<totfact> 0.13326572E+05</totfact>
</mgrwt>
</event>
<event>
12    1  0.1026879E-001  0.2459471E+03  0.7546771E-02  0.1116015E+00
         21   -1    0    0  501  502  0.00000000000E+00  0.00000000000E+00  0.88157940296E+02  0.88157940296E+02  0.00000000000E+00 0. -1.
         21   -1    0    0  502  503 -0.00000000000E+00 -0.00000000000E+00 -0.71017965875E+03  0.71017965875E+03  0.00000000000E+00 0. -1.
         -6    2    1    2    0  503 -0.50846318537E+02 -0.16679692279E+03 -0.23398611218E+03  0.33892317919E+03  0.17237418349E+03 0.  0.
        -24    2    3    3    0    0 -0.22483501514E+01 -0.16466450066E+03 -0.22362970369E+03  0.28896664856E+03  0.79824975736E+02 0.  0.
          6    2    1    2  501    0  0.50846318537E+02  0.16679692279E+03 -0.38803560627E+03  0.45941441986E+03  0.17344571450E+03 0.  0.
         24    2    5    5    0    0 -0.56841336552E+01  0.77322170096E+02 -0.91982631015E+02  0.14497702139E+03  0.80910474973E+02 0.  0.
          5    1    5    5  501    0  0.56530452192E+02  0.89474752699E+02 -0.29605297526E+03  0.31443739847E+03  0.47000000000E+01 0. -1.
        -13    1    6    6    0    0 -0.93799127768E+01 -0.14418424493E+02 -0.36796354313E+01  0.17590151946E+02  0.00000000000E+00 0.  1.
         14    1    6    6    0    0  0.36957791216E+01  0.91740594589E+02 -0.88302995584E+02  0.12738686945E+03  0.00000000000E+00 0. -1.
         -5    1    3    3    0  503 -0.48597968386E+02 -0.21324221389E+01 -0.10356408490E+02  0.49956530626E+02  0.47000000000E+01 0.  1.
         13    1    4    4    0    0 -0.32125688609E+02 -0.66797718151E+02 -0.13307817330E+03  0.15232792006E+03  0.00000000000E+00 0. -1.
        -14    1    4    4    0    0  0.29877338458E+02 -0.97866782505E+02 -0.90551530389E+02  0.13663872850E+03  0.00000000000E+00 0.  1.
<mgrwt>
<rscale>  2 0.24575826E+03</rscale>
<asrwt>0</asrwt>
<pdfrwt beam="1">  1       21 0.13562759E-01 0.24594710E+03</pdfrwt>
<pdfrwt beam="2">  1       21 0.10925841E+00 0.24594710E+03</pdfrwt>
<totfact> 0.30389583E+04</totfact>
</mgrwt>
</event>
<event>
12    1  0.1026879E-001  0.1934933E+03  0.7546771E-02  0.1155724E+00
         21   -1    0    0  503  502  0.00000000000E+00  0.00000000000E+00  0.36901620032E+03  0.36901620032E+03  0.00000000000E+00 0.  1.
         21   -1    0    0  501  503 -0.00000000000E+00 -0.00000000000E+00 -0.10242819031E+03  0.10242819031E+03  0.00000000000E+00 0.  1.
          6    2    1    2  501    0 -0.56835645945E+02 -0.62145413585E+02  0.10210593381E+03  0.21878134704E+03  0.17420480193E+03 0.  0.
         24    2    3    3    0    0 -0.94559161530E+02 -0.15921376762E+02  0.45224989267E+02  0.13621466453E+03  0.85523154247E+02 0.  0.
         -6    2    1    2    0  502  0.56835645945E+02  0.62145413585E+02  0.16448207619E+03  0.25266304358E+03  0.17231342700E+03 0.  0.
        -24    2    5    5    0    0 -0.88590273987E+01  0.19760122760E+02  0.15468178751E+02  0.84319541738E+02  0.80009847813E+02 0.  0.
          5    1    3    3  501    0  0.37723515585E+02 -0.46224036823E+02  0.56880944548E+02  0.82566682512E+02  0.47000000000E+01 0. -1.
        -11    1    4    4    0    0  0.25952887418E+01 -0.75231774637E+01 -0.18215463793E+02  0.19878049301E+02  0.00000000000E+00 0.  1.
         12    1    4    4    0    0 -0.97154450272E+02 -0.83981992982E+01  0.63440453060E+02  0.11633661523E+03  0.00000000000E+00 0. -1.
         -5    1    5    5    0  502  0.65694673344E+02  0.42385290826E+02  0.14901389744E+03  0.16834350185E+03  0.47000000000E+01 0.  1.
         11    1    6    6    0    0 -0.19562719880E+02 -0.26985692832E+02 -0.17245297911E+01  0.33375164864E+02  0.00000000000E+00 0. -1.
        -12    1    6    6    0    0  0.10703692481E+02  0.46745815591E+02  0.17192708542E+02  0.50944376874E+02  0.00000000000E+00 0.  1.
<mgrwt>
<rscale>  2 0.19306662E+03</rscale>
<asrwt>0</asrwt>
<pdfrwt beam="1">  1       21 0.56771723E-01 0.19349330E+03</pdfrwt>
<pdfrwt beam="2">  1       21 0.15758183E-01 0.19349330E+03</pdfrwt>
<totfact> 0.10453208E+05</totfact>
</mgrwt>
</event>
<event>
12    1  0.1026879E-001  0.2319791E+03  0.7546771E-02  0.1125650E+00
         21   -1    0    0  503  502  0.00000000000E+00  0.00000000000E+00  0.10749438639E+04  0.10749438639E+04  0.00000000000E+00 0. -1.
         21   -1    0    0  501  503 -0.00000000000E+00 -0.00000000000E+00 -0.12660794691E+03  0.12660794691E+03  0.00000000000E+00 0. -1.
          6    2    1    2  501    0  0.13006038341E+03  0.79450767101E+02  0.64614865979E+01  0.23206909653E+03  0.17488907064E+03 0.  0.
         24    2    3    3    0    0  0.75545523628E+01  0.72010925694E+02  0.19630149474E+02  0.10854365963E+03  0.78445768502E+02 0.  0.
         -6    2    1    2    0  502 -0.13006038341E+03 -0.79450767101E+02  0.94187443044E+03  0.96948271433E+03  0.17187542855E+03 0.  0.
        -24    2    5    5    0    0 -0.12505663343E+03 -0.67507314974E+02  0.94171001562E+03  0.95570590066E+03  0.79747199878E+02 0.  0.
          5    1    3    3  501    0  0.12250583105E+03  0.74398414063E+01 -0.13168662876E+02  0.12352543691E+03  0.47000000000E+01 0. -1.
        -11    1    4    4    0    0  0.17473062277E+02  0.73700518386E+02 -0.10785079890E+02  0.76507465413E+02  0.00000000000E+00 0.  1.
         12    1    4    4    0    0 -0.99185099142E+01 -0.16895926914E+01  0.30415229364E+02  0.32036194213E+02  0.00000000000E+00 0. -1.
         -5    1    5    5    0  502 -0.50037499861E+01 -0.11943452127E+02  0.16441481501E+00  0.13776813669E+02  0.47000000000E+01 0.  1.
         11    1    6    6    0    0 -0.45906460535E+02 -0.14749428525E+02  0.56935185110E+03  0.57138995364E+03  0.00000000000E+00 0. -1.
        -12    1    6    6    0    0 -0.79150172890E+02 -0.52757886450E+02  0.37235816452E+03  0.38431594702E+03  0.00000000000E+00 0.  1.
<mgrwt>
<rscale>  2 0.23141118E+03</rscale>
<asrwt>0</asrwt>
<pdfrwt beam="1">  1       21 0.16537597E+00 0.23197913E+03</pdfrwt>
<pdfrwt beam="2">  1       21 0.19478146E-01 0.23197913E+03</pdfrwt>
<totfact> 0.54070476E+03</totfact>
</mgrwt>
</event>
<event>
12    1  0.1026879E-001  0.2681059E+03  0.7546771E-02  0.1103428E+00
         21   -1    0    0  503  502  0.00000000000E+00  0.00000000000E+00  0.70792323875E+03  0.70792323875E+03  0.00000000000E+00 0. -1.
         21   -1    0    0  501  503 -0.00000000000E+00 -0.00000000000E+00 -0.14337064799E+03  0.14337064799E+03  0.00000000000E+00 0.  1.
          6    2    1    2  501    0 -0.16801616232E+03 -0.10856258513E+03  0.42351300444E+02  0.26428879595E+03  0.16745049813E+03 0.  0.
         24    2    3    3    0    0 -0.36134335917E+02 -0.51567288116E+02 -0.42121595210E+02  0.97558354462E+02  0.61469734882E+02 0.  0.
         -6    2    1    2    0  502  0.16801616232E+03  0.10856258513E+03  0.52220129032E+03  0.58700509078E+03  0.17850916869E+03 0.  0.
        -24    2    5    5    0    0  0.16137265727E+03  0.28873011871E+02  0.29964042494E+03  0.35046758204E+03  0.78538885105E+02 0.  0.
          5    1    3    3  501    0 -0.13188182641E+03 -0.56995297016E+02  0.84472895655E+02  0.16673044149E+03  0.47000000000E+01 0. -1.
        -13    1    4    4    0    0 -0.34700868089E+02 -0.43852276013E+02 -0.12445903695E+01  0.55934974415E+02  0.00000000000E+00 0.  1.
         14    1    4    4    0    0 -0.14334678276E+01 -0.77150121032E+01 -0.40877004841E+02  0.41623380047E+02  0.00000000000E+00 0. -1.
         -5    1    5    5    0  502  0.66435050520E+01  0.79689573261E+02  0.22256086537E+03  0.23653750874E+03  0.47000000000E+01 0.  1.
         13    1    6    6    0    0  0.14018599276E+03  0.48728673309E+02  0.21720401485E+03  0.26306687407E+03  0.00000000000E+00 0. -1.
        -14    1    6    6    0    0  0.21186664512E+02 -0.19855661439E+02  0.82436410094E+02  0.87400707969E+02  0.00000000000E+00 0.  1.
<mgrwt>
<rscale>  2 0.26627921E+03</rscale>
<asrwt>0</asrwt>
<pdfrwt beam="1">  1       21 0.10891127E+00 0.26810593E+03</pdfrwt>
<pdfrwt beam="2">  1       21 0.22057023E-01 0.26810593E+03</pdfrwt>
<totfact> 0.12283306E+04</totfact>
</mgrwt>
</event>
<event>
12    1  0.1026879E-001  0.1818776E+03  0.7546771E-02  0.1166755E+00
         21   -1    0    0  503  502  0.00000000000E+00  0.00000000000E+00  0.40953872879E+03  0.40953872879E+03  0.00000000000E+00 0. -1.
         21   -1    0    0  501  503 -0.00000000000E+00 -0.00000000000E+00 -0.10295694199E+03  0.10295694199E+03  0.00000000000E+00 0. -1.
          6    2    1    2  501    0 -0.54576560348E+02 -0.17707795257E+02  0.27487268480E+03  0.32787464124E+03  0.16927675732E+03 0.  0.
         24    2    3    3    0    0  0.15969973585E+02 -0.53920072937E+02  0.13574119332E+03  0.16766289253E+03  0.80763603467E+02 0.  0.
         -6    2    1    2    0  502  0.54576560348E+02  0.17707795257E+02  0.31709101994E+02  0.18462102954E+03  0.17258994885E+03 0.  0.
        -24    2    5    5    0    0  0.76625535788E+02  0.36509826117E+02  0.68497348813E+02  0.13755576861E+03  0.83816839265E+02 0.  0.
          5    1    3    3  501    0 -0.70546533933E+02  0.36212277680E+02  0.13913149148E+03  0.16021174872E+03  0.47000000000E+01 0. -1.
        -13    1    4    4    0    0  0.40895791921E+02 -0.35785559133E+02  0.12269584637E+03  0.13419144070E+03  0.00000000000E+00 0.  1.
         14    1    4    4    0    0 -0.24925818336E+02 -0.18134513805E+02  0.13045346946E+02  0.33471451830E+02  0.00000000000E+00 0. -1.
         -5    1    5    5    0  502 -0.22048975439E+02 -0.18802030860E+02 -0.36788246819E+02  0.47065260930E+02  0.47000000000E+01 0.  1.
         13    1    6    6    0    0  0.86210910449E+02  0.14538692815E+02  0.30435250575E+02  0.92574289880E+02  0.00000000000E+00 0. -1.
        -14    1    6    6    0    0 -0.95853746618E+01  0.21971133303E+02  0.38062098238E+02  0.44981478725E+02  0.00000000000E+00 0.  1.
<mgrwt>
<rscale>  2 0.18108722E+03</rscale>
<asrwt>0</asrwt>
<pdfrwt beam="1">  1       21 0.63005958E-01 0.18187759E+03</pdfrwt>
<pdfrwt beam="2">  1       21 0.15839530E-01 0.18187759E+03</pdfrwt>
<totfact> 0.83190175E+04</totfact>
</mgrwt>
</event>
<event>
12    1  0.1026879E-001  0.1916916E+03  0.7546771E-02  0.1157688E+00
         21   -1    0    0  503  502  0.00000000000E+00  0.00000000000E+00  0.12908264478E+04  0.12908264478E+04  0.00000000000E+00 0.  1.
         21   -1    0    0  501  503 -0.00000000000E+00 -0.00000000000E+00 -0.28144299939E+02  0.28144299939E+02  0.00000000000E+00 0. -1.
          6    2    1    2  501    0  0.28606063684E+02 -0.68670262042E+02  0.68749620428E+03  0.71372032369E+03  0.17666849686E+03 0.  0.
         24    2    3    3    0    0  0.80453914977E+02 -0.53932459957E+02  0.34195749505E+03  0.36397113918E+03  0.78476232443E+02 0.  0.
         -6    2    1    2    0  502 -0.28606063684E+02  0.68670262042E+02  0.57518594361E+03  0.60525042408E+03  0.17307597855E+03 0.  0.
        -24    2    5    5    0    0 -0.43038417972E+02  0.54280888755E+02  0.17878659010E+03  0.20829969114E+03  0.81396536934E+02 0.  0.
          5    1    3    3  501    0 -0.51847851293E+02 -0.14737802086E+02  0.34553870922E+03  0.34974918451E+03  0.47000000000E+01 0. -1.
        -11    1    4    4    0    0 -0.37171223125E+01 -0.31617275701E+02  0.49742388126E+02  0.59057381398E+02  0.00000000000E+00 0.  1.
         12    1    4    4    0    0  0.84171037290E+02 -0.22315184256E+02  0.29221510693E+03  0.30491375778E+03  0.00000000000E+00 0. -1.
         -5    1    5    5    0  502  0.14432354287E+02  0.14389373288E+02  0.39639935351E+03  0.39695073294E+03  0.47000000000E+01 0.  1.
         11    1    6    6    0    0  0.47992012124E+01 -0.18116229227E+02  0.20409784355E+02  0.27709012814E+02  0.00000000000E+00 0. -1.
        -12    1    6    6    0    0 -0.47837619184E+02  0.72397117982E+02  0.15837680574E+03  0.18059067832E+03  0.00000000000E+00 0.  1.
<mgrwt>
<rscale>  2 0.19085975E+03</rscale>
<asrwt>0</asrwt>
<pdfrwt beam="1">  1       21 0.19858864E+00 0.19169160E+03</pdfrwt>
<pdfrwt beam="2">  1       21 0.43298933E-02 0.19169160E+03</pdfrwt>
<totfact> 0.47059018E+04</totfact>
</mgrwt>
</event>
<event>
12    1  0.1026879E-001  0.2750643E+03  0.7546771E-02  0.1098448E+00
         21   -1    0    0  501  502  0.00000000000E+00  0.00000000000E+00  0.90115334429E+02  0.90115334429E+02  0.00000000000E+00 0. -1.
         21   -1    0    0  502  503 -0.00000000000E+00 -0.00000000000E+00 -0.99167206892E+03  0.99167206892E+03  0.00000000000E+00 0. -1.
         -6    2    1    2    0  503  0.66958099466E+02 -0.20298456716E+03 -0.66325122689E+03  0.71802685935E+03  0.17313075749E+03 0.  0.
        -24    2    3    3    0    0  0.88240235109E+02 -0.14977828183E+03 -0.61067855420E+03  0.64011784825E+03  0.81256939964E+02 0.  0.
          6    2    1    2  501    0 -0.66958099466E+02  0.20298456716E+03 -0.23830550760E+03  0.36376054400E+03  0.17276022930E+03 0.  0.
         24    2    5    5    0    0  0.19355805909E+01  0.17378185509E+03 -0.16879560927E+03  0.26152134648E+03  0.98476277971E+02 0.  0.
          5    1    5    5  501    0 -0.68893680057E+02  0.29202712072E+02 -0.69509898330E+02  0.10223919752E+03  0.47000000000E+01 0. -1.
        -11    1    6    6    0    0 -0.27286754598E+02  0.16678337093E+03 -0.15077960996E+03  0.22648565203E+03  0.00000000000E+00 0.  1.
         12    1    6    6    0    0  0.29222335189E+02  0.69984841625E+01 -0.18015999316E+02  0.35035694453E+02  0.00000000000E+00 0. -1.
         -5    1    3    3    0  503 -0.21282135642E+02 -0.53206285336E+02 -0.52572672696E+02  0.77909011104E+02  0.47000000000E+01 0.  1.
         11    1    4    4    0    0  0.90800463402E+02 -0.12570035227E+03 -0.41639212684E+03  0.44432837632E+03  0.00000000000E+00 0. -1.
        -12    1    4    4    0    0 -0.25602282934E+01 -0.24077929558E+02 -0.19428642736E+03  0.19578947193E+03  0.00000000000E+00 0.  1.
<mgrwt>
<rscale>  2 0.27500604E+03</rscale>
<asrwt>0</asrwt>
<pdfrwt beam="1">  1       21 0.13863898E-01 0.27506432E+03</pdfrwt>
<pdfrwt beam="2">  1       21 0.15256493E+00 0.27506432E+03</pdfrwt>
<totfact> 0.12279657E+04</totfact>
</mgrwt>
</event>
<event>
12    1  0.1026879E-001  0.2058917E+03  0.7546771E-02  0.1144930E+00
         21   -1    0    0  501  502  0.00000000000E+00  0.00000000000E+00  0.16212465096E+03  0.16212465096E+03  0.00000000000E+00 0. -1.
         21   -1    0    0  502  503 -0.00000000000E+00 -0.00000000000E+00 -0.41386465537E+03  0.41386465537E+03  0.00000000000E+00 0. -1.
         -6    2    1    2    0  503 -0.36859897835E+02  0.10486991947E+03 -0.30094002490E+03  0.36463170410E+03  0.17330617120E+03 0.  0.
        -24    2    3    3    0    0  0.13582486419E+02  0.10841836700E+02 -0.20548849765E+03  0.22138786119E+03  0.80529702954E+02 0.  0.
          6    2    1    2  501    0  0.36859897835E+02 -0.10486991947E+03  0.49200020491E+02  0.21135760223E+03  0.17290182742E+03 0.  0.
         24    2    5    5    0    0  0.76093141431E+02 -0.35101576379E+02  0.61444033603E+02  0.13024733803E+03  0.78528421367E+02 0.  0.
          5    1    5    5  501    0 -0.39233243596E+02 -0.69768343089E+02 -0.12244013112E+02  0.81110264194E+02  0.47000000000E+01 0. -1.
        -13    1    6    6    0    0  0.54807031738E+02  0.13034507877E+02  0.52214205592E+02  0.76811668314E+02  0.00000000000E+00 0.  1.
         14    1    6    6    0    0  0.21286109692E+02 -0.48136084256E+02  0.92298280114E+01  0.53435669720E+02  0.00000000000E+00 0. -1.
         -5    1    3    3    0  503 -0.50442384253E+02  0.94028082768E+02 -0.95451527249E+02  0.14324384291E+03  0.47000000000E+01 0.  1.
         11    1    4    4    0    0  0.16189069266E+02  0.44539911929E+02 -0.10092894475E+03  0.11150130764E+03  0.00000000000E+00 0. -1.
        -12    1    4    4    0    0 -0.26065828474E+01 -0.33698075229E+02 -0.10455955290E+03  0.10988655355E+03  0.00000000000E+00 0.  1.
<mgrwt>
<rscale>  2 0.20580656E+03</rscale>
<asrwt>0</asrwt>
<pdfrwt beam="1">  1       21 0.24942254E-01 0.20589167E+03</pdfrwt>
<pdfrwt beam="2">  1       21 0.63671484E-01 0.20589167E+03</pdfrwt>
<totfact> 0.34434821E+04</totfact>
</mgrwt>
</event>
<event>
12    1  0.1026879E-001  0.1901668E+03  0.7546771E-02  0.1158552E+00
         21   -1    0    0  503  502  0.00000000000E+00  0.00000000000E+00  0.64188872848E+02  0.64188872848E+02  0.00000000000E+00 0.  1.
         21   -1    0    0  501  503 -0.00000000000E+00 -0.00000000000E+00 -0.57458632127E+03  0.57458632127E+03  0.00000000000E+00 0. -1.
          6    2    1    2  501    0 -0.28803117490E+02 -0.77672730330E+02 -0.30497351174E+03  0.35884234528E+03  0.16998915639E+03 0.  0.
         24    2    3    3    0    0  0.11923724520E+02 -0.77240823326E+02 -0.97199846132E+02  0.14706215659E+03  0.77917570656E+02 0.  0.
         -6    2    1    2    0  502  0.28803117490E+02  0.77672730330E+02 -0.20542393668E+03  0.27993284883E+03  0.17117457020E+03 0.  0.
        -24    2    5    5    0    0 -0.61171984039E+01  0.22092621497E+02 -0.19673275780E+03  0.21355360848E+03  0.79848992865E+02 0.  0.
          5    1    3    3  501    0 -0.40726842010E+02 -0.43190700392E+00 -0.20777366561E+03  0.21178018870E+03  0.47000000000E+01 0. -1.
        -13    1    4    4    0    0 -0.17710469570E+02 -0.15330036563E+01  0.29997136524E+01  0.18028009169E+02  0.00000000000E+00 0.  1.
         14    1    4    4    0    0  0.29634194090E+02 -0.75707819670E+02 -0.10019955978E+03  0.12903414742E+03  0.00000000000E+00 0. -1.
         -5    1    5    5    0  502  0.34920315894E+02  0.55580108833E+02 -0.86911788807E+01  0.66379240357E+02  0.47000000000E+01 0.  1.
         13    1    6    6    0    0 -0.39173910711E+02  0.29358414684E+02 -0.12472481876E+03  0.13398803009E+03  0.00000000000E+00 0. -1.
        -14    1    6    6    0    0  0.33056712307E+02 -0.72657931866E+01 -0.72007939041E+02  0.79565578387E+02  0.00000000000E+00 0.  1.
<mgrwt>
<rscale>  2 0.18989964E+03</rscale>
<asrwt>0</asrwt>
<pdfrwt beam="1">  1       21 0.98752109E-02 0.19016678E+03</pdfrwt>
<pdfrwt beam="2">  1       21 0.88397898E-01 0.19016678E+03</pdfrwt>
<totfact> 0.90949079E+04</totfact>
</mgrwt>
</event>
<event>
12    1  0.1026879E-001  0.1844976E+03  0.7546771E-02  0.1165586E+00
         21   -1    0    0  501  502  0.00000000000E+00  0.00000000000E+00  0.12796157261E+04  0.12796157261E+04  0.00000000000E+00 0.  1.
         21   -1    0    0  502  503 -0.00000000000E+00 -0.00000000000E+00 -0.25441803869E+02  0.25441803869E+02  0.00000000000E+00 0.  1.
         -6    2    1    2    0  503  0.46419388086E+02 -0.46253587119E+02  0.67513851593E+03  0.69989384490E+03  0.17246803912E+03 0.  0.
        -24    2    3    3    0    0  0.31212723172E+02  0.26281520884E+01  0.61361548153E+03  0.61972002843E+03  0.80918558968E+02 0.  0.
          6    2    1    2  501    0 -0.46419388086E+02  0.46253587119E+02  0.57903540627E+03  0.60516368504E+03  0.16323887425E+03 0.  0.
         24    2    5    5    0    0 -0.86293197047E+02  0.26266689524E+02  0.31385166288E+03  0.33621405319E+03  0.80003552622E+02 0.  0.
          5    1    5    5  501    0  0.39873808961E+02  0.19986897595E+02  0.26518374339E+03  0.26894963186E+03  0.47000000000E+01 0. -1.
        -11    1    6    6    0    0 -0.33527948415E+01 -0.56531398367E+01  0.14720291335E+03  0.14734957388E+03  0.00000000000E+00 0.  1.
         12    1    6    6    0    0 -0.82940402206E+02  0.31919829361E+02  0.16664874953E+03  0.18886447931E+03  0.00000000000E+00 0. -1.
         -5    1    3    3    0  503  0.15206664914E+02 -0.48881739207E+02  0.61523034396E+02  0.80173816468E+02  0.47000000000E+01 0.  1.
         13    1    4    4    0    0  0.46908718584E+02  0.26261671235E+01  0.58658010120E+03  0.58845861346E+03  0.00000000000E+00 0. -1.
        -14    1    4    4    0    0 -0.15695995412E+02  0.19849648760E-02  0.27035380332E+02  0.31261414965E+02  0.00000000000E+00 0.  1.
<mgrwt>
<rscale>  2 0.18230981E+03</rscale>
<asrwt>0</asrwt>
<pdfrwt beam="1">  1       21 0.19686391E+00 0.18449764E+03</pdfrwt>
<pdfrwt beam="2">  1       21 0.39141247E-02 0.18449764E+03</pdfrwt>
<totfact> 0.57457222E+04</totfact>
</mgrwt>
</event>
<event>
12    1  0.1026879E-001  0.1890054E+03  0.7546771E-02  0.1159418E+00
         21   -1    0    0  501  502  0.00000000000E+00  0.00000000000E+00  0.56761162746E+02  0.56761162746E+02  0.00000000000E+00 0. -1.
         21   -1    0    0  502  503 -0.00000000000E+00 -0.00000000000E+00 -0.88735205797E+03  0.88735205797E+03  0.00000000000E+00 0. -1.
         -6    2    1    2    0  503  0.70084135657E+02 -0.30072741853E+02 -0.67043842958E+03  0.69657068062E+03  0.17293602682E+03 0.  0.
        -24    2    3    3    0    0  0.55902662607E+01  0.13410899391E+02 -0.51991261711E+03  0.52707024857E+03  0.85339405905E+02 0.  0.
          6    2    1    2  501    0 -0.70084135657E+02  0.30072741853E+02 -0.16015246564E+03  0.24754254009E+03  0.17266250615E+03 0.  0.
         24    2    5    5    0    0 -0.99390529918E+02 -0.72347803380E+01 -0.73985326326E+02  0.14906623911E+03  0.82559649028E+02 0.  0.
          5    1    5    5  501    0  0.29306394261E+02  0.37307522191E+02 -0.86167139318E+02  0.98476300981E+02  0.47000000000E+01 0. -1.
        -13    1    6    6    0    0 -0.11755446435E+02 -0.20871504082E+02  0.10884605885E+02  0.26311306482E+02  0.00000000000E+00 0.  1.
         14    1    6    6    0    0 -0.87635083483E+02  0.13636723744E+02 -0.84869932211E+02  0.12275493263E+03  0.00000000000E+00 0. -1.
         -5    1    3    3    0  503  0.64493869397E+02 -0.43483641244E+02 -0.15052581247E+03  0.16950043205E+03  0.47000000000E+01 0.  1.
         13    1    4    4    0    0  0.24467001586E+02 -0.19804730276E+02 -0.39958833408E+03  0.40082626940E+03  0.00000000000E+00 0. -1.
        -14    1    4    4    0    0 -0.18876735325E+02  0.33215629666E+02 -0.12032428303E+03  0.12624397918E+03  0.00000000000E+00 0.  1.
<mgrwt>
<rscale>  2 0.18894277E+03</rscale>
<asrwt>0</asrwt>
<pdfrwt beam="1">  1       21 0.87324865E-02 0.18900536E+03</pdfrwt>
<pdfrwt beam="2">  1       21 0.13651570E+00 0.18900536E+03</pdfrwt>
<totfact> 0.39403768E+04</totfact>
</mgrwt>
</event>
<event>
12    1  0.1026879E-001  0.2110054E+03  0.7546771E-02  0.1140880E+00
         21   -1    0    0  503  502  0.00000000000E+00  0.00000000000E+00  0.21970100287E+03  0.21970100287E+03  0.00000000000E+00 0.  1.
         21   -1    0    0  501  503 -0.00000000000E+00 -0.00000000000E+00 -0.20276246785E+03  0.20276246785E+03  0.00000000000E+00 0.  1.
          6    2    1    2  501    0  0.11821090490E+03  0.22131807473E+02  0.20295379880E+02  0.21197919109E+03  0.17337716132E+03 0.  0.
         24    2    3    3    0    0  0.50343861301E+02  0.27298405529E+02  0.75590329435E+02  0.12415976961E+03  0.80137651384E+02 0.  0.
         -6    2    1    2    0  502 -0.11821090490E+03 -0.22131807473E+02 -0.33568448615E+01  0.21048427963E+03  0.17270995520E+03 0.  0.
        -24    2    5    5    0    0 -0.13000201492E+03 -0.55669401320E+02  0.24946516545E+02  0.16480090472E+03  0.80854210652E+02 0.  0.
          5    1    3    3  501    0  0.67867043603E+02 -0.51665980559E+01 -0.55294949555E+02  0.87819421481E+02  0.47000000000E+01 0. -1.
        -11    1    4    4    0    0 -0.19249895147E+02 -0.64048377618E+01  0.22873740778E+02  0.30574309920E+02  0.00000000000E+00 0.  1.
         12    1    4    4    0    0  0.69593756448E+02  0.33703243291E+02  0.52716588657E+02  0.93585459685E+02  0.00000000000E+00 0. -1.
         -5    1    5    5    0  502  0.11791110020E+02  0.33537593848E+02 -0.28303361407E+02  0.45683374914E+02  0.47000000000E+01 0.  1.
         11    1    6    6    0    0 -0.95591469848E+02 -0.66385837023E+02 -0.70651226453E+01  0.11659641685E+03  0.00000000000E+00 0. -1.
        -12    1    6    6    0    0 -0.34410545076E+02  0.10716435702E+02  0.32011639191E+02  0.48204487864E+02  0.00000000000E+00 0.  1.
<mgrwt>
<rscale>  2 0.21086829E+03</rscale>
<asrwt>0</asrwt>
<pdfrwt beam="1">  1       21 0.33800154E-01 0.21100539E+03</pdfrwt>
<pdfrwt beam="2">  1       21 0.31194226E-01 0.21100539E+03</pdfrwt>
<totfact> 0.82618278E+04</totfact>
</mgrwt>
</event>
<event>
12    1  0.1026879E-001  0.2193658E+03  0.7546771E-02  0.1134684E+00
         21   -1    0    0  501  502  0.00000000000E+00  0.00000000000E+00  0.80319042231E+03  0.80319042231E+03  0.00000000000E+00 0.  1.
         21   -1    0    0  502  503 -0.00000000000E+00 -0.00000000000E+00 -0.10142146293E+03  0.10142146293E+03  0.00000000000E+00 0.  1.
         -6    2    1    2    0  503  0.10070523239E+03 -0.90908457791E+02  0.59057205615E+02  0.22549499714E+03  0.17015977395E+03 0.  0.
        -24    2    3    3    0    0  0.16664851029E+02 -0.35136143088E+02 -0.26585923503E+02  0.93093439929E+02  0.80295151898E+02 0.  0.
          6    2    1    2  501    0 -0.10070523239E+03  0.90908457791E+02  0.64271175376E+03  0.67911688811E+03  0.17238172106E+03 0.  0.
         24    2    5    5    0    0 -0.10705621577E+03  0.12432350466E+03  0.50114929224E+03  0.53344973032E+03  0.80626512460E+02 0.  0.
          5    1    5    5  501    0  0.63509833846E+01 -0.33415046867E+02  0.14156246152E+03  0.14566715779E+03  0.47000000000E+01 0. -1.
        -13    1    6    6    0    0 -0.10238752381E+03  0.66177871855E+02  0.29479637792E+03  0.31901037630E+03  0.00000000000E+00 0.  1.
         14    1    6    6    0    0 -0.46686919628E+01  0.58145632803E+02  0.20635291433E+03  0.21443935402E+03  0.00000000000E+00 0. -1.
         -5    1    3    3    0  503  0.84040381360E+02 -0.55772314703E+02  0.85643129118E+02  0.13240155721E+03  0.47000000000E+01 0.  1.
         11    1    4    4    0    0  0.83360602600E+01 -0.12488573126E+02 -0.54304973308E+02  0.56342563709E+02  0.00000000000E+00 0. -1.
        -12    1    4    4    0    0  0.83287907690E+01 -0.22647569961E+02  0.27719049805E+02  0.36750876220E+02  0.00000000000E+00 0.  1.
<mgrwt>
<rscale>  2 0.21892906E+03</rscale>
<asrwt>0</asrwt>
<pdfrwt beam="1">  1       21 0.12356775E+00 0.21936579E+03</pdfrwt>
<pdfrwt beam="2">  1       21 0.15603303E-01 0.21936579E+03</pdfrwt>
<totfact> 0.17620733E+04</totfact>
</mgrwt>
</event>
<event>
12    1  0.1026879E-001  0.2550344E+03  0.7546771E-02  0.1111028E+00
         21   -1    0    0  501  502  0.00000000000E+00  0.00000000000E+00  0.11717968601E+03  0.11717968601E+03  0.00000000000E+00 0. -1.
         21   -1    0    0  502  503 -0.00000000000E+00 -0.00000000000E+00 -0.12140282827E+04  0.12140282827E+04  0.00000000000E+00 0.  1.
         -6    2    1    2    0  503  0.63824597273E+02  0.16808937754E+03 -0.10459342348E+04  0.10765783501E+04  0.18087261380E+03 0.  0.
        -24    2    3    3    0    0 -0.33533402778E+02  0.10343595814E+03 -0.62618984922E+03  0.64084209501E+03  0.82105888551E+02 0.  0.
          6    2    1    2  501    0 -0.63824597273E+02 -0.16808937754E+03 -0.50914361881E+02  0.25462961856E+03  0.17296344222E+03 0.  0.
         24    2    5    5    0    0 -0.86399703261E+01 -0.15252599584E+03  0.56812220525E+01  0.17392824297E+03  0.82945336961E+02 0.  0.
          5    1    5    5  501    0 -0.55184626947E+02 -0.15563381692E+02 -0.56595583933E+02  0.80701375587E+02  0.47000000000E+01 0. -1.
        -11    1    6    6    0    0  0.20055764543E+02 -0.25936094014E+02 -0.24177667322E+02  0.40736645189E+02  0.00000000000E+00 0.  1.
         12    1    6    6    0    0 -0.28695734869E+02 -0.12658990183E+03  0.29858889375E+02  0.13319159778E+03  0.00000000000E+00 0. -1.
         -5    1    3    3    0  503  0.97358000051E+02  0.64653419401E+02 -0.41974438557E+03  0.43573625513E+03  0.47000000000E+01 0.  1.
         11    1    4    4    0    0 -0.55715484592E+01 -0.63628546602E+01 -0.59560938771E+01  0.10344231529E+02  0.00000000000E+00 0. -1.
        -12    1    4    4    0    0 -0.27961854319E+02  0.10979881280E+03 -0.62023375534E+03  0.63049786348E+03  0.00000000000E+00 0.  1.
<mgrwt>
<rscale>  2 0.25363616E+03</rscale>
<asrwt>0</asrwt>
<pdfrwt beam="1">  1       21 0.18027645E-01 0.25503435E+03</pdfrwt>
<pdfrwt beam="2">  1       21 0.18677357E+00 0.25503435E+03</pdfrwt>
<totfact> 0.43600096E+03</totfact>
</mgrwt>
</event>
<event>
12    1  0.1026879E-001  0.1779106E+03  0.7546771E-02  0.1170546E+00
         21   -1    0    0  503  502  0.00000000000E+00  0.00000000000E+00  0.96922909462E+03  0.96922909462E+03  0.00000000000E+00 0.  1.
         21   -1    0    0  501  503 -0.00000000000E+00 -0.00000000000E+00 -0.92937059720E+02  0.92937059720E+02  0.00000000000E+00 0.  1.
          6    2    1    2  501    0 -0.20308531438E+02  0.24449838649E+02  0.98154464676E+01  0.17818115712E+03  0.17504842388E+03 0.  0.
         24    2    3    3    0    0 -0.80739624863E+02  0.31971664706E+02  0.10369092315E+02  0.11710013353E+03  0.77870718690E+02 0.  0.
         -6    2    1    2    0  502  0.20308531438E+02 -0.24449838649E+02  0.86647658843E+03  0.88398499722E+03  0.17215564455E+03 0.  0.
        -24    2    5    5    0    0 -0.25851181316E+02  0.27684046359E+02  0.29680521285E+03  0.31005448993E+03  0.81275841112E+02 0.  0.
          5    1    3    3  501    0  0.60431093425E+02 -0.75218260561E+01 -0.55364584694E+00  0.61081023595E+02  0.47000000000E+01 0. -1.
        -13    1    4    4    0    0 -0.40531284766E+02  0.53925530793E+02 -0.76098052503E+01  0.67887090467E+02  0.00000000000E+00 0.  1.
         14    1    4    4    0    0 -0.40208340096E+02 -0.21953866087E+02  0.17978897565E+02  0.49213043059E+02  0.00000000000E+00 0. -1.
         -5    1    5    5    0  502  0.46159712754E+02 -0.52133885009E+02  0.56967137557E+03  0.57393050729E+03  0.47000000000E+01 0.  1.
         11    1    6    6    0    0 -0.51030633709E+00 -0.27753900081E+02  0.73086318861E+02  0.78180236549E+02  0.00000000000E+00 0. -1.
        -12    1    6    6    0    0 -0.25340874979E+02  0.55437946440E+02  0.22371889399E+03  0.23187425338E+03  0.00000000000E+00 0.  1.
<mgrwt>
<rscale>  2 0.17719492E+03</rscale>
<asrwt>0</asrwt>
<pdfrwt beam="1">  1       21 0.14911216E+00 0.17791060E+03</pdfrwt>
<pdfrwt beam="2">  1       21 0.14298010E-01 0.17791060E+03</pdfrwt>
<totfact> 0.13135322E+04</totfact>
</mgrwt>
</event>
<event>
12    1  0.1026879E-001  0.1763431E+03  0.7546771E-02  0.1172215E+00
         21   -1    0    0  503  502  0.00000000000E+00  0.00000000000E+00  0.64686544407E+03  0.64686544407E+03  0.00000000000E+00 0.  1.
         21   -1    0    0  501  503 -0.00000000000E+00 -0.00000000000E+00 -0.58306081432E+02  0.58306081432E+02  0.00000000000E+00 0.  1.
          6    2    1    2  501    0  0.18315822626E+02 -0.28141176578E+02  0.13803356708E+03  0.22136332793E+03  0.16976767105E+03 0.  0.
         24    2    3    3    0    0 -0.27713991668E+02  0.33439350369E+00  0.10863502741E+02  0.83074076145E+02  0.77557135599E+02 0.  0.
         -6    2    1    2    0  502 -0.18315822626E+02  0.28141176578E+02  0.45052579556E+03  0.48380819757E+03  0.17311696739E+03 0.  0.
        -24    2    5    5    0    0 -0.69129378944E+02  0.17320735732E+02  0.19141561154E+03  0.21949914190E+03  0.80380706865E+02 0.  0.
          5    1    3    3  501    0  0.46029814294E+02 -0.28475570081E+02  0.12717006434E+03  0.13828925179E+03  0.47000000000E+01 0. -1.
        -13    1    4    4    0    0  0.24429366866E+01 -0.11988147169E+02  0.38472583914E+02  0.40371070400E+02  0.00000000000E+00 0.  1.
         14    1    4    4    0    0 -0.30156928354E+02  0.12322540673E+02 -0.27609081173E+02  0.42703005745E+02  0.00000000000E+00 0. -1.
         -5    1    5    5    0  502  0.50813556318E+02  0.10820440846E+02  0.25911018402E+03  0.26430905567E+03  0.47000000000E+01 0.  1.
         13    1    6    6    0    0 -0.53465416796E+02 -0.47753812591E+01  0.18363379773E+03  0.19131839099E+03  0.00000000000E+00 0. -1.
        -14    1    6    6    0    0 -0.15663962148E+02  0.22096116991E+02  0.77818138069E+01  0.28180750919E+02  0.00000000000E+00 0.  1.
<mgrwt>
<rscale>  2 0.17551555E+03</rscale>
<asrwt>0</asrwt>
<pdfrwt beam="1">  1       21 0.99517756E-01 0.17634307E+03</pdfrwt>
<pdfrwt beam="2">  1       21 0.89701668E-02 0.17634307E+03</pdfrwt>
<totfact> 0.82176843E+04</totfact>
</mgrwt>
</event>
<event>
12    1  0.1026879E-001  0.2579042E+03  0.7546771E-02  0.1108467E+00
         21   -1    0    0  503  502  0.00000000000E+00  0.00000000000E+00  0.34879164229E+03  0.34879164229E+03  0.00000000000E+00 0. -1.
         21   -1    0    0  501  503 -0.00000000000E+00 -0.00000000000E+00 -0.14671266837E+04  0.14671266837E+04  0.00000000000E+00 0. -1.
          6    2    1    2  501    0  0.11022439263E+03  0.15813286559E+03 -0.14062119619E+04  0.14296666178E+04  0.17134507917E+03 0.  0.
         24    2    3    3    0    0 -0.62092051870E+01  0.70476900315E+02 -0.74042807557E+03  0.74810178278E+03  0.80106145808E+02 0.  0.
         -6    2    1    2    0  502 -0.11022439263E+03 -0.15813286559E+03  0.28787692055E+03  0.38625170820E+03  0.17076838346E+03 0.  0.
        -24    2    5    5    0    0  0.14861484367E+02 -0.89037437039E+02  0.14206203218E+03  0.18203435697E+03  0.69327896403E+02 0.  0.
          5    1    3    3  501    0  0.11643359782E+03  0.87655965273E+02 -0.66578388635E+03  0.68156483498E+03  0.47000000000E+01 0. -1.
        -11    1    4    4    0    0  0.79464861859E+00 -0.51666976861E+01 -0.17277998911E+01  0.55055902381E+01  0.00000000000E+00 0.  1.
         12    1    4    4    0    0 -0.70038538056E+01  0.75643598001E+02 -0.73870027568E+03  0.74259619254E+03  0.00000000000E+00 0. -1.
         -5    1    5    5    0  502 -0.12508587700E+03 -0.69095428548E+02  0.14581488837E+03  0.20421735122E+03  0.47000000000E+01 0.  1.
         11    1    6    6    0    0  0.14073921226E+02 -0.75266729884E+02  0.55974495665E+02  0.94848827357E+02  0.00000000000E+00 0. -1.
        -12    1    6    6    0    0  0.78756314039E+00 -0.13770707155E+02  0.86087536516E+02  0.87185529618E+02  0.00000000000E+00 0.  1.
<mgrwt>
<rscale>  2 0.25780841E+03</rscale>
<asrwt>0</asrwt>
<pdfrwt beam="1">  1       21 0.53660254E-01 0.25790416E+03</pdfrwt>
<pdfrwt beam="2">  1       21 0.22571179E+00 0.25790416E+03</pdfrwt>
<totfact> 0.28276954E+02</totfact>
</mgrwt>
</event>
<event>
12    1  0.1026879E-001  0.3592148E+03  0.7546771E-02  0.1058984E+00
         21   -1    0    0  503  502  0.00000000000E+00  0.00000000000E+00  0.37755653267E+03  0.37755653267E+03  0.00000000000E+00 0.  1.
         21   -1    0    0  501  503 -0.00000000000E+00 -0.00000000000E+00 -0.34274857507E+03  0.34274857507E+03  0.00000000000E+00 0. -1.
          6    2    1    2  501    0 -0.87774347682E+01  0.31609336943E+03  0.43796207809E+02  0.36187481699E+03  0.17042069648E+03 0.  0.
         24    2    3    3    0    0  0.44245301579E+02  0.26413203877E+03  0.59124293121E+02  0.28592463164E+03  0.80832124358E+02 0.  0.
         -6    2    1    2    0  502  0.87774347682E+01 -0.31609336943E+03 -0.89882502086E+01  0.35843029075E+03  0.16852128389E+03 0.  0.
        -24    2    5    5    0    0  0.41073678118E+01 -0.17075422562E+03 -0.70974598958E+02  0.20028581984E+03  0.76831893716E+02 0.  0.
          5    1    3    3  501    0 -0.53022736347E+02  0.51961330664E+02 -0.15328085312E+02  0.75950185342E+02  0.47000000000E+01 0. -1.
        -11    1    4    4    0    0 -0.10327466272E+01  0.18227680173E+03  0.16185584990E+02  0.18299691848E+03  0.00000000000E+00 0.  1.
         12    1    4    4    0    0  0.45278048206E+02  0.81855237043E+02  0.42938708131E+02  0.10292771316E+03  0.00000000000E+00 0. -1.
         -5    1    5    5    0  502  0.46700669565E+01 -0.14533914381E+03  0.61986348750E+02  0.15814447091E+03  0.47000000000E+01 0.  1.
         13    1    6    6    0    0 -0.28851029685E+02 -0.50214484277E+02 -0.43256953245E+02  0.72284440574E+02  0.00000000000E+00 0. -1.
        -14    1    6    6    0    0  0.32958397497E+02 -0.12053974135E+03 -0.27717645713E+02  0.12800137926E+03  0.00000000000E+00 0.  1.
<mgrwt>
<rscale>  2 0.35899029E+03</rscale>
<asrwt>0</asrwt>
<pdfrwt beam="1">  1       21 0.58085620E-01 0.35921480E+03</pdfrwt>
<pdfrwt beam="2">  1       21 0.52730550E-01 0.35921480E+03</pdfrwt>
<totfact> 0.86851159E+03</totfact>
</mgrwt>
</event>
<event>
11    1  0.1026879E-001  0.3735584E+03  0.7546771E-02  0.1053396E+00
         21   -1    0    0  501  502  0.00000000000E+00  0.00000000000E+00  0.28922886643E+04  0.28922886643E+04  0.00000000000E+00 0.  1.
         21   -1    0    0  502  503 -0.00000000000E+00 -0.00000000000E+00 -0.60799473643E+02  0.60799473643E+02  0.00000000000E+00 0. -1.
         -6    2    1    2    0  503  0.32577140894E+03 -0.54990722918E+02  0.74197229822E+03  0.83044198116E+03  0.17308957873E+03 0.  0.
          6    2    1    2  501    0 -0.32577140894E+03  0.54990722918E+02  0.20895168925E+04  0.21226461568E+04  0.17434125334E+03 0.  0.
         24    2    4    4    0    0 -0.28962415101E+03  0.93308438159E+02  0.16005417304E+04  0.16308192862E+04  0.72450672385E+02 0.  0.
          5    1    4    4  501    0 -0.36147257930E+02 -0.38317715241E+02  0.48897516209E+03  0.49182687066E+03  0.47000000000E+01 0. -1.
        -13    1    5    5    0    0 -0.12632121824E+03  0.78702794611E+02  0.75820180867E+03  0.77267144553E+03  0.00000000000E+00 0.  1.
         14    1    5    5    0    0 -0.16330293277E+03  0.14605643548E+02  0.84233992171E+03  0.85814784063E+03  0.00000000000E+00 0. -1.
         -5    1    3    3    0  503  0.42961553183E+02 -0.25124787217E+02  0.17965050260E+03  0.18647611930E+03  0.47000000000E+01 0.  1.
         11    1    3    3    0    0  0.14315082184E+03  0.32490596571E+02  0.37125686909E+03  0.39922357083E+03  0.00000000000E+00 0. -1.
        -12    1    3    3    0    0  0.13965903392E+03 -0.62356532272E+02  0.19106492653E+03  0.24474229104E+03  0.00000000000E+00 0.  1.
<mgrwt>
<rscale>  2 0.37341266E+03</rscale>
<asrwt>0</asrwt>
<pdfrwt beam="1">  1       21 0.44496738E+00 0.37355838E+03</pdfrwt>
<pdfrwt beam="2">  1       21 0.93537675E-02 0.37355838E+03</pdfrwt>
<totfact> 0.33190677E+02</totfact>
</mgrwt>
</event>
<event>
12    1  0.1026879E-001  0.2386404E+03  0.7546771E-02  0.1121027E+00
         21   -1    0    0  501  502  0.00000000000E+00  0.00000000000E+00  0.10391181000E+04  0.10391181000E+04  0.00000000000E+00 0. -1.
         21   -1    0    0  502  503 -0.00000000000E+00 -0.00000000000E+00 -0.58829048049E+02  0.58829048049E+02  0.00000000000E+00 0.  1.
         -6    2    1    2    0  503  0.16461128022E+03 -0.16266454524E+02  0.34072813958E+03  0.41598668534E+03  0.17201100593E+03 0.  0.
        -24    2    3    3    0    0  0.10290255833E+03 -0.59658166727E+02  0.13522379601E+03  0.19702337272E+03  0.79904324185E+02 0.  0.
          6    2    1    2  501    0 -0.16461128022E+03  0.16266454524E+02  0.63956091237E+03  0.68196046270E+03  0.16932348020E+03 0.  0.
         24    2    5    5    0    0 -0.11909124632E+03  0.51152327311E+02  0.57872890088E+03  0.59822444161E+03  0.78396787513E+02 0.  0.
          5    1    5    5  501    0 -0.45520033900E+02 -0.34885872788E+02  0.60832011488E+02  0.83736021091E+02  0.47000000000E+01 0. -1.
        -11    1    6    6    0    0 -0.70303055043E+02  0.18123324462E+02  0.16426480168E+03  0.17959370676E+03  0.00000000000E+00 0.  1.
         12    1    6    6    0    0 -0.48788191281E+02  0.33029002850E+02  0.41446409920E+03  0.41863073485E+03  0.00000000000E+00 0. -1.
         -5    1    3    3    0  503  0.61708721889E+02  0.43391712203E+02  0.20550434358E+03  0.21896331262E+03  0.47000000000E+01 0.  1.
         13    1    4    4    0    0 -0.10611780304E+02 -0.20447730503E+02  0.18448060423E+02  0.29513564632E+02  0.00000000000E+00 0. -1.
        -14    1    4    4    0    0  0.11351433864E+03 -0.39210436224E+02  0.11677573558E+03  0.16750980809E+03  0.00000000000E+00 0.  1.
<mgrwt>
<rscale>  2 0.23815651E+03</rscale>
<asrwt>0</asrwt>
<pdfrwt beam="1">  1       21 0.15986431E+00 0.23864044E+03</pdfrwt>
<pdfrwt beam="2">  1       21 0.90506235E-02 0.23864044E+03</pdfrwt>
<totfact> 0.23712240E+04</totfact>
</mgrwt>
</event>
<event>
12    1  0.1026879E-001  0.1744282E+03  0.7546771E-02  0.1174481E+00
         21   -1    0    0  503  502  0.00000000000E+00  0.00000000000E+00  0.22092717630E+03  0.22092717630E+03  0.00000000000E+00 0.  1.
         21   -1    0    0  501  503 -0.00000000000E+00 -0.00000000000E+00 -0.16246132530E+03  0.16246132530E+03  0.00000000000E+00 0.  1.
          6    2    1    2  501    0 -0.73539649002E+01  0.47492943751E+01 -0.51154463210E+02  0.17737441985E+03  0.16961211370E+03 0.  0.
         24    2    3    3    0    0 -0.46274179807E+02 -0.22297672657E+02  0.14165151777E+02  0.96534679278E+02  0.80497247504E+02 0.  0.
         -6    2    1    2    0  502  0.73539649002E+01 -0.47492943751E+01  0.10962031421E+03  0.20601408175E+03  0.17420835799E+03 0.  0.
        -24    2    5    5    0    0 -0.45310510208E+02 -0.27672791659E+02  0.18934746665E+02  0.98566439490E+02  0.80857854467E+02 0.  0.
          5    1    3    3  501    0  0.38920214906E+02  0.27046967032E+02 -0.65319614987E+02  0.80839740574E+02  0.47000000000E+01 0. -1.
        -11    1    4    4    0    0  0.94510851377E+01 -0.27036035398E+02 -0.16191830114E+02  0.32900540767E+02  0.00000000000E+00 0.  1.
         12    1    4    4    0    0 -0.55725264944E+02  0.47383627409E+01  0.30356981890E+02  0.63634138511E+02  0.00000000000E+00 0. -1.
         -5    1    5    5    0  502  0.52664475108E+02  0.22923497284E+02  0.90685567547E+02  0.10744764226E+03  0.47000000000E+01 0.  1.
         11    1    6    6    0    0  0.20681262374E+02 -0.19541559947E+02 -0.28553695328E+01  0.28596159073E+02  0.00000000000E+00 0. -1.
        -12    1    6    6    0    0 -0.65991772582E+02 -0.81312317113E+01  0.21790116198E+02  0.69970280416E+02  0.00000000000E+00 0.  1.
<mgrwt>
<rscale>  2 0.17326910E+03</rscale>
<asrwt>0</asrwt>
<pdfrwt beam="1">  1       21 0.33988796E-01 0.17442818E+03</pdfrwt>
<pdfrwt beam="2">  1       21 0.24994050E-01 0.17442818E+03</pdfrwt>
<totfact> 0.12718327E+05</totfact>
</mgrwt>
</event>
<event>
12    1  0.1026879E-001  0.2794638E+03  0.7546771E-02  0.1096027E+00
         21   -1    0    0  503  502  0.00000000000E+00  0.00000000000E+00  0.45146720241E+03  0.45146720241E+03  0.00000000000E+00 0. -1.
         21   -1    0    0  501  503 -0.00000000000E+00 -0.00000000000E+00 -0.42621304795E+03  0.42621304795E+03  0.00000000000E+00 0.  1.
          6    2    1    2  501    0 -0.21496164729E+03 -0.34454023096E+02 -0.32576661502E+03  0.42899820650E+03  0.17469969721E+03 0.  0.
         24    2    3    3    0    0 -0.15109595406E+03 -0.69798656446E+02 -0.29989147505E+03  0.35141159202E+03  0.76507322650E+02 0.  0.
         -6    2    1    2    0  502  0.21496164729E+03  0.34454023096E+02  0.35102076949E+03  0.44868204387E+03  0.17522672846E+03 0.  0.
        -24    2    5    5    0    0  0.17636704668E+03  0.42886746449E+02  0.16440425368E+03  0.25787201271E+03  0.80775046489E+02 0.  0.
          5    1    3    3  501    0 -0.63865693233E+02  0.35344633350E+02 -0.25875139968E+02  0.77586614484E+02  0.47000000000E+01 0. -1.
        -13    1    4    4    0    0 -0.28725853376E+02  0.14754486415E+02 -0.76449078556E+02  0.82989945979E+02  0.00000000000E+00 0.  1.
         14    1    4    4    0    0 -0.12237010068E+03 -0.84553142861E+02 -0.22344239650E+03  0.26842164604E+03  0.00000000000E+00 0. -1.
         -5    1    5    5    0  502  0.38594600609E+02 -0.84327233531E+01  0.18661651580E+03  0.19081003116E+03  0.47000000000E+01 0.  1.
         13    1    6    6    0    0  0.58407842889E+02  0.27930277469E+02  0.10880811476E+03  0.12661272585E+03  0.00000000000E+00 0. -1.
        -14    1    6    6    0    0  0.11795920379E+03  0.14956468981E+02  0.55596138923E+02  0.13125928686E+03  0.00000000000E+00 0.  1.
<mgrwt>
<rscale>  2 0.27938119E+03</rscale>
<asrwt>0</asrwt>
<pdfrwt beam="1">  1       21 0.69456492E-01 0.27946376E+03</pdfrwt>
<pdfrwt beam="2">  1       21 0.65571238E-01 0.27946376E+03</pdfrwt>
<totfact> 0.37964577E+03</totfact>
</mgrwt>
</event>
<event>
12    1  0.1026879E-001  0.1924874E+03  0.7546771E-02  0.1157755E+00
         21   -1    0    0  501  502  0.00000000000E+00  0.00000000000E+00  0.38140607780E+03  0.38140607780E+03  0.00000000000E+00 0. -1.
         21   -1    0    0  502  503 -0.00000000000E+00 -0.00000000000E+00 -0.14397458526E+03  0.14397458526E+03  0.00000000000E+00 0. -1.
         -6    2    1    2    0  503  0.15302620441E+01  0.71361708657E+02  0.27242712056E+03  0.32973792279E+03  0.17151013541E+03 0.  0.
        -24    2    3    3    0    0  0.44056403486E+02  0.36334740158E+01  0.20691414373E+03  0.22625059697E+03  0.80135516033E+02 0.  0.
          6    2    1    2  501    0 -0.15302620441E+01 -0.71361708657E+02 -0.34995628020E+02  0.19564274028E+03  0.17876395800E+03 0.  0.
         24    2    5    5    0    0  0.23481926564E+02  0.12453146443E+02 -0.61218672409E+02  0.10420818679E+03  0.80032109874E+02 0.  0.
          5    1    5    5  501    0 -0.25012188608E+02 -0.83814855100E+02  0.26223044389E+02  0.91434553487E+02  0.47000000000E+01 0. -1.
        -11    1    6    6    0    0 -0.14179302834E+00  0.13411844659E+02  0.17481041488E+02  0.22033712668E+02  0.00000000000E+00 0.  1.
         12    1    6    6    0    0  0.23623719592E+02 -0.95869821571E+00 -0.78699713897E+02  0.82174474121E+02  0.00000000000E+00 0. -1.
         -5    1    3    3    0  503 -0.42526141442E+02  0.67728234641E+02  0.65512976821E+02  0.10348732582E+03  0.47000000000E+01 0.  1.
         11    1    4    4    0    0  0.10715185627E+02 -0.36073510848E+02  0.64280760551E+02  0.74485767532E+02  0.00000000000E+00 0. -1.
        -12    1    4    4    0    0  0.33341217860E+02  0.39706984864E+02  0.14263338318E+03  0.15176482944E+03  0.00000000000E+00 0.  1.
<mgrwt>
<rscale>  2 0.19078564E+03</rscale>
<asrwt>0</asrwt>
<pdfrwt beam="1">  1       21 0.58677858E-01 0.19248737E+03</pdfrwt>
<pdfrwt beam="2">  1       21 0.22149936E-01 0.19248737E+03</pdfrwt>
<totfact> 0.51804521E+04</totfact>
</mgrwt>
</event>
<event>
12    1  0.1026879E-001  0.1999673E+03  0.7546771E-02  0.1150300E+00
         21   -1    0    0  503  502  0.00000000000E+00  0.00000000000E+00  0.65918319118E+02  0.65918319118E+02  0.00000000000E+00 0. -1.
         21   -1    0    0  501  503 -0.00000000000E+00 -0.00000000000E+00 -0.16222629139E+04  0.16222629139E+04  0.00000000000E+00 0.  1.
          6    2    1    2  501    0 -0.93089097510E+02 -0.23039456949E+02 -0.14503608356E+04  0.14640811000E+04  0.17547226880E+03 0.  0.
         24    2    3    3    0    0  0.35168520498E+01 -0.39662163458E+02 -0.91961017750E+03  0.92433358958E+03  0.84405277202E+02 0.  0.
         -6    2    1    2    0  502  0.93089097510E+02  0.23039456949E+02 -0.10598375915E+03  0.22410013304E+03  0.17260334810E+03 0.  0.
        -24    2    5    5    0    0  0.14221901663E+02  0.19470306914E+02  0.90895727448E+01  0.84469423219E+02  0.80443196033E+02 0.  0.
          5    1    3    3  501    0 -0.96605949560E+02  0.16622706509E+02 -0.53075065814E+03  0.53974751040E+03  0.47000000000E+01 0. -1.
        -13    1    4    4    0    0 -0.23736180334E+02 -0.41335515056E+01 -0.68873552677E+03  0.68915681694E+03  0.00000000000E+00 0.  1.
         14    1    4    4    0    0  0.27253032384E+02 -0.35528611952E+02 -0.23087465073E+03  0.23517677264E+03  0.00000000000E+00 0. -1.
         -5    1    5    5    0  502  0.78867195847E+02  0.35691500350E+01 -0.11507333189E+03  0.13963070982E+03  0.47000000000E+01 0.  1.
         13    1    6    6    0    0  0.29698558358E+02 -0.77047891072E+01  0.33032322220E+02  0.45083283542E+02  0.00000000000E+00 0. -1.
        -14    1    6    6    0    0 -0.15476656695E+02  0.27175096021E+02 -0.23942749475E+02  0.39386139676E+02  0.00000000000E+00 0.  1.
<mgrwt>
<rscale>  2 0.19933613E+03</rscale>
<asrwt>0</asrwt>
<pdfrwt beam="1">  1       21 0.10141281E-01 0.19996728E+03</pdfrwt>
<pdfrwt beam="2">  1       21 0.24957889E+00 0.19996728E+03</pdfrwt>
<totfact> 0.52542376E+03</totfact>
</mgrwt>
</event>
<event>
12    1  0.1026879E-001  0.2575188E+03  0.7546771E-02  0.1108669E+00
         21   -1    0    0  503  502  0.00000000000E+00  0.00000000000E+00  0.23507883958E+03  0.23507883958E+03  0.00000000000E+00 0.  1.
         21   -1    0    0  501  503 -0.00000000000E+00 -0.00000000000E+00 -0.40070829259E+03  0.40070829259E+03  0.00000000000E+00 0. -1.
          6    2    1    2  501    0  0.14237960787E+03  0.12689228541E+03 -0.25592252878E+03  0.36305959213E+03  0.17303849820E+03 0.  0.
         24    2    3    3    0    0  0.10840469152E+03  0.22429786118E+02 -0.19330136359E+03  0.23652813741E+03  0.79532824521E+02 0.  0.
         -6    2    1    2    0  502 -0.14237960787E+03 -0.12689228541E+03  0.90293075782E+02  0.27272754005E+03  0.17278271537E+03 0.  0.
        -24    2    5    5    0    0 -0.36049591799E+02 -0.12170604247E+02  0.73268164238E+02  0.11531383651E+03  0.80506896123E+02 0.  0.
          5    1    3    3  501    0  0.33974916357E+02  0.10446249930E+03 -0.62621165196E+02  0.12653145471E+03  0.47000000000E+01 0. -1.
        -11    1    4    4    0    0  0.93996563667E+02  0.27687342134E+02 -0.93117208462E+02  0.13517676356E+03  0.00000000000E+00 0.  1.
         12    1    4    4    0    0  0.14408127848E+02 -0.52575560163E+01 -0.10018415513E+03  0.10135137385E+03  0.00000000000E+00 0. -1.
         -5    1    5    5    0  502 -0.10633001607E+03 -0.11472168117E+03  0.17024911544E+02  0.15741370354E+03  0.47000000000E+01 0.  1.
         11    1    6    6    0    0  0.17547437406E+02 -0.12827822527E+02 -0.31583871608E+01  0.21964539598E+02  0.00000000000E+00 0. -1.
        -12    1    6    6    0    0 -0.53597029204E+02  0.65721828005E+00  0.76426551399E+02  0.93349296913E+02  0.00000000000E+00 0.  1.
<mgrwt>
<rscale>  2 0.25747583E+03</rscale>
<asrwt>0</asrwt>
<pdfrwt beam="1">  1       21 0.36165975E-01 0.25751879E+03</pdfrwt>
<pdfrwt beam="2">  1       21 0.61647430E-01 0.25751879E+03</pdfrwt>
<totfact> 0.17387816E+04</totfact>
</mgrwt>
</event>
<event>
12    1  0.1026879E-001  0.1796380E+03  0.7546771E-02  0.1168259E+00
         21   -1    0    0  503  502  0.00000000000E+00  0.00000000000E+00  0.15564885144E+02  0.15564885144E+02  0.00000000000E+00 0.  1.
         21   -1    0    0  501  503 -0.00000000000E+00 -0.00000000000E+00 -0.26083840813E+04  0.26083840813E+04  0.00000000000E+00 0.  1.
          6    2    1    2  501    0 -0.23800427269E+02 -0.43020221741E+02 -0.18921852168E+04  0.19006525033E+04  0.17233062415E+03 0.  0.
         24    2    3    3    0    0  0.42804869812E+02 -0.15167495918E+02 -0.14141854390E+04  0.14172086932E+04  0.80608402698E+02 0.  0.
         -6    2    1    2    0  502  0.23800427269E+02  0.43020221741E+02 -0.70063397940E+03  0.72329646314E+03  0.17277905160E+03 0.  0.
        -24    2    5    5    0    0  0.52123140791E+02 -0.15553698425E+01 -0.61685749342E+03  0.62415137213E+03  0.79577177405E+02 0.  0.
          5    1    3    3  501    0 -0.66605297081E+02 -0.27852725823E+02 -0.47799977782E+03  0.48344381011E+03  0.47000000000E+01 0. -1.
        -11    1    4    4    0    0 -0.12765599591E+02 -0.29212564272E+02 -0.70060159518E+03  0.70132654992E+03  0.00000000000E+00 0.  1.
         12    1    4    4    0    0  0.55570469404E+02  0.14045068354E+02 -0.71358384378E+03  0.71588214332E+03  0.00000000000E+00 0. -1.
         -5    1    5    5    0  502 -0.28322713522E+02  0.44575591583E+02 -0.83776485984E+02  0.99145091003E+02  0.47000000000E+01 0.  1.
         13    1    6    6    0    0 -0.25610739759E+01 -0.31516551686E+02 -0.25611886705E+03  0.25806341505E+03  0.00000000000E+00 0. -1.
        -14    1    6    6    0    0  0.54684214767E+02  0.29961181844E+02 -0.36073862637E+03  0.36608795708E+03  0.00000000000E+00 0.  1.
<mgrwt>
<rscale>  2 0.17953006E+03</rscale>
<asrwt>0</asrwt>
<pdfrwt beam="1">  1       21 0.23945963E-02 0.17963797E+03</pdfrwt>
<pdfrwt beam="2">  1       21 0.40129010E+00 0.17963797E+03</pdfrwt>
<totfact> 0.79855376E+03</totfact>
</mgrwt>
</event>
<event>
12    1  0.1026879E-001  0.3356961E+03  0.7546771E-02  0.1068782E+00
         21   -1    0    0  501  502  0.00000000000E+00  0.00000000000E+00  0.36872070422E+03  0.36872070422E+03  0.00000000000E+00 0.  1.
         21   -1    0    0  502  503 -0.00000000000E+00 -0.00000000000E+00 -0.31322234855E+03  0.31322234855E+03  0.00000000000E+00 0.  1.
         -6    2    1    2    0  503  0.20607721074E+03  0.20071361660E+03 -0.29286284190E+02  0.33570569494E+03  0.17054868658E+03 0.  0.
        -24    2    3    3    0    0  0.20952065988E+03  0.21553740680E+03 -0.10850886873E+02  0.31134269076E+03  0.80381892856E+02 0.  0.
          6    2    1    2  501    0 -0.20607721074E+03 -0.20071361660E+03  0.84784639864E+02  0.34623735783E+03  0.17302629894E+03 0.  0.
         24    2    5    5    0    0 -0.15742973813E+03 -0.15062561862E+03 -0.11440378585E+01  0.23541672894E+03  0.89148909181E+02 0.  0.
          5    1    5    5  501    0 -0.48647472609E+02 -0.50087997983E+02  0.85928677722E+02  0.11082062889E+03  0.47000000000E+01 0. -1.
        -13    1    6    6    0    0 -0.37547840507E+02 -0.88522077490E+02 -0.22426054473E+02  0.98736652004E+02  0.00000000000E+00 0.  1.
         14    1    6    6    0    0 -0.11988189763E+03 -0.62103541126E+02  0.21282016614E+02  0.13668007693E+03  0.00000000000E+00 0. -1.
         -5    1    3    3    0  503 -0.34434491340E+01 -0.14823790206E+02 -0.18435397318E+02  0.24363004172E+02  0.47000000000E+01 0.  1.
         13    1    4    4    0    0  0.45630536503E+01 -0.52447477061E+01 -0.72856606737E+01  0.10070237761E+02  0.00000000000E+00 0. -1.
        -14    1    4    4    0    0  0.20495760623E+03  0.22078215451E+03 -0.35652261988E+01  0.30127245300E+03  0.00000000000E+00 0.  1.
<mgrwt>
<rscale>  2 0.33537808E+03</rscale>
<asrwt>0</asrwt>
<pdfrwt beam="1">  1       21 0.56726262E-01 0.33569610E+03</pdfrwt>
<pdfrwt beam="2">  1       21 0.48188054E-01 0.33569610E+03</pdfrwt>
<totfact> 0.11163457E+04</totfact>
</mgrwt>
</event>
<event>
12    1  0.1026879E-001  0.1763256E+03  0.7546771E-02  0.1171500E+00
         21   -1    0    0  501  502  0.00000000000E+00  0.00000000000E+00  0.66496246849E+03  0.66496246849E+03  0.00000000000E+00 0. -1.
         21   -1    0    0  502  503 -0.00000000000E+00 -0.00000000000E+00 -0.52759297885E+02  0.52759297885E+02  0.00000000000E+00 0. -1.
         -6    2    1    2    0  503 -0.28245991146E+02 -0.22573942101E+02  0.42843857129E+03  0.46330371267E+03  0.17257839359E+03 0.  0.
        -24    2    3    3    0    0  0.15587985198E+01 -0.72719859006E+02  0.20203620604E+03  0.22945962047E+03  0.80885605204E+02 0.  0.
          6    2    1    2  501    0  0.28245991146E+02  0.22573942101E+02  0.18376459932E+03  0.25441805370E+03  0.17219668756E+03 0.  0.
         24    2    5    5    0    0 -0.47506262938E+02 -0.78035240998E+00  0.73865877051E+02  0.11883174824E+03  0.80046003211E+02 0.  0.
          5    1    5    5  501    0  0.75752254084E+02  0.23354294511E+02  0.10989872226E+03  0.13558630545E+03  0.47000000000E+01 0. -1.
        -11    1    6    6    0    0 -0.27095583884E+02  0.34014459995E+02  0.63875174508E+02  0.77273488812E+02  0.00000000000E+00 0.  1.
         12    1    6    6    0    0 -0.20410679055E+02 -0.34794812405E+02  0.99907025425E+01  0.41558259432E+02  0.00000000000E+00 0. -1.
         -5    1    3    3    0  503 -0.29804789666E+02  0.50145916905E+02  0.22640236525E+03  0.23384409221E+03  0.47000000000E+01 0.  1.
         11    1    4    4    0    0 -0.16613914365E+02  0.11495011941E+02  0.21985079274E+02  0.29858016691E+02  0.00000000000E+00 0. -1.
        -12    1    4    4    0    0  0.18172712884E+02 -0.84214870947E+02  0.18005112676E+03  0.19960160378E+03  0.00000000000E+00 0.  1.
<mgrwt>
<rscale>  2 0.17623214E+03</rscale>
<asrwt>0</asrwt>
<pdfrwt beam="1">  1       21 0.10230191E+00 0.17632561E+03</pdfrwt>
<pdfrwt beam="2">  1       21 0.81168155E-02 0.17632561E+03</pdfrwt>
<totfact> 0.91626933E+04</totfact>
</mgrwt>
</event>
<event>
12    1  0.1026879E-001  0.2862388E+03  0.7546771E-02  0.1092642E+00
         21   -1    0    0  503  502  0.00000000000E+00  0.00000000000E+00  0.30997896608E+04  0.30997896608E+04  0.00000000000E+00 0. -1.
         21   -1    0    0  501  503 -0.00000000000E+00 -0.00000000000E+00 -0.59442755586E+02  0.59442755586E+02  0.00000000000E+00 0.  1.
          6    2    1    2  501    0 -0.16903941403E+03  0.14703514194E+03  0.33641419598E+03  0.44019127352E+03  0.17435650136E+03 0.  0.
         24    2    3    3    0    0 -0.57655706512E+02  0.11763919853E+03  0.12067061914E+03  0.19557354575E+03  0.80774079698E+02 0.  0.
         -6    2    1    2    0  502  0.16903941403E+03 -0.14703514194E+03  0.27039327092E+04  0.27190411429E+04  0.17815438264E+03 0.  0.
        -24    2    5    5    0    0  0.19474960829E+03 -0.10442652928E+03  0.23128421443E+04  0.23247691201E+04  0.80500728694E+02 0.  0.
          5    1    3    3  501    0 -0.11138370752E+03  0.29395943411E+02  0.21574357684E+03  0.24461772776E+03  0.47000000000E+01 0. -1.
        -13    1    4    4    0    0  0.17960568939E+02  0.16237436145E+02  0.62424877144E+01  0.25004100104E+02  0.00000000000E+00 0.  1.
         14    1    4    4    0    0 -0.75616275451E+02  0.10140176239E+03  0.11442813142E+03  0.17056944565E+03  0.00000000000E+00 0. -1.
         -5    1    5    5    0  502 -0.25710194260E+02 -0.42608612664E+02  0.39109056497E+03  0.39427202281E+03  0.47000000000E+01 0.  1.
         11    1    6    6    0    0  0.10391595411E+03 -0.14495523752E+02  0.12112999549E+04  0.12158356083E+04  0.00000000000E+00 0. -1.
        -12    1    6    6    0    0  0.90833654187E+02 -0.89931005526E+02  0.11015421894E+04  0.11089335118E+04  0.00000000000E+00 0.  1.
<mgrwt>
<rscale>  2 0.28564991E+03</rscale>
<asrwt>0</asrwt>
<pdfrwt beam="1">  1       21 0.47689059E+00 0.28623878E+03</pdfrwt>
<pdfrwt beam="2">  1       21 0.91450418E-02 0.28623878E+03</pdfrwt>
<totfact> 0.22781244E+02</totfact>
</mgrwt>
</event>
<event>
12    1  0.1026879E-001  0.1823151E+03  0.7546771E-02  0.1167152E+00
         21   -1    0    0  503  502  0.00000000000E+00  0.00000000000E+00  0.25486140302E+03  0.25486140302E+03  0.00000000000E+00 0.  1.
         21   -1    0    0  501  503 -0.00000000000E+00 -0.00000000000E+00 -0.13888181710E+03  0.13888181710E+03  0.00000000000E+00 0.  1.
          6    2    1    2  501    0  0.29052894008E+02  0.16117705248E+02 -0.33104370627E+01  0.17586960107E+03  0.17267109345E+03 0.  0.
         24    2    3    3    0    0  0.67545055002E+02 -0.36499002841E+02  0.46400958644E+01  0.11002534998E+03  0.78673600940E+02 0.  0.
         -6    2    1    2    0  502 -0.29052894008E+02 -0.16117705248E+02  0.11929002297E+03  0.21787361905E+03  0.17926224707E+03 0.  0.
        -24    2    5    5    0    0 -0.59235445289E+02  0.45974450165E+02  0.52148030330E+02  0.12145495207E+03  0.80058730121E+02 0.  0.
          5    1    3    3  501    0 -0.38492160994E+02  0.52616708089E+02 -0.79505329270E+01  0.65844251092E+02  0.47000000000E+01 0. -1.
        -13    1    4    4    0    0  0.74203781995E+02 -0.90007135550E+01 -0.14131072878E+02  0.76071685452E+02  0.00000000000E+00 0.  1.
         14    1    4    4    0    0 -0.66587269934E+01 -0.27498289286E+02  0.18771168743E+02  0.33953664527E+02  0.00000000000E+00 0. -1.
         -5    1    5    5    0  502  0.30182551281E+02 -0.62092155412E+02  0.67141992644E+02  0.96418666978E+02  0.47000000000E+01 0.  1.
         11    1    6    6    0    0 -0.49341586994E+02  0.61104543569E+01 -0.61962592693E+01  0.50103128530E+02  0.00000000000E+00 0. -1.
        -12    1    6    6    0    0 -0.98938582948E+01  0.39863995808E+02  0.58344289600E+02  0.71351823541E+02  0.00000000000E+00 0.  1.
<mgrwt>
<rscale>  2 0.18067392E+03</rscale>
<asrwt>0</asrwt>
<pdfrwt beam="1">  1       21 0.39209447E-01 0.18231512E+03</pdfrwt>
<pdfrwt beam="2">  1       21 0.21366433E-01 0.18231512E+03</pdfrwt>
<totfact> 0.12834799E+05</totfact>
</mgrwt>
</event>
<event>
12    1  0.1026879E-001  0.2116384E+03  0.7546771E-02  0.1140289E+00
         21   -1    0    0  503  502  0.00000000000E+00  0.00000000000E+00  0.90620006416E+03  0.90620006416E+03  0.00000000000E+00 0.  1.
         21   -1    0    0  501  503 -0.00000000000E+00 -0.00000000000E+00 -0.59388594888E+02  0.59388594888E+02  0.00000000000E+00 0.  1.
          6    2    1    2  501    0  0.38541142413E+02 -0.11489457566E+03  0.22556885987E+03  0.30930912062E+03  0.17350688280E+03 0.  0.
         24    2    3    3    0    0 -0.75348780817E+01 -0.74705220088E+01  0.15853805284E+03  0.17448276541E+03  0.72092566461E+02 0.  0.
         -6    2    1    2    0  502 -0.38541142413E+02  0.11489457566E+03  0.62124260940E+03  0.65627953843E+03  0.17341934623E+03 0.  0.
        -24    2    5    5    0    0 -0.25842434968E+02 -0.42006283515E+01  0.16652050493E+03  0.18602513166E+03  0.78681600918E+02 0.  0.
          5    1    3    3  501    0  0.46076020495E+02 -0.10742405366E+03  0.67030807028E+02  0.13482635521E+03  0.47000000000E+01 0. -1.
        -11    1    4    4    0    0 -0.26828001169E+01 -0.30882168398E+02  0.14216368784E+03  0.14550402015E+03  0.00000000000E+00 0.  1.
         12    1    4    4    0    0 -0.48520779648E+01  0.23411646389E+02  0.16374365005E+02  0.28978745255E+02  0.00000000000E+00 0. -1.
         -5    1    5    5    0  502 -0.12698707445E+02  0.11909520402E+03  0.45472210447E+03  0.47025440676E+03  0.47000000000E+01 0.  1.
         13    1    6    6    0    0  0.25724551341E+02 -0.50029579250E+00  0.90530788964E+02  0.94116027265E+02  0.00000000000E+00 0. -1.
        -14    1    6    6    0    0 -0.51566986310E+02 -0.37003325590E+01  0.75989715970E+02  0.91909104399E+02  0.00000000000E+00 0.  1.
<mgrwt>
<rscale>  2 0.21162048E+03</rscale>
<asrwt>0</asrwt>
<pdfrwt beam="1">  1       21 0.13941538E+00 0.21163842E+03</pdfrwt>
<pdfrwt beam="2">  1       21 0.91367076E-02 0.21163842E+03</pdfrwt>
<totfact> 0.34027778E+04</totfact>
</mgrwt>
</event>
<event>
12    1  0.1026879E-001  0.1864846E+03  0.7546771E-02  0.1162368E+00
         21   -1    0    0  503  502  0.00000000000E+00  0.00000000000E+00  0.40096996412E+03  0.40096996412E+03  0.00000000000E+00 0. -1.
         21   -1    0    0  501  503 -0.00000000000E+00 -0.00000000000E+00 -0.12609516874E+03  0.12609516874E+03  0.00000000000E+00 0. -1.
          6    2    1    2  501    0 -0.67368868445E+02 -0.25308123511E+02 -0.11620411375E+02  0.18684632211E+03  0.17203909025E+03 0.  0.
         24    2    3    3    0    0 -0.82535397047E+02  0.37103308361E+02 -0.22261066635E+01  0.12176519290E+03  0.81443596397E+02 0.  0.
         -6    2    1    2    0  502  0.67368868445E+02  0.25308123511E+02  0.28649520675E+03  0.34021881074E+03  0.16879061034E+03 0.  0.
        -24    2    5    5    0    0 -0.95300397294E+01  0.56105559232E+02  0.17091267914E+03  0.19793973704E+03  0.82038650479E+02 0.  0.
          5    1    3    3  501    0  0.15166528602E+02 -0.62411431872E+02 -0.93943047118E+01  0.65081129209E+02  0.47000000000E+01 0. -1.
        -11    1    4    4    0    0  0.75015849757E+01  0.73321834922E+01  0.21577403696E+02  0.23992062066E+02  0.00000000000E+00 0.  1.
         12    1    4    4    0    0 -0.90036982023E+02  0.29771124869E+02 -0.23803510359E+02  0.97773130834E+02  0.00000000000E+00 0. -1.
         -5    1    5    5    0  502  0.76898908174E+02 -0.30797435721E+02  0.11558252761E+03  0.14227907371E+03  0.47000000000E+01 0.  1.
         11    1    6    6    0    0  0.21274958804E+01  0.26960294692E+02  0.16345320353E+03  0.16567538584E+03  0.00000000000E+00 0. -1.
        -12    1    6    6    0    0 -0.11657535610E+02  0.29145264541E+02  0.74594756088E+01  0.32264351194E+02  0.00000000000E+00 0.  1.
<mgrwt>
<rscale>  2 0.18573194E+03</rscale>
<asrwt>0</asrwt>
<pdfrwt beam="1">  1       21 0.61687686E-01 0.18648462E+03</pdfrwt>
<pdfrwt beam="2">  1       21 0.19399257E-01 0.18648462E+03</pdfrwt>
<totfact> 0.59809997E+04</totfact>
</mgrwt>
</event>
<event>
12    1  0.1026879E-001  0.1922700E+03  0.7546771E-02  0.1158302E+00
         21   -1    0    0  503  502  0.00000000000E+00  0.00000000000E+00  0.16640887422E+03  0.16640887422E+03  0.00000000000E+00 0. -1.
         21   -1    0    0  501  503 -0.00000000000E+00 -0.00000000000E+00 -0.28061877810E+03  0.28061877810E+03  0.00000000000E+00 0. -1.
          6    2    1    2  501    0  0.66452533083E+02 -0.63053925211E+02 -0.16796729862E+03  0.25530524962E+03  0.16904443333E+03 0.  0.
         24    2    3    3    0    0  0.96017412727E+02 -0.45639991899E+02 -0.17498559781E+03  0.21996867218E+03  0.80398413474E+02 0.  0.
         -6    2    1    2    0  502 -0.66452533083E+02  0.63053925211E+02  0.53757394734E+02  0.19172240270E+03  0.15961167116E+03 0.  0.
        -24    2    5    5    0    0 -0.98999413715E+02  0.26740563227E+02  0.57455409873E+02  0.14259272721E+03  0.80719391061E+02 0.  0.
          5    1    3    3  501    0 -0.29564879645E+02 -0.17413933312E+02  0.70182991951E+01  0.35336577443E+02  0.47000000000E+01 0. -1.
        -11    1    4    4    0    0  0.47373259388E+01 -0.88401323234E+01  0.75751881695E+01  0.12568757789E+02  0.00000000000E+00 0.  1.
         12    1    4    4    0    0  0.91280086789E+02 -0.36799859575E+02 -0.18256078598E+03  0.20739991439E+03  0.00000000000E+00 0. -1.
         -5    1    5    5    0  502  0.32546880633E+02  0.36313361984E+02 -0.36980151388E+01  0.49129675487E+02  0.47000000000E+01 0.  1.
         11    1    6    6    0    0 -0.37048489069E+02  0.49671221755E+02  0.14017129387E+02  0.63531887498E+02  0.00000000000E+00 0. -1.
        -12    1    6    6    0    0 -0.61950924646E+02 -0.22930658528E+02  0.43438280486E+02  0.79060839716E+02  0.00000000000E+00 0.  1.
<mgrwt>
<rscale>  2 0.19017646E+03</rscale>
<asrwt>0</asrwt>
<pdfrwt beam="1">  1       21 0.25601365E-01 0.19227001E+03</pdfrwt>
<pdfrwt beam="2">  1       21 0.43172120E-01 0.19227001E+03</pdfrwt>
<totfact> 0.74681504E+04</totfact>
</mgrwt>
</event>
<event>
12    1  0.1026879E-001  0.4908191E+03  0.7546771E-02  0.1016216E+00
         21   -1    0    0  501  502  0.00000000000E+00  0.00000000000E+00  0.97460010439E+03  0.97460010439E+03  0.00000000000E+00 0. -1.
         21   -1    0    0  502  503 -0.00000000000E+00 -0.00000000000E+00 -0.76085160097E+03  0.76085160097E+03  0.00000000000E+00 0.  1.
         -6    2    1    2    0  503 -0.17189340920E+03 -0.42567688717E+03 -0.60615818346E+03  0.77995584231E+03  0.17365257318E+03 0.  0.
        -24    2    3    3    0    0 -0.67915798677E+02 -0.28532748949E+03 -0.30009553881E+03  0.42752751006E+03  0.81841966457E+02 0.  0.
          6    2    1    2  501    0  0.17189340920E+03  0.42567688717E+03  0.81990668688E+03  0.95549586305E+03  0.17313928701E+03 0.  0.
         24    2    5    5    0    0  0.95165563019E+02  0.27699426946E+03  0.39041930220E+03  0.49454555467E+03  0.79785740688E+02 0.  0.
          5    1    5    5  501    0  0.76727846183E+02  0.14868261771E+03  0.42948738468E+03  0.46095030837E+03  0.47000000000E+01 0. -1.
        -13    1    6    6    0    0 -0.17162418980E+01  0.49292382327E+02  0.31266187060E+02  0.58397421990E+02  0.00000000000E+00 0.  1.
         14    1    6    6    0    0  0.96881804917E+02  0.22770188713E+03  0.35915311514E+03  0.43614813268E+03  0.00000000000E+00 0. -1.
         -5    1    3    3    0  503 -0.10397761053E+03 -0.14034939767E+03 -0.30606264466E+03  0.35242833225E+03  0.47000000000E+01 0.  1.
         13    1    4    4    0    0 -0.53675497264E+02 -0.68061189333E+02 -0.80763710270E+02  0.11847430690E+03  0.00000000000E+00 0. -1.
        -14    1    4    4    0    0 -0.14240301413E+02 -0.21726630016E+03 -0.21933182854E+03  0.30905320315E+03  0.00000000000E+00 0.  1.
<mgrwt>
<rscale>  2 0.49077374E+03</rscale>
<asrwt>0</asrwt>
<pdfrwt beam="1">  1       21 0.14993848E+00 0.49081908E+03</pdfrwt>
<pdfrwt beam="2">  1       21 0.11705409E+00 0.49081908E+03</pdfrwt>
<totfact> 0.13299075E+02</totfact>
</mgrwt>
</event>
<event>
12    1  0.1026879E-001  0.2934282E+03  0.7546771E-02  0.1088609E+00
         21   -1    0    0  503  502  0.00000000000E+00  0.00000000000E+00  0.41709308560E+03  0.41709308560E+03  0.00000000000E+00 0.  1.
         21   -1    0    0  501  503 -0.00000000000E+00 -0.00000000000E+00 -0.88828603385E+03  0.88828603385E+03  0.00000000000E+00 0.  1.
          6    2    1    2  501    0 -0.19358205100E+03  0.13565786560E+03 -0.80754873567E+03  0.85920605719E+03  0.17384769560E+03 0.  0.
         24    2    3    3    0    0 -0.16982187850E+03  0.34899480895E+02 -0.50083143324E+03  0.53545554909E+03  0.76309084305E+02 0.  0.
         -6    2    1    2    0  502  0.19358205100E+03 -0.13565786560E+03  0.33635578743E+03  0.44617306226E+03  0.17337277404E+03 0.  0.
        -24    2    5    5    0    0  0.17205017132E+03 -0.14085659129E+03  0.34808920579E+03  0.42066989191E+03  0.79719646314E+02 0.  0.
          5    1    3    3  501    0 -0.23760172500E+02  0.10075838470E+03 -0.30671730244E+03  0.32375050811E+03  0.47000000000E+01 0. -1.
        -13    1    4    4    0    0 -0.75931733346E+02  0.47358208759E+02 -0.30608751083E+03  0.31890122664E+03  0.00000000000E+00 0.  1.
         14    1    4    4    0    0 -0.93890145154E+02 -0.12458727864E+02 -0.19474392240E+03  0.21655432245E+03  0.00000000000E+00 0. -1.
         -5    1    5    5    0  502  0.21531879677E+02  0.51987256976E+01 -0.11733418360E+02  0.25503170346E+02  0.47000000000E+01 0.  1.
         13    1    6    6    0    0  0.94659313029E+02 -0.27028825640E+02  0.13838606780E+03  0.16982828598E+03  0.00000000000E+00 0. -1.
        -14    1    6    6    0    0  0.77390858295E+02 -0.11382776565E+03  0.20970313800E+03  0.25084160593E+03  0.00000000000E+00 0.  1.
<mgrwt>
<rscale>  2 0.29335786E+03</rscale>
<asrwt>0</asrwt>
<pdfrwt beam="1">  1       21 0.64168166E-01 0.29342817E+03</pdfrwt>
<pdfrwt beam="2">  1       21 0.13665939E+00 0.29342817E+03</pdfrwt>
<totfact> 0.78230595E+02</totfact>
</mgrwt>
</event>
<event>
12    1  0.1026879E-001  0.2646933E+03  0.7546771E-02  0.1104598E+00
         21   -1    0    0  503  502  0.00000000000E+00  0.00000000000E+00  0.40904975497E+03  0.40904975497E+03  0.00000000000E+00 0.  1.
         21   -1    0    0  501  503 -0.00000000000E+00 -0.00000000000E+00 -0.26405963727E+03  0.26405963727E+03  0.00000000000E+00 0. -1.
          6    2    1    2  501    0 -0.39062958938E+02 -0.19463654648E+03 -0.12799296360E+03  0.29401488635E+03  0.17508070903E+03 0.  0.
         24    2    3    3    0    0 -0.62782362893E+02 -0.10716177405E+03 -0.15241294223E+02  0.14927555208E+03  0.81397926825E+02 0.  0.
         -6    2    1    2    0  502  0.39062958938E+02  0.19463654648E+03  0.27298308129E+03  0.37909450589E+03  0.17257920425E+03 0.  0.
        -24    2    5    5    0    0 -0.97097281231E+01  0.27721122643E+02  0.13618554932E+03  0.15779112030E+03  0.74086397829E+02 0.  0.
          5    1    3    3  501    0  0.23719403955E+02 -0.87474772431E+02 -0.11275166938E+03  0.14473933426E+03  0.47000000000E+01 0. -1.
        -11    1    4    4    0    0 -0.49975234778E+00 -0.16533213623E+01  0.21340934449E+02  0.21410714773E+02  0.00000000000E+00 0.  1.
         12    1    4    4    0    0 -0.62282610545E+02 -0.10550845269E+03 -0.36582228673E+02  0.12786483731E+03  0.00000000000E+00 0. -1.
         -5    1    5    5    0  502  0.48772687061E+02  0.16691542384E+03  0.13679753198E+03  0.22130338559E+03  0.47000000000E+01 0.  1.
         13    1    6    6    0    0 -0.20702969108E+02  0.19614703168E+02  0.14057926322E+03  0.14344294600E+03  0.00000000000E+00 0. -1.
        -14    1    6    6    0    0  0.10993240984E+02  0.81064194746E+01 -0.43937139005E+01  0.14348174305E+02  0.00000000000E+00 0.  1.
<mgrwt>
<rscale>  2 0.26428038E+03</rscale>
<asrwt>0</asrwt>
<pdfrwt beam="1">  1       21 0.62930731E-01 0.26469332E+03</pdfrwt>
<pdfrwt beam="2">  1       21 0.40624560E-01 0.26469332E+03</pdfrwt>
<totfact> 0.13094924E+04</totfact>
</mgrwt>
</event>
<event>
12    1  0.1026879E-001  0.1809098E+03  0.7546771E-02  0.1167147E+00
         21   -1    0    0  503  502  0.00000000000E+00  0.00000000000E+00  0.13538147754E+03  0.13538147754E+03  0.00000000000E+00 0. -1.
         21   -1    0    0  501  503 -0.00000000000E+00 -0.00000000000E+00 -0.24572121950E+03  0.24572121950E+03  0.00000000000E+00 0. -1.
          6    2    1    2  501    0  0.42791521362E+02 -0.33739519288E+02 -0.27316768817E+02  0.18205201062E+03  0.17154375317E+03 0.  0.
         24    2    3    3    0    0  0.74480797406E+02  0.25278408077E+02 -0.11004672531E+02  0.11294701477E+03  0.80309017121E+02 0.  0.
         -6    2    1    2    0  502 -0.42791521362E+02  0.33739519288E+02 -0.83022973144E+02  0.19905068642E+03  0.17250765847E+03 0.  0.
        -24    2    5    5    0    0 -0.13228230551E+02  0.80897990385E+02 -0.85080212168E+02  0.14315585846E+03  0.80842355096E+02 0.  0.
          5    1    3    3  501    0 -0.31689276044E+02 -0.59017927365E+02 -0.16312096286E+02  0.69104995854E+02  0.47000000000E+01 0. -1.
        -11    1    4    4    0    0  0.14010568351E+02 -0.51943181224E+01 -0.37396498364E+02  0.40271268370E+02  0.00000000000E+00 0.  1.
         12    1    4    4    0    0  0.60470229056E+02  0.30472726199E+02  0.26391825833E+02  0.72675746401E+02  0.00000000000E+00 0. -1.
         -5    1    5    5    0  502 -0.29563290811E+02 -0.47158471096E+02  0.20572390237E+01  0.55894827955E+02  0.47000000000E+01 0.  1.
         13    1    6    6    0    0  0.34323039286E+02  0.35566754741E+02 -0.37264197913E+02  0.61900609970E+02  0.00000000000E+00 0. -1.
        -14    1    6    6    0    0 -0.47551269837E+02  0.45331235643E+02 -0.47816014255E+02  0.81255248491E+02  0.00000000000E+00 0.  1.
<mgrwt>
<rscale>  2 0.18067965E+03</rscale>
<asrwt>0</asrwt>
<pdfrwt beam="1">  1       21 0.20827920E-01 0.18090982E+03</pdfrwt>
<pdfrwt beam="2">  1       21 0.37803264E-01 0.18090982E+03</pdfrwt>
<totfact> 0.14494151E+05</totfact>
</mgrwt>
</event>
<event>
12    1  0.1026879E-001  0.1773025E+03  0.7546771E-02  0.1170569E+00
         21   -1    0    0  503  502  0.00000000000E+00  0.00000000000E+00  0.22013003833E+02  0.22013003833E+02  0.00000000000E+00 0.  1.
         21   -1    0    0  501  503 -0.00000000000E+00 -0.00000000000E+00 -0.16787710086E+04  0.16787710086E+04  0.00000000000E+00 0.  1.
          6    2    1    2  501    0 -0.14661076968E+01  0.40780822722E+02 -0.11587111320E+04  0.11721188261E+04  0.17200532019E+03 0.  0.
         24    2    3    3    0    0  0.18938900795E+02  0.91013908947E+02 -0.79467270095E+03  0.80403487293E+03  0.79530884975E+02 0.  0.
         -6    2    1    2    0  502  0.14661076968E+01 -0.40780822722E+02 -0.49804687277E+03  0.52866518630E+03  0.17254265201E+03 0.  0.
        -24    2    5    5    0    0  0.14658632980E+02  0.13478587671E+01 -0.46858946864E+03  0.47538576077E+03  0.78732707150E+02 0.  0.
          5    1    3    3  501    0 -0.20405008492E+02 -0.50233086225E+02 -0.36403843102E+03  0.36808395317E+03  0.47000000000E+01 0. -1.
        -11    1    4    4    0    0  0.35762576712E+02  0.10161229237E+02 -0.32921584038E+03  0.33130843942E+03  0.00000000000E+00 0.  1.
         12    1    4    4    0    0 -0.16823675917E+02  0.80852679709E+02 -0.46545686057E+03  0.47272643351E+03  0.00000000000E+00 0. -1.
         -5    1    5    5    0  502 -0.13192525284E+02 -0.42128681489E+02 -0.29457404124E+02  0.53279425533E+02  0.47000000000E+01 0.  1.
         11    1    6    6    0    0  0.75557735271E+01 -0.38278450944E+02 -0.26466650405E+03  0.26752698534E+03  0.00000000000E+00 0. -1.
        -12    1    6    6    0    0  0.71028594533E+01  0.39626309711E+02 -0.20392296459E+03  0.20785877543E+03  0.00000000000E+00 0.  1.
<mgrwt>
<rscale>  2 0.17717168E+03</rscale>
<asrwt>0</asrwt>
<pdfrwt beam="1">  1       21 0.33866164E-02 0.17730254E+03</pdfrwt>
<pdfrwt beam="2">  1       21 0.25827243E+00 0.17730254E+03</pdfrwt>
<totfact> 0.31186480E+04</totfact>
</mgrwt>
</event>
<event>
12    1  0.1026879E-001  0.2342084E+03  0.7546771E-02  0.1123893E+00
         21   -1    0    0  501  502  0.00000000000E+00  0.00000000000E+00  0.38827093777E+03  0.38827093777E+03  0.00000000000E+00 0.  1.
         21   -1    0    0  502  503 -0.00000000000E+00 -0.00000000000E+00 -0.36668560484E+03  0.36668560484E+03  0.00000000000E+00 0. -1.
         -6    2    1    2    0  503 -0.12441602831E+03 -0.97797589899E+02 -0.28557084065E+03  0.36932951009E+03  0.17265533672E+03 0.  0.
        -24    2    3    3    0    0 -0.14969396389E+03 -0.10626513608E+03 -0.27583917915E+03  0.34056375612E+03  0.78713767933E+02 0.  0.
          6    2    1    2  501    0  0.12441602831E+03  0.97797589899E+02  0.30715617359E+03  0.38562703252E+03  0.17122960184E+03 0.  0.
         24    2    5    5    0    0  0.21824239461E+02  0.64855952870E+02  0.22848108984E+03  0.25212764904E+03  0.81744424526E+02 0.  0.
          5    1    5    5  501    0  0.10259178885E+03  0.32941637029E+02  0.78675083746E+02  0.13349938349E+03  0.47000000000E+01 0. -1.
        -13    1    6    6    0    0  0.52536677140E+02  0.40981250275E+02  0.16089847256E+03  0.17414902754E+03  0.00000000000E+00 0.  1.
         14    1    6    6    0    0 -0.30712437679E+02  0.23874702595E+02  0.67582617282E+02  0.77978621499E+02  0.00000000000E+00 0. -1.
         -5    1    3    3    0  503  0.25277935578E+02  0.84675461815E+01 -0.97316615064E+01  0.28765753964E+02  0.47000000000E+01 0.  1.
         11    1    4    4    0    0 -0.14109132428E+03 -0.63996771244E+02 -0.23272090358E+03  0.27957354575E+03  0.00000000000E+00 0. -1.
        -12    1    4    4    0    0 -0.86026396056E+01 -0.42268364837E+02 -0.43118275565E+02  0.60990210377E+02  0.00000000000E+00 0.  1.
<mgrwt>
<rscale>  2 0.23394571E+03</rscale>
<asrwt>0</asrwt>
<pdfrwt beam="1">  1       21 0.59733990E-01 0.23420842E+03</pdfrwt>
<pdfrwt beam="2">  1       21 0.56413170E-01 0.23420842E+03</pdfrwt>
<totfact> 0.75171933E+03</totfact>
</mgrwt>
</event>
<event>
12    1  0.1026879E-001  0.2388924E+03  0.7546771E-02  0.1120813E+00
         21   -1    0    0  501  502  0.00000000000E+00  0.00000000000E+00  0.43478376666E+03  0.43478376666E+03  0.00000000000E+00 0.  1.
         21   -1    0    0  502  503 -0.00000000000E+00 -0.00000000000E+00 -0.68473610981E+03  0.68473610981E+03  0.00000000000E+00 0. -1.
         -6    2    1    2    0  503  0.16151927832E+03 -0.71582459232E+01 -0.62856422853E+03  0.67184083848E+03  0.17360128200E+03 0.  0.
        -24    2    3    3    0    0  0.17750660189E+03  0.12872320023E+02 -0.44005888377E+03  0.48154324762E+03  0.80980169165E+02 0.  0.
          6    2    1    2  501    0 -0.16151927832E+03  0.71582459232E+01  0.37861188538E+03  0.44767903800E+03  0.17586882485E+03 0.  0.
         24    2    5    5    0    0 -0.90954314396E+02  0.12085970324E+02  0.92810466595E+02  0.15321641289E+03  0.80266608774E+02 0.  0.
          5    1    5    5  501    0 -0.70564963919E+02 -0.49277244007E+01  0.28580141879E+03  0.29446262510E+03  0.47000000000E+01 0. -1.
        -11    1    6    6    0    0 -0.95456998549E+02 -0.82440770641E+01  0.91287247048E+02  0.13233807031E+03  0.00000000000E+00 0.  1.
         12    1    6    6    0    0  0.45026841528E+01  0.20330047388E+02  0.15232195472E+01  0.20878342587E+02  0.00000000000E+00 0. -1.
         -5    1    3    3    0  503 -0.15987323577E+02 -0.20030565946E+02 -0.18850534476E+03  0.19029759086E+03  0.47000000000E+01 0.  1.
         13    1    4    4    0    0  0.13747855031E+03  0.18215334680E+02 -0.40492967870E+03  0.42801891887E+03  0.00000000000E+00 0. -1.
        -14    1    4    4    0    0  0.40028051583E+02 -0.53430146568E+01 -0.35129205069E+02  0.53524328749E+02  0.00000000000E+00 0.  1.
<mgrwt>
<rscale>  2 0.23847518E+03</rscale>
<asrwt>0</asrwt>
<pdfrwt beam="1">  1       21 0.66889810E-01 0.23889236E+03</pdfrwt>
<pdfrwt beam="2">  1       21 0.10534402E+00 0.23889236E+03</pdfrwt>
<totfact> 0.14248654E+03</totfact>
</mgrwt>
</event>
<event>
12    1  0.1026879E-001  0.4969129E+03  0.7546771E-02  0.1014601E+00
         21   -1    0    0  503  502  0.00000000000E+00  0.00000000000E+00  0.21184766562E+04  0.21184766562E+04  0.00000000000E+00 0. -1.
         21   -1    0    0  501  503 -0.00000000000E+00 -0.00000000000E+00 -0.12962376042E+03  0.12962376042E+03  0.00000000000E+00 0. -1.
          6    2    1    2  501    0 -0.46556936903E+03  0.10886966840E+02  0.63706266850E+03  0.80794260489E+03  0.17334660589E+03 0.  0.
         24    2    3    3    0    0 -0.27326066846E+03 -0.54094589938E+02  0.31947099879E+03  0.43099194803E+03  0.78068704435E+02 0.  0.
         -6    2    1    2    0  502  0.46556936903E+03 -0.10886966840E+02  0.13517902272E+04  0.14401578117E+04  0.17275514658E+03 0.  0.
        -24    2    5    5    0    0  0.39640015245E+03 -0.49893715469E+02  0.10148259393E+04  0.10939311109E+04  0.84800499430E+02 0.  0.
          5    1    3    3  501    0 -0.19230870057E+03  0.64981556778E+02  0.31759166971E+03  0.37695065686E+03  0.47000000000E+01 0. -1.
        -13    1    4    4    0    0 -0.85722223196E+02 -0.43236538787E+02  0.14940059526E+03  0.17759007771E+03  0.00000000000E+00 0.  1.
         14    1    4    4    0    0 -0.18753844527E+03 -0.10858051150E+02  0.17007040353E+03  0.25340187033E+03  0.00000000000E+00 0. -1.
         -5    1    5    5    0  502  0.69169216583E+02  0.39006748629E+02  0.33696428795E+03  0.34622670076E+03  0.47000000000E+01 0.  1.
         11    1    6    6    0    0  0.25248344060E+03 -0.14214292478E+02  0.53573834103E+03  0.59242341609E+03  0.00000000000E+00 0. -1.
        -12    1    6    6    0    0  0.14391671185E+03 -0.35679422991E+02  0.47908759826E+03  0.50150769483E+03  0.00000000000E+00 0.  1.
<mgrwt>
<rscale>  2 0.49686137E+03</rscale>
<asrwt>0</asrwt>
<pdfrwt beam="1">  1       21 0.32591946E+00 0.49691288E+03</pdfrwt>
<pdfrwt beam="2">  1       21 0.19942119E-01 0.49691288E+03</pdfrwt>
<totfact> 0.43104716E+02</totfact>
</mgrwt>
</event>
<event>
12    1  0.1026879E-001  0.1883402E+03  0.7546771E-02  0.1160386E+00
         21   -1    0    0  503  502  0.00000000000E+00  0.00000000000E+00  0.50538553228E+02  0.50538553228E+02  0.00000000000E+00 0. -1.
         21   -1    0    0  501  503 -0.00000000000E+00 -0.00000000000E+00 -0.69722887551E+03  0.69722887551E+03  0.00000000000E+00 0. -1.
          6    2    1    2  501    0  0.30685259137E+02 -0.66334517533E+02 -0.30421915455E+03  0.35780067514E+03  0.17358045913E+03 0.  0.
         24    2    3    3    0    0 -0.31767665609E+00 -0.17255097601E+02 -0.46241196719E+02  0.93330094139E+02  0.79211229546E+02 0.  0.
         -6    2    1    2    0  502 -0.30685259137E+02  0.66334517533E+02 -0.34247116773E+03  0.38996675360E+03  0.17159753739E+03 0.  0.
        -24    2    5    5    0    0 -0.57773519168E+02  0.97195678809E+02 -0.27046644012E+03  0.30694292626E+03  0.90978487870E+02 0.  0.
          5    1    3    3  501    0  0.31002935793E+02 -0.49079419932E+02 -0.25797795783E+03  0.26447058100E+03  0.47000000000E+01 0. -1.
        -11    1    4    4    0    0  0.24092699311E+02  0.76448288125E+01 -0.52160173448E+02  0.57961929417E+02  0.00000000000E+00 0.  1.
         12    1    4    4    0    0 -0.24410375967E+02 -0.24899926413E+02  0.59189767291E+01  0.35368164721E+02  0.00000000000E+00 0. -1.
         -5    1    5    5    0  502  0.27088260031E+02 -0.30861161277E+02 -0.72004727611E+02  0.83023827334E+02  0.47000000000E+01 0.  1.
         13    1    6    6    0    0  0.12595778239E+02 -0.10371775169E+02 -0.36791814013E+02  0.40247545615E+02  0.00000000000E+00 0. -1.
        -14    1    6    6    0    0 -0.70369297407E+02  0.10756745398E+03 -0.23367462611E+03  0.26669538065E+03  0.00000000000E+00 0.  1.
<mgrwt>
<rscale>  2 0.18788204E+03</rscale>
<asrwt>0</asrwt>
<pdfrwt beam="1">  1       21 0.77751623E-02 0.18834020E+03</pdfrwt>
<pdfrwt beam="2">  1       21 0.10726598E+00 0.18834020E+03</pdfrwt>
<totfact> 0.87683493E+04</totfact>
</mgrwt>
</event>
<event>
12    1  0.1026879E-001  0.2214648E+03  0.7546771E-02  0.1133059E+00
         21   -1    0    0  501  502  0.00000000000E+00  0.00000000000E+00  0.54479457951E+03  0.54479457951E+03  0.00000000000E+00 0.  1.
         21   -1    0    0  502  503 -0.00000000000E+00 -0.00000000000E+00 -0.89453080264E+02  0.89453080264E+02  0.00000000000E+00 0.  1.
         -6    2    1    2    0  503 -0.48946721550E+02  0.12745949215E+03  0.22993880341E+03  0.31924675729E+03  0.17437010937E+03 0.  0.
        -24    2    3    3    0    0 -0.80725730169E+02  0.29716750796E+02  0.10540078184E+03  0.15770618131E+03  0.79763312493E+02 0.  0.
          6    2    1    2  501    0  0.48946721550E+02 -0.12745949215E+03  0.22540269584E+03  0.31500090248E+03  0.17256155302E+03 0.  0.
         24    2    5    5    0    0 -0.16684525123E+02 -0.79679581642E+02  0.20753350977E+03  0.23174360130E+03  0.63306634381E+02 0.  0.
          5    1    5    5  501    0  0.65631246673E+02 -0.47779910506E+02  0.17869186062E+02  0.83257301172E+02  0.47000000000E+01 0. -1.
        -13    1    6    6    0    0 -0.17892529439E+02 -0.87800960055E+02  0.15891494174E+03  0.18243659146E+03  0.00000000000E+00 0.  1.
         14    1    6    6    0    0  0.12080043158E+01  0.81213784127E+01  0.48618568034E+02  0.49307009841E+02  0.00000000000E+00 0. -1.
         -5    1    3    3    0  503  0.31779008618E+02  0.97742741353E+02  0.12453802156E+03  0.16154057599E+03  0.47000000000E+01 0.  1.
         13    1    4    4    0    0 -0.21378573339E+02  0.33721657891E+02  0.39745357777E+01  0.40124687458E+02  0.00000000000E+00 0. -1.
        -14    1    4    4    0    0 -0.59347156830E+02 -0.40049070951E+01  0.10142624607E+03  0.11758149385E+03  0.00000000000E+00 0.  1.
<mgrwt>
<rscale>  2 0.22110861E+03</rscale>
<asrwt>0</asrwt>
<pdfrwt beam="1">  1       21 0.83814549E-01 0.22146476E+03</pdfrwt>
<pdfrwt beam="2">  1       21 0.13762013E-01 0.22146476E+03</pdfrwt>
<totfact> 0.55981835E+04</totfact>
</mgrwt>
</event>
<event>
12    1  0.1026879E-001  0.1776392E+03  0.7546771E-02  0.1170357E+00
         21   -1    0    0  501  502  0.00000000000E+00  0.00000000000E+00  0.90419443148E+02  0.90419443148E+02  0.00000000000E+00 0. -1.
         21   -1    0    0  502  503 -0.00000000000E+00 -0.00000000000E+00 -0.34952536534E+03  0.34952536534E+03  0.00000000000E+00 0.  1.
         -6    2    1    2    0  503  0.26460534735E+02  0.26451881758E+02 -0.11051232793E+03  0.20835088863E+03  0.17261881770E+03 0.  0.
        -24    2    3    3    0    0 -0.11410599355E+02 -0.46567880890E+02 -0.43892959119E+02  0.10239646997E+03  0.79118113562E+02 0.  0.
          6    2    1    2  501    0 -0.26460534735E+02 -0.26451881758E+02 -0.14859359426E+03  0.23159391985E+03  0.17365432764E+03 0.  0.
         24    2    5    5    0    0 -0.36258920129E+02 -0.24217281147E+02 -0.99556329435E+01  0.92512734514E+02  0.80983365112E+02 0.  0.
          5    1    5    5  501    0  0.97983853940E+01 -0.22346006111E+01 -0.13863796132E+03  0.13908118534E+03  0.47000000000E+01 0. -1.
        -13    1    6    6    0    0  0.19181071068E+02 -0.23329465779E+02 -0.19916593502E+02  0.36178006545E+02  0.00000000000E+00 0.  1.
         14    1    6    6    0    0 -0.55439991197E+02 -0.88781536803E+00  0.99609605583E+01  0.56334727969E+02  0.00000000000E+00 0. -1.
         -5    1    3    3    0  503  0.37871134090E+02  0.73019762648E+02 -0.66619368807E+02  0.10595441867E+03  0.47000000000E+01 0.  1.
         13    1    4    4    0    0  0.14149912890E+02 -0.15744969857E+02  0.18597296986E+02  0.28177713991E+02  0.00000000000E+00 0. -1.
        -14    1    4    4    0    0 -0.25560512245E+02 -0.30822911032E+02 -0.62490256105E+02  0.74218755977E+02  0.00000000000E+00 0.  1.
<mgrwt>
<rscale>  2 0.17738563E+03</rscale>
<asrwt>0</asrwt>
<pdfrwt beam="1">  1       21 0.13910683E-01 0.17763921E+03</pdfrwt>
<pdfrwt beam="2">  1       21 0.53773134E-01 0.17763921E+03</pdfrwt>
<totfact> 0.14788614E+05</totfact>
</mgrwt>
</event>
<event>
12    1  0.1026879E-001  0.1977972E+03  0.7546771E-02  0.1151944E+00
         21   -1    0    0  503  502  0.00000000000E+00  0.00000000000E+00  0.94644831426E+02  0.94644831426E+02  0.00000000000E+00 0. -1.
         21   -1    0    0  501  503 -0.00000000000E+00 -0.00000000000E+00 -0.87630735469E+03  0.87630735469E+03  0.00000000000E+00 0. -1.
          6    2    1    2  501    0  0.30252913378E+02  0.87894787698E+02 -0.74419693008E+03  0.76963801564E+03  0.17283770395E+03 0.  0.
         24    2    3    3    0    0  0.13688264085E+02  0.10735762423E+03 -0.36631692828E+03  0.39086555707E+03  0.82914194833E+02 0.  0.
         -6    2    1    2    0  502 -0.30252913378E+02 -0.87894787698E+02 -0.37465593186E+02  0.20131417048E+03  0.17459379167E+03 0.  0.
        -24    2    5    5    0    0 -0.66990998168E+02 -0.88411725556E+02 -0.68678677943E+02  0.15287554169E+03  0.79685277135E+02 0.  0.
          5    1    3    3  501    0  0.16564649292E+02 -0.19462836530E+02 -0.37788000180E+03  0.37877245857E+03  0.47000000000E+01 0. -1.
        -13    1    4    4    0    0 -0.28148962785E+02  0.43332093576E+02 -0.21739743587E+03  0.22345397638E+03  0.00000000000E+00 0.  1.
         14    1    4    4    0    0  0.41837226870E+02  0.64025530652E+02 -0.14891949241E+03  0.16741158068E+03  0.00000000000E+00 0. -1.
         -5    1    5    5    0  502  0.36738084791E+02  0.51693785724E+00  0.31213084756E+02  0.48438628788E+02  0.47000000000E+01 0.  1.
         11    1    6    6    0    0 -0.25982795374E+02 -0.72187753630E+02 -0.69829894025E+01  0.77038558985E+02  0.00000000000E+00 0. -1.
        -12    1    6    6    0    0 -0.41008202794E+02 -0.16223971926E+02 -0.61695688540E+02  0.75836982706E+02  0.00000000000E+00 0.  1.
<mgrwt>
<rscale>  2 0.19740895E+03</rscale>
<asrwt>0</asrwt>
<pdfrwt beam="1">  1       21 0.14560744E-01 0.19779718E+03</pdfrwt>
<pdfrwt beam="2">  1       21 0.13481651E+00 0.19779718E+03</pdfrwt>
<totfact> 0.16265603E+04</totfact>
</mgrwt>
</event>
<event>
12    1  0.1026879E-001  0.1808666E+03  0.7546771E-02  0.1167097E+00
         21   -1    0    0  501  502  0.00000000000E+00  0.00000000000E+00  0.51528090536E+02  0.51528090536E+02  0.00000000000E+00 0.  1.
         21   -1    0    0  502  503 -0.00000000000E+00 -0.00000000000E+00 -0.78044226153E+03  0.78044226153E+03  0.00000000000E+00 0.  1.
         -6    2    1    2    0  503 -0.33623827536E+02  0.39431969882E+02 -0.54484733494E+03  0.57391352577E+03  0.17272137866E+03 0.  0.
        -24    2    3    3    0    0 -0.53113491388E+02 -0.28252738631E+02 -0.22533182457E+03  0.24669293025E+03  0.80397204339E+02 0.  0.
          6    2    1    2  501    0  0.33623827536E+02 -0.39431969882E+02 -0.18406683605E+03  0.25805682630E+03  0.17328382335E+03 0.  0.
         24    2    5    5    0    0  0.10580028155E+02 -0.90477642273E+02 -0.10443773286E+03  0.16059113266E+03  0.81142658929E+02 0.  0.
          5    1    5    5  501    0  0.23043799380E+02  0.51045672391E+02 -0.79629103191E+02  0.97465693630E+02  0.47000000000E+01 0. -1.
        -11    1    6    6    0    0  0.35095049014E+02 -0.85472706439E+02 -0.98137284158E+02  0.13478936365E+03  0.00000000000E+00 0.  1.
         12    1    6    6    0    0 -0.24515020859E+02 -0.50049358342E+01 -0.63004487045E+01  0.25801769015E+02  0.00000000000E+00 0. -1.
         -5    1    3    3    0  503  0.19489663852E+02  0.67684708513E+02 -0.31951551038E+03  0.32722059552E+03  0.47000000000E+01 0.  1.
         11    1    4    4    0    0 -0.32517038613E+02 -0.27093181200E+02 -0.34102676153E+02  0.54354307911E+02  0.00000000000E+00 0. -1.
        -12    1    4    4    0    0 -0.20596452775E+02 -0.11595574306E+01 -0.19122914841E+03  0.19233862234E+03  0.00000000000E+00 0.  1.
<mgrwt>
<rscale>  2 0.18073175E+03</rscale>
<asrwt>0</asrwt>
<pdfrwt beam="1">  1       21 0.79273992E-02 0.18086660E+03</pdfrwt>
<pdfrwt beam="2">  1       21 0.12006803E+00 0.18086660E+03</pdfrwt>
<totfact> 0.64666073E+04</totfact>
</mgrwt>
</event>
<event>
12    1  0.1026879E-001  0.1954723E+03  0.7546771E-02  0.1153620E+00
         21   -1    0    0  503  502  0.00000000000E+00  0.00000000000E+00  0.11297388658E+03  0.11297388658E+03  0.00000000000E+00 0. -1.
         21   -1    0    0  501  503 -0.00000000000E+00 -0.00000000000E+00 -0.44202745667E+03  0.44202745667E+03  0.00000000000E+00 0. -1.
          6    2    1    2  501    0  0.52993656314E+02 -0.73158468547E+02 -0.29902382026E+03  0.35723582715E+03  0.17332542222E+03 0.  0.
         24    2    3    3    0    0 -0.32958431601E+02 -0.21628514571E+02 -0.18704369703E+03  0.20688711392E+03  0.79138375322E+02 0.  0.
         -6    2    1    2    0  502 -0.52993656314E+02  0.73158468547E+02 -0.30029749841E+02  0.19776551610E+03  0.17334625566E+03 0.  0.
        -24    2    5    5    0    0 -0.35388693898E+01  0.91142640450E+02  0.22125288912E+02  0.12352641282E+03  0.80310284206E+02 0.  0.
          5    1    3    3  501    0  0.85952087916E+02 -0.51529953976E+02 -0.11198012322E+03  0.15034871323E+03  0.47000000000E+01 0. -1.
        -13    1    4    4    0    0 -0.26051893555E+02  0.15377741469E+02 -0.21491548016E+02  0.37108795812E+02  0.00000000000E+00 0.  1.
         14    1    4    4    0    0 -0.69065380458E+01 -0.37006256040E+02 -0.16555214902E+03  0.16977831811E+03  0.00000000000E+00 0. -1.
         -5    1    5    5    0  502 -0.49454786925E+02 -0.17984171903E+02 -0.52155038752E+02  0.74239103282E+02  0.47000000000E+01 0.  1.
         11    1    6    6    0    0 -0.40019084828E+02  0.64794040314E+02  0.18556233211E+02  0.78384492099E+02  0.00000000000E+00 0. -1.
        -12    1    6    6    0    0  0.36480215438E+02  0.26348600136E+02  0.35690557006E+01  0.45141920718E+02  0.00000000000E+00 0.  1.
<mgrwt>
<rscale>  2 0.19546766E+03</rscale>
<asrwt>0</asrwt>
<pdfrwt beam="1">  1       21 0.17380598E-01 0.19547228E+03</pdfrwt>
<pdfrwt beam="2">  1       21 0.68004224E-01 0.19547228E+03</pdfrwt>
<totfact> 0.59063840E+04</totfact>
</mgrwt>
</event>
<event>
12    1  0.1026879E-001  0.1889621E+03  0.7546771E-02  0.1159569E+00
         21   -1    0    0  503  502  0.00000000000E+00  0.00000000000E+00  0.13117292336E+04  0.13117292336E+04  0.00000000000E+00 0.  1.
         21   -1    0    0  501  503 -0.00000000000E+00 -0.00000000000E+00 -0.50790175165E+02  0.50790175165E+02  0.00000000000E+00 0. -1.
          6    2    1    2  501    0 -0.54142801533E+02  0.50947862784E+02  0.16468583981E+03  0.25009962076E+03  0.17291982764E+03 0.  0.
         24    2    3    3    0    0 -0.39601094423E+02  0.93031195134E+02  0.72742810447E+02  0.14783487241E+03  0.79627778328E+02 0.  0.
         -6    2    1    2    0  502  0.54142801533E+02 -0.50947862784E+02  0.10962532186E+04  0.11124197880E+04  0.17372258837E+03 0.  0.
        -24    2    5    5    0    0  0.33084585450E+02 -0.10151949357E+03  0.76219105057E+03  0.77386320420E+03  0.80797672542E+02 0.  0.
          5    1    3    3  501    0 -0.14541707109E+02 -0.42083332350E+02  0.91943029362E+02  0.10226474835E+03  0.47000000000E+01 0. -1.
        -13    1    4    4    0    0 -0.63151576128E+02  0.78342204862E+02  0.52635806785E+02  0.11356122043E+03  0.00000000000E+00 0.  1.
         14    1    4    4    0    0  0.23550481704E+02  0.14688990272E+02  0.20107003661E+02  0.34273651979E+02  0.00000000000E+00 0. -1.
         -5    1    5    5    0  502  0.21058216083E+02  0.50571630782E+02  0.33406216805E+03  0.33855658379E+03  0.47000000000E+01 0.  1.
         11    1    6    6    0    0 -0.14392626981E+02 -0.64393748164E+02  0.26765271115E+03  0.27566587801E+03  0.00000000000E+00 0. -1.
        -12    1    6    6    0    0  0.47477212431E+02 -0.37125745402E+02  0.49453833942E+03  0.49819732619E+03  0.00000000000E+00 0.  1.
<mgrwt>
<rscale>  2 0.18877736E+03</rscale>
<asrwt>0</asrwt>
<pdfrwt beam="1">  1       21 0.20180447E+00 0.18896207E+03</pdfrwt>
<pdfrwt beam="2">  1       21 0.78138741E-02 0.18896207E+03</pdfrwt>
<totfact> 0.16393107E+04</totfact>
</mgrwt>
</event>
<event>
12    1  0.1026879E-001  0.1894375E+03  0.7546771E-02  0.1159724E+00
         21   -1    0    0  503  502  0.00000000000E+00  0.00000000000E+00  0.50285123374E+03  0.50285123374E+03  0.00000000000E+00 0.  1.
         21   -1    0    0  501  503 -0.00000000000E+00 -0.00000000000E+00 -0.71638439810E+02  0.71638439810E+02  0.00000000000E+00 0. -1.
          6    2    1    2  501    0  0.49298236970E+02 -0.47060139454E+02  0.25918147238E+03  0.32103210855E+03  0.17675295246E+03 0.  0.
         24    2    3    3    0    0  0.89365866842E+02 -0.68602809190E+02  0.15891718950E+03  0.21082993977E+03  0.80634898150E+02 0.  0.
         -6    2    1    2    0  502 -0.49298236970E+02  0.47060139454E+02  0.17203132155E+03  0.25345756500E+03  0.17320793506E+03 0.  0.
        -24    2    5    5    0    0 -0.16942711723E+01  0.87151596158E+02  0.80977685522E+02  0.14306591181E+03  0.79449344245E+02 0.  0.
          5    1    3    3  501    0 -0.40067629872E+02  0.21542669736E+02  0.10026428288E+03  0.11020216878E+03  0.47000000000E+01 0. -1.
        -11    1    4    4    0    0  0.16475570842E+02  0.48594902882E+01  0.76864481828E+02  0.78760444685E+02  0.00000000000E+00 0.  1.
         12    1    4    4    0    0  0.72890296000E+02 -0.73462299478E+02  0.82052707674E+02  0.13206949509E+03  0.00000000000E+00 0. -1.
         -5    1    5    5    0  502 -0.47603965798E+02 -0.40091456704E+02  0.91053636030E+02  0.11039165319E+03  0.47000000000E+01 0.  1.
         13    1    6    6    0    0  0.30711378526E+02  0.30256343400E+02  0.60076344579E+01  0.43528459181E+02  0.00000000000E+00 0. -1.
        -14    1    6    6    0    0 -0.32405649698E+02  0.56895252757E+02  0.74970051064E+02  0.99537452626E+02  0.00000000000E+00 0.  1.
<mgrwt>
<rscale>  2 0.18860626E+03</rscale>
<asrwt>0</asrwt>
<pdfrwt beam="1">  1       21 0.77361726E-01 0.18943753E+03</pdfrwt>
<pdfrwt beam="2">  1       21 0.11021299E-01 0.18943753E+03</pdfrwt>
<totfact> 0.10143432E+05</totfact>
</mgrwt>
</event>
<event>
12    1  0.1026879E-001  0.2217165E+03  0.7546771E-02  0.1133935E+00
         21   -1    0    0  501  502  0.00000000000E+00  0.00000000000E+00  0.26785480440E+03  0.26785480440E+03  0.00000000000E+00 0. -1.
         21   -1    0    0  502  503 -0.00000000000E+00 -0.00000000000E+00 -0.18073753564E+03  0.18073753564E+03  0.00000000000E+00 0. -1.
         -6    2    1    2    0  503  0.20221515531E+02  0.12913567334E+03  0.73194710390E+02  0.23348588671E+03  0.17909009421E+03 0.  0.
        -24    2    3    3    0    0  0.78957934962E+02  0.44939299348E+02  0.42671453068E+02  0.12628161628E+03  0.76630917931E+02 0.  0.
          6    2    1    2  501    0 -0.20221515531E+02 -0.12913567334E+03  0.13922558368E+02  0.21510645333E+03  0.17027042261E+03 0.  0.
         24    2    5    5    0    0 -0.12308190393E+01 -0.10844465163E+02  0.14914159939E+01  0.94565672738E+02  0.93921907980E+02 0.  0.
          5    1    5    5  501    0 -0.18990696492E+02 -0.11829120818E+03  0.12431142374E+02  0.12054078059E+03  0.47000000000E+01 0. -1.
        -13    1    6    6    0    0  0.28513928546E+02 -0.41663818365E+02  0.83976139791E+01  0.51180443554E+02  0.00000000000E+00 0.  1.
         14    1    6    6    0    0 -0.29744747585E+02  0.30819353202E+02 -0.69061979853E+01  0.43385229184E+02  0.00000000000E+00 0. -1.
         -5    1    3    3    0  503 -0.58736419431E+02  0.84196373994E+02  0.30523257321E+02  0.10720427043E+03  0.47000000000E+01 0.  1.
         11    1    4    4    0    0  0.18260624251E+02  0.28651172440E+02  0.52638836394E+02  0.62651314249E+02  0.00000000000E+00 0. -1.
        -12    1    4    4    0    0  0.60697310711E+02  0.16288126908E+02 -0.99673833251E+01  0.63630302027E+02  0.00000000000E+00 0.  1.
<mgrwt>
<rscale>  2 0.21992973E+03</rscale>
<asrwt>0</asrwt>
<pdfrwt beam="1">  1       21 0.41208431E-01 0.22171647E+03</pdfrwt>
<pdfrwt beam="2">  1       21 0.27805775E-01 0.22171647E+03</pdfrwt>
<totfact> 0.69154841E+04</totfact>
</mgrwt>
</event>
<event>
12    1  0.1026879E-001  0.1929041E+03  0.7546771E-02  0.1156105E+00
         21   -1    0    0  501  502  0.00000000000E+00  0.00000000000E+00  0.11076718960E+03  0.11076718960E+03  0.00000000000E+00 0.  1.
         21   -1    0    0  502  503 -0.00000000000E+00 -0.00000000000E+00 -0.33845031827E+03  0.33845031827E+03  0.00000000000E+00 0.  1.
         -6    2    1    2    0  503  0.54030024622E+02  0.65527150124E+02 -0.88038088525E+02  0.21107316626E+03  0.17201199237E+03 0.  0.
        -24    2    3    3    0    0  0.13582131365E+02  0.33904133050E+02  0.17127640880E+02  0.93949437156E+02  0.84847958901E+02 0.  0.
          6    2    1    2  501    0 -0.54030024622E+02 -0.65527150124E+02 -0.13964504014E+03  0.23814434161E+03  0.17320201858E+03 0.  0.
         24    2    5    5    0    0 -0.51494884593E+02 -0.55409216518E+02 -0.17137840271E+03  0.20441163026E+03  0.81802525977E+02 0.  0.
          5    1    5    5  501    0 -0.25351400288E+01 -0.10117933606E+02  0.31733362564E+02  0.33732711350E+02  0.47000000000E+01 0. -1.
        -11    1    6    6    0    0 -0.12429223868E+02  0.15530631071E+02 -0.79433541763E+02  0.81886346020E+02  0.00000000000E+00 0.  1.
         12    1    6    6    0    0 -0.39065660724E+02 -0.70939847589E+02 -0.91944860944E+02  0.12252528424E+03  0.00000000000E+00 0. -1.
         -5    1    3    3    0  503  0.40447893257E+02  0.31623017074E+02 -0.10516572940E+03  0.11712372910E+03  0.47000000000E+01 0.  1.
         13    1    4    4    0    0 -0.28488013311E+02 -0.10040759009E+02 -0.17365667555E+01  0.30255568214E+02  0.00000000000E+00 0. -1.
        -14    1    4    4    0    0  0.42070144676E+02  0.43944892058E+02  0.18864207635E+02  0.63693868942E+02  0.00000000000E+00 0.  1.
<mgrwt>
<rscale>  2 0.19263660E+03</rscale>
<asrwt>0</asrwt>
<pdfrwt beam="1">  1       21 0.17041106E-01 0.19290410E+03</pdfrwt>
<pdfrwt beam="2">  1       21 0.52069280E-01 0.19290410E+03</pdfrwt>
<totfact> 0.10872046E+05</totfact>
</mgrwt>
</event>
<event>
12    1  0.1026879E-001  0.1932234E+03  0.7546771E-02  0.1155725E+00
         21   -1    0    0  503  502  0.00000000000E+00  0.00000000000E+00  0.61335886324E+03  0.61335886324E+03  0.00000000000E+00 0.  1.
         21   -1    0    0  501  503 -0.00000000000E+00 -0.00000000000E+00 -0.11691432434E+03  0.11691432434E+03  0.00000000000E+00 0.  1.
          6    2    1    2  501    0  0.20177521404E+02 -0.83347244983E+02 -0.48195184053E+01  0.19328352644E+03  0.17315137372E+03 0.  0.
         24    2    3    3    0    0 -0.33294410329E+02 -0.95457531219E+02 -0.29204060422E+02  0.13309546778E+03  0.81491523321E+02 0.  0.
         -6    2    1    2    0  502 -0.20177521404E+02  0.83347244983E+02  0.50126405730E+03  0.53698966114E+03  0.17244809483E+03 0.  0.
        -24    2    5    5    0    0 -0.55430798943E+02 -0.24174138802E+01  0.26770986107E+03  0.28565716650E+03  0.82783027816E+02 0.  0.
          5    1    3    3  501    0  0.53471931733E+02  0.12110286236E+02  0.24384542016E+02  0.60188058661E+02  0.47000000000E+01 0. -1.
        -13    1    4    4    0    0 -0.57776157185E+02 -0.45630701378E+02 -0.23524225148E+02  0.77289290436E+02  0.00000000000E+00 0.  1.
         14    1    4    4    0    0  0.24481746856E+02 -0.49826829841E+02 -0.56798352741E+01  0.55806177345E+02  0.00000000000E+00 0. -1.
         -5    1    5    5    0  502  0.35253277539E+02  0.85764658863E+02  0.23355419623E+03  0.25133249464E+03  0.47000000000E+01 0.  1.
         13    1    6    6    0    0 -0.12284639485E+02  0.79369980944E+00 -0.20239159430E+01  0.12475518522E+02  0.00000000000E+00 0. -1.
        -14    1    6    6    0    0 -0.43146159458E+02 -0.32111136896E+01  0.26973377702E+03  0.27318164798E+03  0.00000000000E+00 0.  1.
<mgrwt>
<rscale>  2 0.19306574E+03</rscale>
<asrwt>0</asrwt>
<pdfrwt beam="1">  1       21 0.94362900E-01 0.19322343E+03</pdfrwt>
<pdfrwt beam="2">  1       21 0.17986820E-01 0.19322343E+03</pdfrwt>
<totfact> 0.26449314E+04</totfact>
</mgrwt>
</event>
<event>
12    1  0.1026879E-001  0.1865921E+03  0.7546771E-02  0.1161618E+00
         21   -1    0    0  503  502  0.00000000000E+00  0.00000000000E+00  0.93611493613E+02  0.93611493613E+02  0.00000000000E+00 0. -1.
         21   -1    0    0  501  503 -0.00000000000E+00 -0.00000000000E+00 -0.51543834435E+03  0.51543834435E+03  0.00000000000E+00 0. -1.
          6    2    1    2  501    0  0.14755176487E+02 -0.68641583771E+02 -0.49921034213E+02  0.19296026191E+03  0.17266201309E+03 0.  0.
         24    2    3    3    0    0 -0.41855188356E+02 -0.59371809729E+02 -0.35603192149E+01  0.11905445691E+03  0.94257197359E+02 0.  0.
         -6    2    1    2    0  502 -0.14755176487E+02  0.68641583771E+02 -0.37190581653E+03  0.41608957605E+03  0.17287919677E+03 0.  0.
        -24    2    5    5    0    0  0.15255180045E+02 -0.22857917236E+02 -0.11567207244E+03  0.14231850053E+03  0.78226097640E+02 0.  0.
          5    1    3    3  501    0  0.56610364842E+02 -0.92697740416E+01 -0.46360714999E+02  0.73905805006E+02  0.47000000000E+01 0. -1.
        -13    1    4    4    0    0 -0.46868101192E+02  0.96881257205E+01 -0.11889438822E+02  0.49313663875E+02  0.00000000000E+00 0.  1.
         14    1    4    4    0    0  0.50129128359E+01 -0.69059935450E+02  0.83291196066E+01  0.69740793033E+02  0.00000000000E+00 0. -1.
         -5    1    5    5    0  502 -0.30010356532E+02  0.91499501007E+02 -0.25623374409E+03  0.27377107552E+03  0.47000000000E+01 0.  1.
         13    1    6    6    0    0 -0.27142030262E+02  0.71164477717E+01 -0.59736123871E+02  0.65998016113E+02  0.00000000000E+00 0. -1.
        -14    1    6    6    0    0  0.42397210307E+02 -0.29974365008E+02 -0.55935948569E+02  0.76320484418E+02  0.00000000000E+00 0.  1.
<mgrwt>
<rscale>  2 0.18654174E+03</rscale>
<asrwt>0</asrwt>
<pdfrwt beam="1">  1       21 0.14401768E-01 0.18659207E+03</pdfrwt>
<pdfrwt beam="2">  1       21 0.79298207E-01 0.18659207E+03</pdfrwt>
<totfact> 0.59428544E+04</totfact>
</mgrwt>
</event>
<event>
12    1  0.1026879E-001  0.2302586E+03  0.7546771E-02  0.1126841E+00
         21   -1    0    0  503  502  0.00000000000E+00  0.00000000000E+00  0.20482407922E+03  0.20482407922E+03  0.00000000000E+00 0. -1.
         21   -1    0    0  501  503 -0.00000000000E+00 -0.00000000000E+00 -0.36811741873E+03  0.36811741873E+03  0.00000000000E+00 0. -1.
          6    2    1    2  501    0  0.85613886954E+02 -0.12107288470E+03 -0.23971459817E+03  0.33238846306E+03  0.17615510423E+03 0.  0.
         24    2    3    3    0    0  0.37826173998E+02 -0.12077222567E+03 -0.90692443250E+02  0.17582075067E+03  0.81676601110E+02 0.  0.
         -6    2    1    2    0  502 -0.85613886954E+02  0.12107288470E+03  0.76421258662E+02  0.24055303490E+03  0.17331235609E+03 0.  0.
        -24    2    5    5    0    0 -0.12565108547E+03  0.97446039714E+02  0.68218932074E+02  0.19311282801E+03  0.85760222206E+02 0.  0.
          5    1    3    3  501    0  0.47787712956E+02 -0.30065902319E+00 -0.14902215492E+03  0.15656771239E+03  0.47000000000E+01 0. -1.
        -13    1    4    4    0    0 -0.16409136589E+02 -0.53772231869E+02 -0.64857303554E+02  0.85832292921E+02  0.00000000000E+00 0.  1.
         14    1    4    4    0    0  0.54235310588E+02 -0.66999993803E+02 -0.25835139696E+02  0.89988457744E+02  0.00000000000E+00 0. -1.
         -5    1    5    5    0  502  0.40037198511E+02  0.23626844981E+02  0.82023265877E+01  0.47440206891E+02  0.47000000000E+01 0.  1.
         11    1    6    6    0    0 -0.22548636295E+02  0.70236937905E+02  0.22802267635E+02  0.77211474887E+02  0.00000000000E+00 0. -1.
        -12    1    6    6    0    0 -0.10310244917E+03  0.27209101810E+02  0.45416664439E+02  0.11590135312E+03  0.00000000000E+00 0.  1.
<mgrwt>
<rscale>  2 0.22971477E+03</rscale>
<asrwt>0</asrwt>
<pdfrwt beam="1">  1       21 0.31511397E-01 0.23025855E+03</pdfrwt>
<pdfrwt beam="2">  1       21 0.56633449E-01 0.23025855E+03</pdfrwt>
<totfact> 0.27814431E+04</totfact>
</mgrwt>
</event>
<event>
12    1  0.1026879E-001  0.1986446E+03  0.7546771E-02  0.1151202E+00
         21   -1    0    0  503  502  0.00000000000E+00  0.00000000000E+00  0.59596314462E+02  0.59596314462E+02  0.00000000000E+00 0. -1.
         21   -1    0    0  501  503 -0.00000000000E+00 -0.00000000000E+00 -0.68415879349E+03  0.68415879349E+03  0.00000000000E+00 0. -1.
          6    2    1    2  501    0 -0.93458990751E+02 -0.14233109308E+02 -0.38719186524E+03  0.43517493817E+03  0.17470696022E+03 0.  0.
         24    2    3    3    0    0 -0.24715221758E+02 -0.39142822444E+02 -0.11104698388E+03  0.14947529678E+03  0.88704165548E+02 0.  0.
         -6    2    1    2    0  502  0.93458990751E+02  0.14233109308E+02 -0.23737061379E+03  0.30858016979E+03  0.17303106236E+03 0.  0.
        -24    2    5    5    0    0  0.39169611895E+02 -0.56455251803E+02 -0.14781653517E+03  0.18214360842E+03  0.81271840543E+02 0.  0.
          5    1    3    3  501    0 -0.68743768993E+02  0.24909713136E+02 -0.27614488136E+03  0.28569964138E+03  0.47000000000E+01 0. -1.
        -13    1    4    4    0    0 -0.14067385585E+02  0.20510001447E+02 -0.74890835057E+02  0.78912538117E+02  0.00000000000E+00 0.  1.
         14    1    4    4    0    0 -0.10647836173E+02 -0.59652823891E+02 -0.36156148819E+02  0.70562758668E+02  0.00000000000E+00 0. -1.
         -5    1    5    5    0  502  0.54289378856E+02  0.70688361111E+02 -0.89554078623E+02  0.12643656137E+03  0.47000000000E+01 0.  1.
         11    1    6    6    0    0  0.17986117510E+02 -0.30386595623E+02 -0.14408254418E+03  0.14834630145E+03  0.00000000000E+00 0. -1.
        -12    1    6    6    0    0  0.21183494385E+02 -0.26068656180E+02 -0.37339909890E+01  0.33797306965E+02  0.00000000000E+00 0.  1.
<mgrwt>
<rscale>  2 0.19827551E+03</rscale>
<asrwt>0</asrwt>
<pdfrwt beam="1">  1       21 0.91686630E-02 0.19864462E+03</pdfrwt>
<pdfrwt beam="2">  1       21 0.10525521E+00 0.19864462E+03</pdfrwt>
<totfact> 0.68480189E+04</totfact>
</mgrwt>
</event>
<event>
12    1  0.1026879E-001  0.2061846E+03  0.7546771E-02  0.1145191E+00
         21   -1    0    0  501  502  0.00000000000E+00  0.00000000000E+00  0.26597571911E+03  0.26597571911E+03  0.00000000000E+00 0.  1.
         21   -1    0    0  502  503 -0.00000000000E+00 -0.00000000000E+00 -0.16317179165E+03  0.16317179165E+03  0.00000000000E+00 0. -1.
         -6    2    1    2    0  503 -0.11055553715E+03 -0.15822617282E+02  0.11728646964E+02  0.20374392719E+03  0.17000336672E+03 0.  0.
        -24    2    3    3    0    0 -0.47819277769E+02  0.51398903196E+02  0.19829043976E+02  0.11131948514E+03  0.84085112898E+02 0.  0.
          6    2    1    2  501    0  0.11055553715E+03  0.15822617282E+02  0.91075280499E+02  0.22540358358E+03  0.17331816627E+03 0.  0.
         24    2    5    5    0    0  0.11382029955E+03  0.11486993678E+02  0.12675397188E+03  0.18900969227E+03  0.81062215426E+02 0.  0.
          5    1    5    5  501    0 -0.32647624012E+01  0.43356236039E+01 -0.35678691384E+02  0.36393891307E+02  0.47000000000E+01 0. -1.
        -13    1    6    6    0    0  0.70026092454E+02 -0.23154668049E+02  0.35089036556E+02  0.81676390488E+02  0.00000000000E+00 0.  1.
         14    1    6    6    0    0  0.43794207096E+02  0.34641661727E+02  0.91664935328E+02  0.10733330178E+03  0.00000000000E+00 0. -1.
         -5    1    3    3    0  503 -0.62736259379E+02 -0.67221520478E+02 -0.81003970121E+01  0.92424442049E+02  0.47000000000E+01 0.  1.
         13    1    4    4    0    0 -0.40918032024E+02  0.35545235377E+02 -0.27609632144E+02  0.60827961415E+02  0.00000000000E+00 0. -1.
        -14    1    4    4    0    0 -0.69012457446E+01  0.15853667819E+02  0.47438676120E+02  0.50491523726E+02  0.00000000000E+00 0.  1.
<mgrwt>
<rscale>  2 0.20548639E+03</rscale>
<asrwt>0</asrwt>
<pdfrwt beam="1">  1       21 0.40919342E-01 0.20618455E+03</pdfrwt>
<pdfrwt beam="2">  1       21 0.25103352E-01 0.20618455E+03</pdfrwt>
<totfact> 0.85962109E+04</totfact>
</mgrwt>
</event>
<event>
12    1  0.1026879E-001  0.2846561E+03  0.7546771E-02  0.1093311E+00
         21   -1    0    0  501  502  0.00000000000E+00  0.00000000000E+00  0.38072610345E+03  0.38072610345E+03  0.00000000000E+00 0. -1.
         21   -1    0    0  502  503 -0.00000000000E+00 -0.00000000000E+00 -0.29492634831E+03  0.29492634831E+03  0.00000000000E+00 0. -1.
         -6    2    1    2    0  503 -0.12721754269E+03 -0.18487349499E+03 -0.13623193849E+03  0.31464388586E+03  0.17343333453E+03 0.  0.
        -24    2    3    3    0    0 -0.34148204382E+02 -0.10868807732E+03 -0.13518009722E+03  0.19427231128E+03  0.80553548838E+02 0.  0.
          6    2    1    2  501    0  0.12721754269E+03  0.18487349499E+03  0.22203169363E+03  0.36100856589E+03  0.17511881497E+03 0.  0.
         24    2    5    5    0    0  0.10352522405E+03  0.15541572946E+03  0.24312507680E+03  0.31746425828E+03  0.82475640862E+02 0.  0.
          5    1    5    5  501    0  0.23692318637E+02  0.29457765530E+02 -0.21093383169E+02  0.43544307618E+02  0.47000000000E+01 0. -1.
        -13    1    6    6    0    0  0.56989526456E+02  0.43194783025E+02  0.43270496963E+02  0.83581883885E+02  0.00000000000E+00 0.  1.
         14    1    6    6    0    0  0.46535697596E+02  0.11222094643E+03  0.19985457984E+03  0.23388237439E+03  0.00000000000E+00 0. -1.
         -5    1    3    3    0  503 -0.93069338307E+02 -0.76185417666E+02 -0.10518412733E+01  0.12037157458E+03  0.47000000000E+01 0.  1.
         13    1    4    4    0    0 -0.52098829708E+02 -0.10309726975E+03 -0.93728041711E+02  0.14875577599E+03  0.00000000000E+00 0. -1.
        -14    1    4    4    0    0  0.17950625326E+02 -0.55908075718E+01 -0.41452055509E+02  0.45516535290E+02  0.00000000000E+00 0.  1.
<mgrwt>
<rscale>  2 0.28439733E+03</rscale>
<asrwt>0</asrwt>
<pdfrwt beam="1">  1       21 0.58573247E-01 0.28465613E+03</pdfrwt>
<pdfrwt beam="2">  1       21 0.45373284E-01 0.28465613E+03</pdfrwt>
<totfact> 0.12072639E+04</totfact>
</mgrwt>
</event>
<event>
12    1  0.1026879E-001  0.1850820E+03  0.7546771E-02  0.1166040E+00
         21   -1    0    0  503  502  0.00000000000E+00  0.00000000000E+00  0.29912178830E+03  0.29912178830E+03  0.00000000000E+00 0. -1.
         21   -1    0    0  501  503 -0.00000000000E+00 -0.00000000000E+00 -0.17389861407E+03  0.17389861407E+03  0.00000000000E+00 0. -1.
          6    2    1    2  501    0 -0.39527396827E+01  0.34909065991E+02 -0.85580024052E+02  0.19249709879E+03  0.16881032399E+03 0.  0.
         24    2    3    3    0    0 -0.65470102175E+02  0.15561453446E+02 -0.35309287381E+02  0.11059500501E+03  0.80349338802E+02 0.  0.
         -6    2    1    2    0  502  0.39527396827E+01 -0.34909065991E+02  0.21080319829E+03  0.28052330358E+03  0.18171700087E+03 0.  0.
        -24    2    5    5    0    0  0.39347401855E+01 -0.75082438802E+02  0.21822351396E+03  0.23940090954E+03  0.63548710802E+02 0.  0.
          5    1    3    3  501    0  0.61517362492E+02  0.19347612545E+02 -0.50270736671E+02  0.81902093775E+02  0.47000000000E+01 0. -1.
        -11    1    4    4    0    0 -0.32264246183E+01  0.30487196892E+02  0.99165242578E+01  0.32221366257E+02  0.00000000000E+00 0.  1.
         12    1    4    4    0    0 -0.62243677557E+02 -0.14925743446E+02 -0.45225811638E+02  0.78373638754E+02  0.00000000000E+00 0. -1.
         -5    1    5    5    0  502  0.17999497157E-01  0.40173372811E+02 -0.74203156762E+01  0.41122394042E+02  0.47000000000E+01 0.  1.
         11    1    6    6    0    0  0.17023965635E+01 -0.22737411964E+02  0.15774534528E+03  0.15938469818E+03  0.00000000000E+00 0. -1.
        -12    1    6    6    0    0  0.22323436220E+01 -0.52345026837E+02  0.60478168684E+02  0.80016211357E+02  0.00000000000E+00 0.  1.
<mgrwt>
<rscale>  2 0.18183380E+03</rscale>
<asrwt>0</asrwt>
<pdfrwt beam="1">  1       21 0.46018737E-01 0.18508197E+03</pdfrwt>
<pdfrwt beam="2">  1       21 0.26753633E-01 0.18508197E+03</pdfrwt>
<totfact> 0.60397899E+04</totfact>
</mgrwt>
</event>
<event>
12    1  0.1026879E-001  0.2040105E+03  0.7546771E-02  0.1146680E+00
         21   -1    0    0  501  502  0.00000000000E+00  0.00000000000E+00  0.13227872401E+03  0.13227872401E+03  0.00000000000E+00 0.  1.
         21   -1    0    0  502  503 -0.00000000000E+00 -0.00000000000E+00 -0.32835064552E+03  0.32835064552E+03  0.00000000000E+00 0.  1.
         -6    2    1    2    0  503  0.28889788794E+02  0.10474063059E+03 -0.47187645707E+02  0.20806886054E+03  0.17105775992E+03 0.  0.
        -24    2    3    3    0    0 -0.49449229173E+02  0.58344199782E+02 -0.34795009407E+02  0.11606180667E+03  0.80064838562E+02 0.  0.
          6    2    1    2  501    0 -0.28889788794E+02 -0.10474063059E+03 -0.14888427580E+03  0.25256050898E+03  0.17267038983E+03 0.  0.
         24    2    5    5    0    0 -0.17851171704E+02 -0.13678113393E+03 -0.85984048547E+02  0.18095762140E+03  0.79527738613E+02 0.  0.
          5    1    5    5  501    0 -0.11038617090E+02  0.32040503337E+02 -0.62900227255E+02  0.71602887582E+02  0.47000000000E+01 0. -1.
        -13    1    6    6    0    0 -0.98909834794E+01 -0.48475109212E+02 -0.77424201832E+02  0.91881308201E+02  0.00000000000E+00 0.  1.
         14    1    6    6    0    0 -0.79601882242E+01 -0.88306024715E+02 -0.85598467145E+01  0.89076313200E+02  0.00000000000E+00 0. -1.
         -5    1    3    3    0  503  0.78339017967E+02  0.46396430807E+02 -0.12392636300E+02  0.92007053872E+02  0.47000000000E+01 0.  1.
         13    1    4    4    0    0 -0.57402467310E+01 -0.20101605729E+02 -0.73736901897E+01  0.22167460216E+02  0.00000000000E+00 0. -1.
        -14    1    4    4    0    0 -0.43708982442E+02  0.78445805512E+02 -0.27421319217E+02  0.93894346455E+02  0.00000000000E+00 0.  1.
<mgrwt>
<rscale>  2 0.20366887E+03</rscale>
<asrwt>0</asrwt>
<pdfrwt beam="1">  1       21 0.20350573E-01 0.20401050E+03</pdfrwt>
<pdfrwt beam="2">  1       21 0.50515484E-01 0.20401050E+03</pdfrwt>
<totfact> 0.82938065E+04</totfact>
</mgrwt>
</event>
<event>
12    1  0.1026879E-001  0.2741376E+03  0.7546771E-02  0.1099117E+00
         21   -1    0    0  503  502  0.00000000000E+00  0.00000000000E+00  0.19930904203E+03  0.19930904203E+03  0.00000000000E+00 0. -1.
         21   -1    0    0  501  503 -0.00000000000E+00 -0.00000000000E+00 -0.63365330438E+03  0.63365330438E+03  0.00000000000E+00 0. -1.
          6    2    1    2  501    0 -0.23641024930E+02 -0.21175775616E+03 -0.48281455515E+03  0.55457268206E+03  0.17041337878E+03 0.  0.
         24    2    3    3    0    0  0.30934368431E+02 -0.59322288703E+02 -0.14496678028E+03  0.17990182079E+03  0.82904937438E+02 0.  0.
         -6    2    1    2    0  502  0.23641024930E+02  0.21175775616E+03  0.48470292802E+02  0.27838966435E+03  0.17248533438E+03 0.  0.
        -24    2    5    5    0    0  0.65765754538E+02  0.83957813604E+02 -0.43751415563E+01  0.13374510657E+03  0.80588849928E+02 0.  0.
          5    1    3    3  501    0 -0.54575393361E+02 -0.15243546746E+03 -0.33784777487E+03  0.37467086127E+03  0.47000000000E+01 0. -1.
        -13    1    4    4    0    0  0.10699087174E+02 -0.78153556262E+02 -0.10834154880E+03  0.13401619312E+03  0.00000000000E+00 0.  1.
         14    1    4    4    0    0  0.20235281257E+02  0.18831267559E+02 -0.36625231483E+02  0.45885627669E+02  0.00000000000E+00 0. -1.
         -5    1    5    5    0  502 -0.42124729609E+02  0.12779994256E+03  0.52845434358E+02  0.14464455778E+03  0.47000000000E+01 0.  1.
         11    1    6    6    0    0  0.29849268417E+02  0.91874975259E+02  0.78996171699E+00  0.96605455040E+02  0.00000000000E+00 0. -1.
        -12    1    6    6    0    0  0.35916486122E+02 -0.79171616551E+01 -0.51651032733E+01  0.37139651531E+02  0.00000000000E+00 0.  1.
<mgrwt>
<rscale>  2 0.27381232E+03</rscale>
<asrwt>0</asrwt>
<pdfrwt beam="1">  1       21 0.30662930E-01 0.27413762E+03</pdfrwt>
<pdfrwt beam="2">  1       21 0.97485123E-01 0.27413762E+03</pdfrwt>
<totfact> 0.84626199E+03</totfact>
</mgrwt>
</event>
<event>
12    1  0.1026879E-001  0.1905068E+03  0.7546771E-02  0.1159604E+00
         21   -1    0    0  503  502  0.00000000000E+00  0.00000000000E+00  0.15415528981E+03  0.15415528981E+03  0.00000000000E+00 0. -1.
         21   -1    0    0  501  503 -0.00000000000E+00 -0.00000000000E+00 -0.42284140472E+03  0.42284140472E+03  0.00000000000E+00 0. -1.
          6    2    1    2  501    0  0.90546014510E+01 -0.59072515527E+02 -0.32937584332E+03  0.37705653394E+03  0.17352704609E+03 0.  0.
         24    2    3    3    0    0  0.58098158867E+02 -0.67864544861E+02 -0.28762261184E+03  0.31187990743E+03  0.81001958644E+02 0.  0.
         -6    2    1    2    0  502 -0.90546014510E+01  0.59072515527E+02  0.60689728412E+02  0.19994016059E+03  0.18089023407E+03 0.  0.
        -24    2    5    5    0    0  0.26692936983E+02  0.83029242111E+02 -0.46582202488E+01  0.12155485810E+03  0.84542986585E+02 0.  0.
          5    1    3    3  501    0 -0.49043557416E+02  0.87920293341E+01 -0.41753231477E+02  0.65176626505E+02  0.47000000000E+01 0. -1.
        -13    1    4    4    0    0  0.18701867243E+02 -0.35438223988E+02 -0.32183934222E+02  0.51394875035E+02  0.00000000000E+00 0.  1.
         14    1    4    4    0    0  0.39396291624E+02 -0.32426320873E+02 -0.25543867762E+03  0.26048503240E+03  0.00000000000E+00 0. -1.
         -5    1    5    5    0  502 -0.35747538434E+02 -0.23956726584E+02  0.65347948661E+02  0.78385302493E+02  0.47000000000E+01 0.  1.
         13    1    6    6    0    0  0.46294746282E+02  0.12284238405E+02 -0.48736627628E+01  0.48144144351E+02  0.00000000000E+00 0. -1.
        -14    1    6    6    0    0 -0.19601809299E+02  0.70745003706E+02  0.21544251399E+00  0.73410713746E+02  0.00000000000E+00 0.  1.
<mgrwt>
<rscale>  2 0.18873804E+03</rscale>
<asrwt>0</asrwt>
<pdfrwt beam="1">  1       21 0.23716199E-01 0.19050676E+03</pdfrwt>
<pdfrwt beam="2">  1       21 0.65052524E-01 0.19050676E+03</pdfrwt>
<totfact> 0.36475073E+04</totfact>
</mgrwt>
</event>
<event>
12    1  0.1026879E-001  0.1979139E+03  0.7546771E-02  0.1152143E+00
         21   -1    0    0  501  502  0.00000000000E+00  0.00000000000E+00  0.21522177724E+03  0.21522177724E+03  0.00000000000E+00 0.  1.
         21   -1    0    0  502  503 -0.00000000000E+00 -0.00000000000E+00 -0.36843990584E+03  0.36843990584E+03  0.00000000000E+00 0.  1.
         -6    2    1    2    0  503  0.13953242022E+02  0.94056304652E+02 -0.28541521713E+03  0.34565751173E+03  0.17022334692E+03 0.  0.
        -24    2    3    3    0    0  0.66849373995E+02  0.73369569477E+02 -0.24411887612E+03  0.27527697770E+03  0.79570448302E+02 0.  0.
          6    2    1    2  501    0 -0.13953242022E+02 -0.94056304652E+02  0.13219708854E+03  0.23800417134E+03  0.17357601779E+03 0.  0.
         24    2    5    5    0    0 -0.63121732427E+02 -0.41695050813E+02  0.12240286173E+03  0.16535943147E+03  0.81476687773E+02 0.  0.
          5    1    5    5  501    0  0.49168490405E+02 -0.52361253839E+02  0.97942268107E+01  0.72644739872E+02  0.47000000000E+01 0. -1.
        -13    1    6    6    0    0 -0.97530850939E+01 -0.54863934745E+02  0.69351618029E+02  0.88965279338E+02  0.00000000000E+00 0.  1.
         14    1    6    6    0    0 -0.53368647333E+02  0.13168883932E+02  0.53051243700E+02  0.76394152134E+02  0.00000000000E+00 0. -1.
         -5    1    3    3    0  503 -0.52896131973E+02  0.20686735176E+02 -0.41296341012E+02  0.70380534034E+02  0.47000000000E+01 0.  1.
         11    1    4    4    0    0  0.51981085542E+02 -0.34851196666E+00 -0.96887866664E+02  0.10995186866E+03  0.00000000000E+00 0. -1.
        -12    1    4    4    0    0  0.14868288454E+02  0.73718081443E+02 -0.14723100946E+03  0.16532510904E+03  0.00000000000E+00 0.  1.
<mgrwt>
<rscale>  2 0.19717636E+03</rscale>
<asrwt>0</asrwt>
<pdfrwt beam="1">  1       21 0.33111043E-01 0.19791391E+03</pdfrwt>
<pdfrwt beam="2">  1       21 0.56683062E-01 0.19791391E+03</pdfrwt>
<totfact> 0.25620164E+04</totfact>
</mgrwt>
</event>
<event>
12    1  0.1026879E-001  0.1728138E+03  0.7546771E-02  0.1174963E+00
         21   -1    0    0  503  502  0.00000000000E+00  0.00000000000E+00  0.75019074046E+02  0.75019074046E+02  0.00000000000E+00 0. -1.
         21   -1    0    0  501  503 -0.00000000000E+00 -0.00000000000E+00 -0.76392891714E+03  0.76392891714E+03  0.00000000000E+00 0. -1.
          6    2    1    2  501    0 -0.53409617416E+01 -0.80722679693E+01 -0.63476567992E+03  0.65785082770E+03  0.17247189837E+03 0.  0.
         24    2    3    3    0    0 -0.44711138623E+02 -0.20499010246E+02 -0.58662528383E+03  0.59425819852E+03  0.81205218674E+02 0.  0.
         -6    2    1    2    0  502  0.53409617416E+01  0.80722679693E+01 -0.54144163178E+02  0.18109716348E+03  0.17254247255E+03 0.  0.
        -24    2    5    5    0    0 -0.55417749879E+02 -0.15328727515E+02 -0.40663479606E+01  0.98822591444E+02  0.80269997541E+02 0.  0.
          5    1    3    3  501    0  0.39370176881E+02  0.12426742276E+02 -0.48140396086E+02  0.63592629185E+02  0.47000000000E+01 0. -1.
        -11    1    4    4    0    0  0.45697303476E+01 -0.40852762062E+02 -0.28640177594E+03  0.28933684153E+03  0.00000000000E+00 0.  1.
         12    1    4    4    0    0 -0.49280868971E+02  0.20353751816E+02 -0.30022350789E+03  0.30492135699E+03  0.00000000000E+00 0. -1.
         -5    1    5    5    0  502  0.60758711620E+02  0.23400995484E+02 -0.50077815218E+02  0.82274572040E+02  0.47000000000E+01 0.  1.
         13    1    6    6    0    0  0.57885436029E+01 -0.11951624685E+02  0.27008474465E+02  0.30096615467E+02  0.00000000000E+00 0. -1.
        -14    1    6    6    0    0 -0.61206293482E+02 -0.33771028298E+01 -0.31074822425E+02  0.68725975977E+02  0.00000000000E+00 0.  1.
<mgrwt>
<rscale>  2 0.17279613E+03</rscale>
<asrwt>0</asrwt>
<pdfrwt beam="1">  1       21 0.11541395E-01 0.17281375E+03</pdfrwt>
<pdfrwt beam="2">  1       21 0.11752753E+00 0.17281375E+03</pdfrwt>
<totfact> 0.35373370E+04</totfact>
</mgrwt>
</event>
<event>
12    1  0.1026879E-001  0.2145285E+03  0.7546771E-02  0.1138160E+00
         21   -1    0    0  503  502  0.00000000000E+00  0.00000000000E+00  0.43056538087E+03  0.43056538087E+03  0.00000000000E+00 0.  1.
         21   -1    0    0  501  503 -0.00000000000E+00 -0.00000000000E+00 -0.13730343390E+03  0.13730343390E+03  0.00000000000E+00 0.  1.
          6    2    1    2  501    0 -0.11996448873E+03  0.38145491165E+02  0.12075699253E+02  0.21419075019E+03  0.17287364721E+03 0.  0.
         24    2    3    3    0    0 -0.10417211412E+03  0.78408489134E+02  0.45215503444E+02  0.15950213416E+03  0.79979800704E+02 0.  0.
         -6    2    1    2    0  502  0.11996448873E+03 -0.38145491165E+02  0.28118624772E+03  0.35367806458E+03  0.17371214813E+03 0.  0.
        -24    2    5    5    0    0  0.85773682034E+01 -0.18454855457E+02  0.16510112647E+03  0.19152795780E+03  0.94923251750E+02 0.  0.
          5    1    3    3  501    0 -0.15792374606E+02 -0.40262997969E+02 -0.33139804192E+02  0.54688616028E+02  0.47000000000E+01 0. -1.
        -13    1    4    4    0    0 -0.42404384445E+02 -0.31660969000E+01  0.37830026732E+02  0.56914557999E+02  0.00000000000E+00 0.  1.
         14    1    4    4    0    0 -0.61767729676E+02  0.81574586034E+02  0.73854767126E+01  0.10258757616E+03  0.00000000000E+00 0. -1.
         -5    1    5    5    0  502  0.11138712052E+03 -0.19690635708E+02  0.11608512125E+03  0.16215010678E+03  0.47000000000E+01 0.  1.
         11    1    6    6    0    0  0.11175877377E+02  0.33730018476E+02  0.10998242435E+03  0.11558005039E+03  0.00000000000E+00 0. -1.
        -12    1    6    6    0    0 -0.25985091735E+01 -0.52184873933E+02  0.55118702120E+02  0.75947907415E+02  0.00000000000E+00 0.  1.
<mgrwt>
<rscale>  2 0.21435868E+03</rscale>
<asrwt>0</asrwt>
<pdfrwt beam="1">  1       21 0.66240827E-01 0.21452848E+03</pdfrwt>
<pdfrwt beam="2">  1       21 0.21123605E-01 0.21452848E+03</pdfrwt>
<totfact> 0.43104786E+04</totfact>
</mgrwt>
</event>
<event>
12    1  0.1026879E-001  0.2418354E+03  0.7546771E-02  0.1118968E+00
         21   -1    0    0  501  502  0.00000000000E+00  0.00000000000E+00  0.34878599202E+03  0.34878599202E+03  0.00000000000E+00 0.  1.
         21   -1    0    0  502  503 -0.00000000000E+00 -0.00000000000E+00 -0.23904821660E+03  0.23904821660E+03  0.00000000000E+00 0. -1.
         -6    2    1    2    0  503  0.16756395459E+03  0.23488341681E+02  0.21747786033E+03  0.32523990025E+03  0.17278597139E+03 0.  0.
        -24    2    3    3    0    0  0.15023975435E+03  0.49844753550E+02  0.10091991023E+03  0.20439854106E+03  0.80854511691E+02 0.  0.
          6    2    1    2  501    0 -0.16756395459E+03 -0.23488341681E+02 -0.10774008491E+03  0.26259430837E+03  0.16946522895E+03 0.  0.
         24    2    5    5    0    0 -0.67876108311E+02 -0.24140590328E+02  0.82367691608E+01  0.10958838430E+03  0.82169552911E+02 0.  0.
          5    1    5    5  501    0 -0.99687846277E+02  0.65224864757E+00 -0.11597685407E+03  0.15300592408E+03  0.47000000000E+01 0. -1.
        -11    1    6    6    0    0 -0.65329709969E+00 -0.32645776626E+02  0.23378077825E+02  0.40158536470E+02  0.00000000000E+00 0.  1.
         12    1    6    6    0    0 -0.67222811212E+02  0.85051862975E+01 -0.15141308664E+02  0.69429847827E+02  0.00000000000E+00 0. -1.
         -5    1    3    3    0  503  0.17324200234E+02 -0.26356411870E+02  0.11655795010E+03  0.12084135919E+03  0.47000000000E+01 0.  1.
         11    1    4    4    0    0  0.26962361764E+02  0.43110981904E+02  0.11987664597E+02  0.52242031116E+02  0.00000000000E+00 0. -1.
        -12    1    4    4    0    0  0.12327739259E+03  0.67337716463E+01  0.88932245632E+02  0.15215650994E+03  0.00000000000E+00 0.  1.
<mgrwt>
<rscale>  2 0.24124292E+03</rscale>
<asrwt>0</asrwt>
<pdfrwt beam="1">  1       21 0.53659383E-01 0.24183543E+03</pdfrwt>
<pdfrwt beam="2">  1       21 0.36776649E-01 0.24183543E+03</pdfrwt>
<totfact> 0.22816721E+04</totfact>
</mgrwt>
</event>
<event>
12    1  0.1026879E-001  0.2274710E+03  0.7546771E-02  0.1128518E+00
         21   -1    0    0  501  502  0.00000000000E+00  0.00000000000E+00  0.29912627514E+02  0.29912627514E+02  0.00000000000E+00 0. -1.
         21   -1    0    0  502  503 -0.00000000000E+00 -0.00000000000E+00 -0.23114093564E+04  0.23114093564E+04  0.00000000000E+00 0. -1.
         -6    2    1    2    0  503  0.14633750146E+03  0.19681666614E+02 -0.17289120918E+04  0.17437495480E+04  0.17240485061E+03 0.  0.
        -24    2    3    3    0    0  0.40086908214E+02  0.44961622553E+02 -0.11637170829E+04  0.11680797183E+04  0.80896671617E+02 0.  0.
          6    2    1    2  501    0 -0.14633750146E+03 -0.19681666614E+02 -0.55258463708E+03  0.59757243594E+03  0.17303468649E+03 0.  0.
         24    2    5    5    0    0 -0.26474902924E+02 -0.55626023879E+02 -0.22213422075E+03  0.24419076268E+03  0.80562655941E+02 0.  0.
          5    1    5    5  501    0 -0.11986259854E+03  0.35944357264E+02 -0.33045041633E+03  0.35338167326E+03  0.47000000000E+01 0. -1.
        -13    1    6    6    0    0 -0.45289079775E+02 -0.41507755966E+02 -0.83995318284E+02  0.10406348085E+03  0.00000000000E+00 0.  1.
         14    1    6    6    0    0  0.18814176851E+02 -0.14118267913E+02 -0.13813890247E+03  0.14012728184E+03  0.00000000000E+00 0. -1.
         -5    1    3    3    0  503  0.10625059325E+03 -0.25279955939E+02 -0.56519500891E+03  0.57566982971E+03  0.47000000000E+01 0.  1.
         13    1    4    4    0    0  0.58348553436E+02  0.47431714027E+02 -0.70628218133E+03  0.71027377880E+03  0.00000000000E+00 0. -1.
        -14    1    4    4    0    0 -0.18261645221E+02 -0.24700914740E+01 -0.45743490157E+03  0.45780593947E+03  0.00000000000E+00 0.  1.
<mgrwt>
<rscale>  2 0.22735117E+03</rscale>
<asrwt>0</asrwt>
<pdfrwt beam="1">  1       21 0.46019438E-02 0.22747095E+03</pdfrwt>
<pdfrwt beam="2">  1       21 0.35560135E+00 0.22747095E+03</pdfrwt>
<totfact> 0.48102093E+03</totfact>
</mgrwt>
</event>
<event>
12    1  0.1026879E-001  0.2129842E+03  0.7546771E-02  0.1139420E+00
         21   -1    0    0  503  502  0.00000000000E+00  0.00000000000E+00  0.16888805597E+03  0.16888805597E+03  0.00000000000E+00 0.  1.
         21   -1    0    0  501  503 -0.00000000000E+00 -0.00000000000E+00 -0.27431014160E+03  0.27431014160E+03  0.00000000000E+00 0.  1.
          6    2    1    2  501    0 -0.11538937624E+03 -0.46984853530E+02 -0.17245324332E+02  0.21268270554E+03  0.17150582326E+03 0.  0.
         24    2    3    3    0    0 -0.13106220522E+03 -0.63377730904E+02  0.20906132090E+02  0.16805101698E+03  0.81302149653E+02 0.  0.
         -6    2    1    2    0  502  0.11538937624E+03  0.46984853530E+02 -0.88176761299E+02  0.23051549204E+03  0.17274248529E+03 0.  0.
        -24    2    5    5    0    0  0.64998722363E+02  0.43057565578E+02  0.16455917553E+02  0.11421962335E+03  0.81832373021E+02 0.  0.
          5    1    3    3  501    0  0.15672828972E+02  0.16392877373E+02 -0.38151456422E+02  0.44631688560E+02  0.47000000000E+01 0. -1.
        -13    1    4    4    0    0 -0.55554363493E+02  0.82909806866E+01 -0.14637642379E+02  0.58045570359E+02  0.00000000000E+00 0.  1.
         14    1    4    4    0    0 -0.75507841723E+02 -0.71668711590E+02  0.35543774469E+02  0.11000544662E+03  0.00000000000E+00 0. -1.
         -5    1    5    5    0  502  0.50390653881E+02  0.39272879528E+01 -0.10463267885E+03  0.11629586868E+03  0.47000000000E+01 0.  1.
         13    1    6    6    0    0 -0.50958054363E+01  0.24216029669E+02 -0.21078061795E+02  0.32506430364E+02  0.00000000000E+00 0. -1.
        -14    1    6    6    0    0  0.70094527799E+02  0.18841535909E+02  0.37533979348E+02  0.81713192989E+02  0.00000000000E+00 0.  1.
<mgrwt>
<rscale>  2 0.21273327E+03</rscale>
<asrwt>0</asrwt>
<pdfrwt beam="1">  1       21 0.25982778E-01 0.21298416E+03</pdfrwt>
<pdfrwt beam="2">  1       21 0.42201560E-01 0.21298416E+03</pdfrwt>
<totfact> 0.75359804E+04</totfact>
</mgrwt>
</event>
<event>
12    1  0.1026879E-001  0.1978484E+03  0.7546771E-02  0.1151752E+00
         21   -1    0    0  501  502  0.00000000000E+00  0.00000000000E+00  0.91758493254E+03  0.91758493254E+03  0.00000000000E+00 0.  1.
         21   -1    0    0  502  503 -0.00000000000E+00 -0.00000000000E+00 -0.47094617795E+02  0.47094617795E+02  0.00000000000E+00 0. -1.
         -6    2    1    2    0  503 -0.67212309343E+02 -0.67610532608E+02  0.28502113699E+03  0.34695973068E+03  0.17336472401E+03 0.  0.
        -24    2    3    3    0    0 -0.11147064171E+03 -0.54396786934E+02  0.19405864619E+03  0.24483398568E+03  0.83067490573E+02 0.  0.
          6    2    1    2  501    0  0.67212309343E+02  0.67610532608E+02  0.58546917775E+03  0.61771981965E+03  0.17238021595E+03 0.  0.
         24    2    5    5    0    0  0.44091837101E+02 -0.26781382442E+02  0.35699414878E+03  0.36939076633E+03  0.79645360447E+02 0.  0.
          5    1    5    5  501    0  0.23120472242E+02  0.94391915049E+02  0.22847502897E+03  0.24832905332E+03  0.47000000000E+01 0. -1.
        -11    1    6    6    0    0  0.39229637995E+02 -0.21687297118E+02  0.35921949409E+03  0.36200545339E+03  0.00000000000E+00 0.  1.
         12    1    6    6    0    0  0.48621991062E+01 -0.50940853241E+01 -0.22253453064E+01  0.73853129364E+01  0.00000000000E+00 0. -1.
         -5    1    3    3    0  503  0.44258332366E+02 -0.13213745674E+02  0.90962490800E+02  0.10212574500E+03  0.47000000000E+01 0.  1.
         13    1    4    4    0    0 -0.59393325459E+02 -0.63206512149E+02  0.75298879841E+02  0.11485883332E+03  0.00000000000E+00 0. -1.
        -14    1    4    4    0    0 -0.52077316250E+02  0.88097252157E+01  0.11875976635E+03  0.12997515236E+03  0.00000000000E+00 0.  1.
<mgrwt>
<rscale>  2 0.19763256E+03</rscale>
<asrwt>0</asrwt>
<pdfrwt beam="1">  1       21 0.14116690E+00 0.19784844E+03</pdfrwt>
<pdfrwt beam="2">  1       21 0.72453265E-02 0.19784844E+03</pdfrwt>
<totfact> 0.49770253E+04</totfact>
</mgrwt>
</event>
<event>
12    1  0.1026879E-001  0.2482837E+03  0.7546771E-02  0.1114528E+00
         21   -1    0    0  501  502  0.00000000000E+00  0.00000000000E+00  0.15070143397E+03  0.15070143397E+03  0.00000000000E+00 0.  1.
         21   -1    0    0  502  503 -0.00000000000E+00 -0.00000000000E+00 -0.41786764452E+03  0.41786764452E+03  0.00000000000E+00 0. -1.
         -6    2    1    2    0  503 -0.15186918187E+03 -0.92093244322E+02 -0.17820085428E+03  0.30561465796E+03  0.17349167313E+03 0.  0.
        -24    2    3    3    0    0 -0.58033798816E+02 -0.85042344402E+02 -0.37227525792E+02  0.13605533605E+03  0.80777742261E+02 0.  0.
          6    2    1    2  501    0  0.15186918187E+03  0.92093244322E+02 -0.88965356263E+02  0.26295442053E+03  0.17229271200E+03 0.  0.
         24    2    5    5    0    0  0.37364536241E+02 -0.69775613613E+01 -0.63214213977E+02  0.10929391897E+03  0.80649419990E+02 0.  0.
          5    1    5    5  501    0  0.11450464563E+03  0.99070805683E+02 -0.25751142286E+02  0.15366050155E+03  0.47000000000E+01 0. -1.
        -13    1    6    6    0    0 -0.23865983949E+02  0.29121440987E+01 -0.31514280627E+02  0.39638562745E+02  0.00000000000E+00 0.  1.
         14    1    6    6    0    0  0.61230520190E+02 -0.98897054599E+01 -0.31699933350E+02  0.69655356228E+02  0.00000000000E+00 0. -1.
         -5    1    3    3    0  503 -0.93835383053E+02 -0.70508999192E+01 -0.14097332849E+03  0.16955932191E+03  0.47000000000E+01 0.  1.
         13    1    4    4    0    0 -0.46482400202E+01 -0.38598193007E+02 -0.50836090455E+02  0.63997927556E+02  0.00000000000E+00 0. -1.
        -14    1    4    4    0    0 -0.53385558796E+02 -0.46444151395E+02  0.13608564663E+02  0.72057408495E+02  0.00000000000E+00 0.  1.
<mgrwt>
<rscale>  2 0.24807432E+03</rscale>
<asrwt>0</asrwt>
<pdfrwt beam="1">  1       21 0.23184836E-01 0.24828366E+03</pdfrwt>
<pdfrwt beam="2">  1       21 0.64287330E-01 0.24828366E+03</pdfrwt>
<totfact> 0.37997166E+04</totfact>
</mgrwt>
</event>
<event>
12    1  0.1026879E-001  0.2258150E+03  0.7546771E-02  0.1129829E+00
         21   -1    0    0  501  502  0.00000000000E+00  0.00000000000E+00  0.15095197241E+04  0.15095197241E+04  0.00000000000E+00 0.  1.
         21   -1    0    0  502  503 -0.00000000000E+00 -0.00000000000E+00 -0.46283737821E+02  0.46283737821E+02  0.00000000000E+00 0. -1.
         -6    2    1    2    0  503 -0.14428386670E+03  0.82704496397E+01  0.32588650138E+03  0.39647751388E+03  0.17351130424E+03 0.  0.
        -24    2    3    3    0    0 -0.72363877076E+02  0.49896002864E+02  0.27187400569E+03  0.29725749937E+03  0.81978071174E+02 0.  0.
          6    2    1    2  501    0  0.14428386670E+03 -0.82704496397E+01  0.11373494849E+04  0.11593259480E+04  0.17200746637E+03 0.  0.
         24    2    5    5    0    0  0.85522784880E+02  0.40978254387E+02  0.35546957149E+03  0.37368188832E+03  0.65468873063E+02 0.  0.
          5    1    5    5  501    0  0.58761081815E+02 -0.49248704027E+02  0.78187991337E+03  0.78564405968E+03  0.47000000000E+01 0. -1.
        -13    1    6    6    0    0  0.53456773537E+02  0.57823706798E+02  0.25500020698E+03  0.26688258329E+03  0.00000000000E+00 0.  1.
         14    1    6    6    0    0  0.32066011343E+02 -0.16845452410E+02  0.10046936451E+03  0.10679930504E+03  0.00000000000E+00 0. -1.
         -5    1    3    3    0  503 -0.71919989619E+02 -0.41625553224E+02  0.54012495693E+02  0.99220014509E+02  0.47000000000E+01 0.  1.
         11    1    4    4    0    0 -0.19270802379E+02  0.43062769863E+02  0.21093095458E+03  0.21614262322E+03  0.00000000000E+00 0. -1.
        -12    1    4    4    0    0 -0.53093074697E+02  0.68332330008E+01  0.60943051115E+02  0.81114876152E+02  0.00000000000E+00 0.  1.
<mgrwt>
<rscale>  2 0.22552607E+03</rscale>
<asrwt>0</asrwt>
<pdfrwt beam="1">  1       21 0.23223377E+00 0.22581498E+03</pdfrwt>
<pdfrwt beam="2">  1       21 0.71205762E-02 0.22581498E+03</pdfrwt>
<totfact> 0.12108953E+04</totfact>
</mgrwt>
</event>
<event>
12    1  0.1026879E-001  0.2313027E+03  0.7546771E-02  0.1125846E+00
         21   -1    0    0  503  502  0.00000000000E+00  0.00000000000E+00  0.15113071864E+03  0.15113071864E+03  0.00000000000E+00 0. -1.
         21   -1    0    0  501  503 -0.00000000000E+00 -0.00000000000E+00 -0.47481605079E+03  0.47481605079E+03  0.00000000000E+00 0. -1.
          6    2    1    2  501    0  0.56036204267E+02 -0.14103878472E+03 -0.32021610557E+03  0.39461808898E+03  0.17364644222E+03 0.  0.
         24    2    3    3    0    0  0.40794920660E+01 -0.12085305130E+03 -0.13401929183E+03  0.20020022142E+03  0.86584385493E+02 0.  0.
         -6    2    1    2    0  502 -0.56036204267E+02  0.14103878472E+03 -0.34692265796E+01  0.23132868045E+03  0.17455351008E+03 0.  0.
        -24    2    5    5    0    0  0.13710501746E+02  0.10869659584E+03  0.41410493522E+02  0.14218329663E+03  0.80612238897E+02 0.  0.
          5    1    3    3  501    0  0.51956712201E+02 -0.20185733423E+02 -0.18619681374E+03  0.19441786755E+03  0.47000000000E+01 0. -1.
        -13    1    4    4    0    0  0.18931294192E+02 -0.28657833920E+01  0.23187783339E+01  0.19286869813E+02  0.00000000000E+00 0.  1.
         14    1    4    4    0    0 -0.14851802126E+02 -0.11798726791E+03 -0.13633807016E+03  0.18091335161E+03  0.00000000000E+00 0. -1.
         -5    1    5    5    0  502 -0.69746706014E+02  0.32342188882E+02 -0.44879720102E+02  0.89145383828E+02  0.47000000000E+01 0.  1.
         13    1    6    6    0    0  0.29889126616E+02  0.46243054231E+01  0.14145079023E+02  0.33389030401E+02  0.00000000000E+00 0. -1.
        -14    1    6    6    0    0 -0.16178624870E+02  0.10407229042E+03  0.27265414499E+02  0.10879426623E+03  0.00000000000E+00 0.  1.
<mgrwt>
<rscale>  2 0.23113154E+03</rscale>
<asrwt>0</asrwt>
<pdfrwt beam="1">  1       21 0.23250880E-01 0.23130267E+03</pdfrwt>
<pdfrwt beam="2">  1       21 0.73048623E-01 0.23130267E+03</pdfrwt>
<totfact> 0.28718876E+04</totfact>
</mgrwt>
</event>
<event>
12    1  0.1026879E-001  0.4669460E+03  0.7546771E-02  0.1022929E+00
         21   -1    0    0  501  502  0.00000000000E+00  0.00000000000E+00  0.39198021896E+03  0.39198021896E+03  0.00000000000E+00 0.  1.
         21   -1    0    0  502  503 -0.00000000000E+00 -0.00000000000E+00 -0.61632330132E+03  0.61632330132E+03  0.00000000000E+00 0. -1.
         -6    2    1    2    0  503 -0.37093806001E+03 -0.22496217545E+03 -0.27288481181E+03  0.54083705183E+03  0.17272976399E+03 0.  0.
        -24    2    3    3    0    0 -0.23219286609E+03 -0.10688204783E+03 -0.23130903886E+03  0.35390449642E+03  0.80045124262E+02 0.  0.
          6    2    1    2  501    0  0.37093806001E+03  0.22496217545E+03  0.48541729459E+02  0.46746646845E+03  0.16722910893E+03 0.  0.
         24    2    5    5    0    0  0.11792783271E+03  0.60584892401E+02  0.58563026424E+02  0.16554498413E+03  0.79987566473E+02 0.  0.
          5    1    5    5  501    0  0.25301022730E+03  0.16437728305E+03 -0.10021296964E+02  0.30192148432E+03  0.47000000000E+01 0. -1.
        -13    1    6    6    0    0  0.10508955221E+02  0.28601357251E+02 -0.12391241312E+02  0.32894051707E+02  0.00000000000E+00 0.  1.
         14    1    6    6    0    0  0.10741887749E+03  0.31983535150E+02  0.70954267735E+02  0.13265093242E+03  0.00000000000E+00 0. -1.
         -5    1    3    3    0  503 -0.13874519392E+03 -0.11808012762E+03 -0.41575772952E+02  0.18693255541E+03  0.47000000000E+01 0.  1.
         11    1    4    4    0    0 -0.17896300764E+03 -0.80391574755E+02 -0.12659714686E+03  0.23348961645E+03  0.00000000000E+00 0. -1.
        -12    1    4    4    0    0 -0.53229858457E+02 -0.26490473077E+02 -0.10471189199E+03  0.12041487998E+03  0.00000000000E+00 0.  1.
<mgrwt>
<rscale>  2 0.46644355E+03</rscale>
<asrwt>0</asrwt>
<pdfrwt beam="1">  1       21 0.60304649E-01 0.46694603E+03</pdfrwt>
<pdfrwt beam="2">  1       21 0.94818969E-01 0.46694603E+03</pdfrwt>
<totfact> 0.20462773E+03</totfact>
</mgrwt>
</event>
<event>
12    1  0.1026879E-001  0.2118104E+03  0.7546771E-02  0.1140446E+00
         21   -1    0    0  503  502  0.00000000000E+00  0.00000000000E+00  0.41577503235E+03  0.41577503235E+03  0.00000000000E+00 0.  1.
         21   -1    0    0  501  503 -0.00000000000E+00 -0.00000000000E+00 -0.11948408914E+03  0.11948408914E+03  0.00000000000E+00 0.  1.
          6    2    1    2  501    0 -0.11350063913E+03 -0.45996396942E+02  0.62515403649E+02  0.22084339838E+03  0.17281657125E+03 0.  0.
         24    2    3    3    0    0 -0.10954505682E+03 -0.79219541983E+02  0.88324906114E+01  0.15741336487E+03  0.80156716775E+02 0.  0.
         -6    2    1    2    0  502  0.11350063913E+03  0.45996396942E+02  0.23377553956E+03  0.31441572311E+03  0.17090400939E+03 0.  0.
        -24    2    5    5    0    0 -0.17267926166E+01 -0.12914941134E+02  0.90879801446E+02  0.12157073678E+03  0.79690201489E+02 0.  0.
          5    1    3    3  501    0 -0.39555823064E+01  0.33223145042E+02  0.53682913037E+02  0.63430033501E+02  0.47000000000E+01 0. -1.
        -13    1    4    4    0    0 -0.85317623235E+02 -0.27094706810E+02  0.32524325516E+02  0.95242069076E+02  0.00000000000E+00 0.  1.
         14    1    4    4    0    0 -0.24227433589E+02 -0.52124835173E+02 -0.23691834905E+02  0.62171295798E+02  0.00000000000E+00 0. -1.
         -5    1    5    5    0  502  0.11522743175E+03  0.58911338076E+02  0.14289573812E+03  0.19284498633E+03  0.47000000000E+01 0.  1.
         11    1    6    6    0    0 -0.10839822955E+02  0.26231979127E+02  0.71542879319E+02  0.76967539079E+02  0.00000000000E+00 0. -1.
        -12    1    6    6    0    0  0.91130303380E+01 -0.39146920261E+02  0.19336922126E+02  0.44603197702E+02  0.00000000000E+00 0.  1.
<mgrwt>
<rscale>  2 0.21141990E+03</rscale>
<asrwt>0</asrwt>
<pdfrwt beam="1">  1       21 0.63965389E-01 0.21181037E+03</pdfrwt>
<pdfrwt beam="2">  1       21 0.18382168E-01 0.21181037E+03</pdfrwt>
<totfact> 0.60406713E+04</totfact>
</mgrwt>
</event>
<event>
12    1  0.1026879E-001  0.2278129E+03  0.7546771E-02  0.1128254E+00
         21   -1    0    0  501  502  0.00000000000E+00  0.00000000000E+00  0.11681519523E+03  0.11681519523E+03  0.00000000000E+00 0. -1.
         21   -1    0    0  502  503 -0.00000000000E+00 -0.00000000000E+00 -0.12510954310E+04  0.12510954310E+04  0.00000000000E+00 0. -1.
         -6    2    1    2    0  503 -0.14797072737E+03 -0.13723042928E+02 -0.11164702479E+04  0.11394025770E+04  0.17218815294E+03 0.  0.
        -24    2    3    3    0    0 -0.13814683676E+02 -0.34868999888E+02 -0.54283788848E+03  0.54989331557E+03  0.79391389385E+02 0.  0.
          6    2    1    2  501    0  0.14797072737E+03  0.13723042928E+02 -0.17809987864E+02  0.22850804921E+03  0.17267042254E+03 0.  0.
         24    2    5    5    0    0  0.34491333572E+02 -0.45807336746E+02 -0.20496550684E+02  0.10024758554E+03  0.79633570974E+02 0.  0.
          5    1    5    5  501    0  0.11347939379E+03  0.59530379674E+02  0.26865628202E+01  0.12826046367E+03  0.47000000000E+01 0. -1.
        -13    1    6    6    0    0 -0.86224793342E+00 -0.17525790662E+02  0.28542737806E+02  0.33504995020E+02  0.00000000000E+00 0.  1.
         14    1    6    6    0    0  0.35353581506E+02 -0.28281546084E+02 -0.49039288490E+02  0.66742590524E+02  0.00000000000E+00 0. -1.
         -5    1    3    3    0  503 -0.13415604369E+03  0.21145956961E+02 -0.57363235941E+03  0.58950926143E+03  0.47000000000E+01 0.  1.
         13    1    4    4    0    0 -0.44549062638E+02 -0.30327987593E+02 -0.27266083900E+03  0.27793585400E+03  0.00000000000E+00 0. -1.
        -14    1    4    4    0    0  0.30734378962E+02 -0.45410122947E+01 -0.27017704947E+03  0.27195746157E+03  0.00000000000E+00 0.  1.
<mgrwt>
<rscale>  2 0.22772155E+03</rscale>
<asrwt>0</asrwt>
<pdfrwt beam="1">  1       21 0.17971568E-01 0.22781293E+03</pdfrwt>
<pdfrwt beam="2">  1       21 0.19247622E+00 0.22781293E+03</pdfrwt>
<totfact> 0.41010895E+03</totfact>
</mgrwt>
</event>
<event>
12    1  0.1026879E-001  0.1942974E+03  0.7546771E-02  0.1154798E+00
         21   -1    0    0  503  502  0.00000000000E+00  0.00000000000E+00  0.10160277691E+04  0.10160277691E+04  0.00000000000E+00 0. -1.
         21   -1    0    0  501  503 -0.00000000000E+00 -0.00000000000E+00 -0.34518133235E+03  0.34518133235E+03  0.00000000000E+00 0. -1.
          6    2    1    2  501    0 -0.53591387222E+02 -0.69040384420E+02 -0.30771587226E+03  0.36354399432E+03  0.17273264399E+03 0.  0.
         24    2    3    3    0    0 -0.71058408493E+02 -0.93615792681E+02 -0.17274000097E+03  0.22516183017E+03  0.83937642176E+02 0.  0.
         -6    2    1    2    0  502  0.53591387222E+02  0.69040384420E+02  0.97856230897E+03  0.99766510709E+03  0.17353057912E+03 0.  0.
        -24    2    5    5    0    0  0.61517575509E+02 -0.18677760785E+02  0.60719685968E+03  0.61596930623E+03  0.81221234755E+02 0.  0.
          5    1    3    3  501    0  0.17467021271E+02  0.24575408261E+02 -0.13497587129E+03  0.13838216415E+03  0.47000000000E+01 0. -1.
        -13    1    4    4    0    0 -0.59441650483E+02 -0.10953024190E+03 -0.14615935355E+03  0.19207483004E+03  0.00000000000E+00 0.  1.
         14    1    4    4    0    0 -0.11616758010E+02  0.15914449221E+02 -0.26580647420E+02  0.33087000135E+02  0.00000000000E+00 0. -1.
         -5    1    5    5    0  502 -0.79261882863E+01  0.87718145204E+02  0.37136544930E+03  0.38169580085E+03  0.47000000000E+01 0.  1.
         11    1    6    6    0    0  0.10170027885E+02  0.30538070476E+02  0.21054034391E+03  0.21298647758E+03  0.00000000000E+00 0. -1.
        -12    1    6    6    0    0  0.51347547623E+02 -0.49215831261E+02  0.39665651576E+03  0.40298282866E+03  0.00000000000E+00 0.  1.
<mgrwt>
<rscale>  2 0.19411906E+03</rscale>
<asrwt>0</asrwt>
<pdfrwt beam="1">  1       21 0.15631196E+00 0.19429738E+03</pdfrwt>
<pdfrwt beam="2">  1       21 0.53104821E-01 0.19429738E+03</pdfrwt>
<totfact> 0.89848511E+02</totfact>
</mgrwt>
</event>
<event>
12    1  0.1026879E-001  0.1744797E+03  0.7546771E-02  0.1173483E+00
         21   -1    0    0  501  502  0.00000000000E+00  0.00000000000E+00  0.66958270264E+02  0.66958270264E+02  0.00000000000E+00 0.  1.
         21   -1    0    0  502  503 -0.00000000000E+00 -0.00000000000E+00 -0.56608760608E+03  0.56608760608E+03  0.00000000000E+00 0.  1.
         -6    2    1    2    0  503 -0.11544739102E+02 -0.17207708909E+02 -0.39198115875E+03  0.42905988402E+03  0.17324482392E+03 0.  0.
        -24    2    3    3    0    0 -0.49676308121E+02 -0.55029749114E+02 -0.30840485203E+03  0.32960329889E+03  0.89603420735E+02 0.  0.
          6    2    1    2  501    0  0.11544739102E+02  0.17207708909E+02 -0.10714817707E+03  0.20398599232E+03  0.17233736382E+03 0.  0.
         24    2    5    5    0    0  0.46557880546E+01 -0.47777911773E+02 -0.22822466256E+02  0.97198801867E+02  0.81377742059E+02 0.  0.
          5    1    5    5  501    0  0.68889510475E+01  0.64985620681E+02 -0.84325710811E+02  0.10678719046E+03  0.47000000000E+01 0. -1.
        -11    1    6    6    0    0  0.42146412306E+02 -0.17533013981E+02 -0.53588584373E+01  0.45961331718E+02  0.00000000000E+00 0.  1.
         12    1    6    6    0    0 -0.37490624252E+02 -0.30244897791E+02 -0.17463607819E+02  0.51237470149E+02  0.00000000000E+00 0. -1.
         -5    1    3    3    0  503  0.38131569019E+02  0.37822040205E+02 -0.83576306724E+02  0.99456585135E+02  0.47000000000E+01 0.  1.
         13    1    4    4    0    0 -0.40982395677E+02  0.15645215758E+02 -0.95178271572E+02  0.10480092037E+03  0.00000000000E+00 0. -1.
        -14    1    4    4    0    0 -0.86939124446E+01 -0.70674964872E+02 -0.21322658045E+03  0.22480237851E+03  0.00000000000E+00 0.  1.
<mgrwt>
<rscale>  2 0.17425398E+03</rscale>
<asrwt>0</asrwt>
<pdfrwt beam="1">  1       21 0.10301272E-01 0.17447967E+03</pdfrwt>
<pdfrwt beam="2">  1       21 0.87090400E-01 0.17447967E+03</pdfrwt>
<totfact> 0.87930132E+04</totfact>
</mgrwt>
</event>
<event>
12    1  0.1026879E-001  0.1820738E+03  0.7546771E-02  0.1166294E+00
         21   -1    0    0  503  502  0.00000000000E+00  0.00000000000E+00  0.75548937862E+02  0.75548937862E+02  0.00000000000E+00 0. -1.
         21   -1    0    0  501  503 -0.00000000000E+00 -0.00000000000E+00 -0.73772755281E+03  0.73772755281E+03  0.00000000000E+00 0. -1.
          6    2    1    2  501    0  0.32214566933E+02 -0.45390698835E+02 -0.71240327034E+02  0.19551484158E+03  0.17335736275E+03 0.  0.
         24    2    3    3    0    0 -0.28247779209E+02 -0.62559476973E+02 -0.77596355143E+02  0.13216698181E+03  0.82068822097E+02 0.  0.
         -6    2    1    2    0  502 -0.32214566933E+02  0.45390698835E+02 -0.59093828792E+03  0.61776164909E+03  0.17124047741E+03 0.  0.
        -24    2    5    5    0    0  0.11400350581E+01 -0.17766240187E+02 -0.46641656856E+03  0.47413338930E+03  0.83313362978E+02 0.  0.
          5    1    3    3  501    0  0.60462346142E+02  0.17168778138E+02  0.63560281096E+01  0.63347859767E+02  0.47000000000E+01 0. -1.
        -13    1    4    4    0    0  0.28540564780E+02 -0.29279775356E+02 -0.25130915756E+02  0.47994083069E+02  0.00000000000E+00 0.  1.
         14    1    4    4    0    0 -0.56788343990E+02 -0.33279701618E+02 -0.52465439387E+02  0.84172898744E+02  0.00000000000E+00 0. -1.
         -5    1    5    5    0  502 -0.33354601991E+02  0.63156939022E+02 -0.12452171936E+03  0.14362825980E+03  0.47000000000E+01 0.  1.
         11    1    6    6    0    0 -0.32840827862E+02 -0.33258579107E+02 -0.29646888371E+03  0.30013072496E+03  0.00000000000E+00 0. -1.
        -12    1    6    6    0    0  0.33980862920E+02  0.15492338921E+02 -0.16994768485E+03  0.17400266434E+03  0.00000000000E+00 0.  1.
<mgrwt>
<rscale>  2 0.18156810E+03</rscale>
<asrwt>0</asrwt>
<pdfrwt beam="1">  1       21 0.11622913E-01 0.18207380E+03</pdfrwt>
<pdfrwt beam="2">  1       21 0.11349655E+00 0.18207380E+03</pdfrwt>
<totfact> 0.37827212E+04</totfact>
</mgrwt>
</event>
<event>
12    1  0.1026879E-001  0.4221678E+03  0.7546771E-02  0.1036461E+00
         21   -1    0    0  501  502  0.00000000000E+00  0.00000000000E+00  0.17667822038E+03  0.17667822038E+03  0.00000000000E+00 0. -1.
         21   -1    0    0  502  503 -0.00000000000E+00 -0.00000000000E+00 -0.11064160025E+04  0.11064160025E+04  0.00000000000E+00 0.  1.
         -6    2    1    2    0  503  0.27508853262E+03 -0.27005567455E+03 -0.65886909668E+03  0.78251782488E+03  0.17211011463E+03 0.  0.
        -24    2    3    3    0    0  0.18278265803E+03 -0.12354037239E+03 -0.27856459843E+03  0.36461746637E+03  0.81706411014E+02 0.  0.
          6    2    1    2  501    0 -0.27508853262E+03  0.27005567455E+03 -0.27086868547E+03  0.50057639802E+03  0.16912456163E+03 0.  0.
         24    2    5    5    0    0 -0.21305865594E+03  0.27585802816E+03 -0.22208018694E+03  0.42130609779E+03  0.81777601053E+02 0.  0.
          5    1    5    5  501    0 -0.62029876686E+02 -0.58023536146E+01 -0.48788498525E+02  0.79270300223E+02  0.47000000000E+01 0. -1.
        -13    1    6    6    0    0 -0.45011692141E+02  0.63524006442E+02 -0.93122218703E+02  0.12137997957E+03  0.00000000000E+00 0.  1.
         14    1    6    6    0    0 -0.16804696380E+03  0.21233402172E+03 -0.12895796824E+03  0.29992611822E+03  0.00000000000E+00 0. -1.
         -5    1    3    3    0  503  0.92305874597E+02 -0.14651530216E+03 -0.38030449824E+03  0.41790035850E+03  0.47000000000E+01 0.  1.
         11    1    4    4    0    0  0.11038369514E+03 -0.91854855446E+02 -0.11879588432E+03  0.18637150199E+03  0.00000000000E+00 0. -1.
        -12    1    4    4    0    0  0.72398962883E+02 -0.31685516942E+02 -0.15976871411E+03  0.17824596439E+03  0.00000000000E+00 0.  1.
<mgrwt>
<rscale>  2 0.42186540E+03</rscale>
<asrwt>0</asrwt>
<pdfrwt beam="1">  1       21 0.27181265E-01 0.42216781E+03</pdfrwt>
<pdfrwt beam="2">  1       21 0.17021784E+00 0.42216781E+03</pdfrwt>
<totfact> 0.23722568E+03</totfact>
</mgrwt>
</event>
<event>
12    1  0.1026879E-001  0.1863438E+03  0.7546771E-02  0.1162049E+00
         21   -1    0    0  501  502  0.00000000000E+00  0.00000000000E+00  0.15857590161E+03  0.15857590161E+03  0.00000000000E+00 0.  1.
         21   -1    0    0  502  503 -0.00000000000E+00 -0.00000000000E+00 -0.28959508858E+03  0.28959508858E+03  0.00000000000E+00 0.  1.
         -6    2    1    2    0  503  0.31436935353E+02  0.59255363982E+02 -0.17729050488E+03  0.25720796124E+03  0.17385204382E+03 0.  0.
        -24    2    3    3    0    0  0.13539227531E+02  0.97543258716E+02 -0.78178824358E+02  0.14935850114E+03  0.80610391900E+02 0.  0.
          6    2    1    2  501    0 -0.31436935353E+02 -0.59255363982E+02  0.46271317912E+02  0.19096302895E+03  0.17270311085E+03 0.  0.
         24    2    5    5    0    0 -0.55607131576E+02 -0.76115155620E+02  0.78649413790E+02  0.14693029053E+03  0.80728619396E+02 0.  0.
          5    1    5    5  501    0  0.24170196223E+02  0.16859791638E+02 -0.32378095878E+02  0.44032738414E+02  0.47000000000E+01 0. -1.
        -11    1    6    6    0    0 -0.53178209773E+01  0.16122491571E+02  0.24581217737E+01  0.17153900928E+02  0.00000000000E+00 0.  1.
         12    1    6    6    0    0 -0.50289310599E+02 -0.92237647191E+02  0.76191292016E+02  0.12977638961E+03  0.00000000000E+00 0. -1.
         -5    1    3    3    0  503  0.17897707822E+02 -0.38287894734E+02 -0.99111680523E+02  0.10784946010E+03  0.47000000000E+01 0.  1.
         11    1    4    4    0    0  0.48211531038E+01  0.77914000004E+02 -0.94361684172E+02  0.12246616820E+03  0.00000000000E+00 0. -1.
        -12    1    4    4    0    0  0.87180744272E+01  0.19629258712E+02  0.16182859814E+02  0.26892332942E+02  0.00000000000E+00 0.  1.
<mgrwt>
<rscale>  2 0.18607536E+03</rscale>
<asrwt>0</asrwt>
<pdfrwt beam="1">  1       21 0.24396293E-01 0.18634380E+03</pdfrwt>
<pdfrwt beam="2">  1       21 0.44553090E-01 0.18634380E+03</pdfrwt>
<totfact> 0.76954940E+04</totfact>
</mgrwt>
</event>
<event>
12    1  0.1026879E-001  0.2962762E+03  0.7546771E-02  0.1087288E+00
         21   -1    0    0  501  502  0.00000000000E+00  0.00000000000E+00  0.90825332861E+03  0.90825332861E+03  0.00000000000E+00 0. -1.
         21   -1    0    0  502  503 -0.00000000000E+00 -0.00000000000E+00 -0.15772791007E+03  0.15772791007E+03  0.00000000000E+00 0.  1.
         -6    2    1    2    0  503  0.22589983428E+03  0.78272434954E+02  0.41880248903E+02  0.29789429007E+03  0.17271289357E+03 0.  0.
        -24    2    3    3    0    0  0.49306282263E+02  0.48814805098E+01 -0.22181423635E+02  0.96158069479E+02  0.79368888419E+02 0.  0.
          6    2    1    2  501    0 -0.22589983428E+03 -0.78272434954E+02  0.70864516963E+03  0.76808694861E+03  0.17499221408E+03 0.  0.
         24    2    5    5    0    0 -0.15187893928E+03  0.16361621448E+02  0.47936343473E+03  0.50919140697E+03  0.78432592174E+02 0.  0.
          5    1    5    5  501    0 -0.74020894999E+02 -0.94634056402E+02  0.22928173490E+03  0.25889554165E+03  0.47000000000E+01 0. -1.
        -13    1    6    6    0    0 -0.13775001090E+02  0.22573325893E+02  0.14474147364E+03  0.14713735042E+03  0.00000000000E+00 0.  1.
         14    1    6    6    0    0 -0.13810393819E+03 -0.62117044449E+01  0.33462196109E+03  0.36205405654E+03  0.00000000000E+00 0. -1.
         -5    1    3    3    0  503  0.17659355202E+03  0.73390954445E+02  0.64061672538E+02  0.20173622059E+03  0.47000000000E+01 0.  1.
         11    1    4    4    0    0 -0.17043085103E+02  0.19211196991E+02 -0.64921422050E+01  0.26489332760E+02  0.00000000000E+00 0. -1.
        -12    1    4    4    0    0  0.66349367366E+02 -0.14329716481E+02 -0.15689281430E+02  0.69668736719E+02  0.00000000000E+00 0.  1.
<mgrwt>
<rscale>  2 0.29594050E+03</rscale>
<asrwt>0</asrwt>
<pdfrwt beam="1">  1       21 0.13973128E+00 0.29627620E+03</pdfrwt>
<pdfrwt beam="2">  1       21 0.24265833E-01 0.29627620E+03</pdfrwt>
<totfact> 0.53785485E+03</totfact>
</mgrwt>
</event>
<event>
12    1  0.1026879E-001  0.2819609E+03  0.7546771E-02  0.1094629E+00
         21   -1    0    0  503  502  0.00000000000E+00  0.00000000000E+00  0.57304920792E+03  0.57304920792E+03  0.00000000000E+00 0. -1.
         21   -1    0    0  501  503 -0.00000000000E+00 -0.00000000000E+00 -0.18921735495E+03  0.18921735495E+03  0.00000000000E+00 0.  1.
          6    2    1    2  501    0  0.14699959262E+03 -0.16774411859E+03 -0.50055601559E+01  0.28195780047E+03  0.17241860706E+03 0.  0.
         24    2    3    3    0    0  0.17116241912E+03 -0.17104678492E+03 -0.13571435112E+02  0.25568587624E+03  0.81470897296E+02 0.  0.
         -6    2    1    2    0  502 -0.14699959262E+03  0.16774411859E+03  0.38883741313E+03  0.48030876241E+03  0.17249638793E+03 0.  0.
        -24    2    5    5    0    0 -0.11162563867E+02  0.37363391592E+02  0.85784728657E+02  0.12349809564E+03  0.79825648093E+02 0.  0.
          5    1    3    3  501    0 -0.24162826497E+02  0.33026663228E+01  0.85658749560E+01  0.26271924234E+02  0.47000000000E+01 0. -1.
        -11    1    4    4    0    0  0.82257358407E+00 -0.34307169397E+02 -0.14488101273E+02  0.37250014468E+02  0.00000000000E+00 0.  1.
         12    1    4    4    0    0  0.17033984554E+03 -0.13673961552E+03  0.91666616117E+00  0.21843586177E+03  0.00000000000E+00 0. -1.
         -5    1    5    5    0  502 -0.13583702876E+03  0.13038072700E+03  0.30305268447E+03  0.35681066677E+03  0.47000000000E+01 0.  1.
         11    1    6    6    0    0 -0.35911877582E+02  0.10685239025E+02  0.77639363765E+02  0.86207355199E+02  0.00000000000E+00 0. -1.
        -12    1    6    6    0    0  0.24749313715E+02  0.26678152566E+02  0.81453648922E+01  0.37290740445E+02  0.00000000000E+00 0.  1.
<mgrwt>
<rscale>  2 0.28194905E+03</rscale>
<asrwt>0</asrwt>
<pdfrwt beam="1">  1       21 0.88161416E-01 0.28196094E+03</pdfrwt>
<pdfrwt beam="2">  1       21 0.29110363E-01 0.28196094E+03</pdfrwt>
<totfact> 0.11827817E+04</totfact>
</mgrwt>
</event>
<event>
11    1  0.1026879E-001  0.2265096E+03  0.7546771E-02  0.1129352E+00
         21   -1    0    0  501  502  0.00000000000E+00  0.00000000000E+00  0.61718566538E+03  0.61718566538E+03  0.00000000000E+00 0. -1.
         21   -1    0    0  502  503 -0.00000000000E+00 -0.00000000000E+00 -0.13880764751E+03  0.13880764751E+03  0.00000000000E+00 0. -1.
         -6    2    1    2    0  503 -0.13551293366E+03 -0.49009419074E+02 -0.16251686653E+01  0.22523002688E+03  0.17309028132E+03 0.  0.
          6    2    1    2  501    0  0.13551293366E+03  0.49009419074E+02  0.48000318654E+03  0.53076328600E+03  0.17475963016E+03 0.  0.
         24    2    4    4    0    0  0.13174708076E+03  0.80839255822E+02  0.29484382183E+03  0.34279147829E+03  0.81736404058E+02 0.  0.
          5    1    4    4  501    0  0.37658529082E+01 -0.31829836748E+02  0.18515936471E+03  0.18797180771E+03  0.47000000000E+01 0. -1.
        -13    1    5    5    0    0  0.58143323199E+02  0.22877302927E+02  0.48073944068E+02  0.78836039475E+02  0.00000000000E+00 0.  1.
         14    1    5    5    0    0  0.73603757556E+02  0.57961952895E+02  0.24676987776E+03  0.26395543882E+03  0.00000000000E+00 0. -1.
         -5    1    3    3    0  503 -0.10068698536E+03 -0.99505273773E+02 -0.24809239745E+02  0.14379414768E+03  0.47000000000E+01 0.  1.
         11    1    3    3    0    0  0.46991544571E+01  0.38531022717E+01 -0.10128642280E+02  0.11811767191E+02  0.00000000000E+00 0. -1.
        -12    1    3    3    0    0 -0.39525102761E+02  0.46642752427E+02  0.33312713360E+02  0.69624112013E+02  0.00000000000E+00 0.  1.
<mgrwt>
<rscale>  2 0.22618757E+03</rscale>
<asrwt>0</asrwt>
<pdfrwt beam="1">  1       21 0.94951639E-01 0.22650962E+03</pdfrwt>
<pdfrwt beam="2">  1       21 0.21355023E-01 0.22650962E+03</pdfrwt>
<totfact> 0.18553601E+04</totfact>
</mgrwt>
</event>
<event>
12    1  0.1026879E-001  0.2307232E+03  0.7546771E-02  0.1126367E+00
         21   -1    0    0  503  502  0.00000000000E+00  0.00000000000E+00  0.37052878144E+03  0.37052878144E+03  0.00000000000E+00 0. -1.
         21   -1    0    0  501  503 -0.00000000000E+00 -0.00000000000E+00 -0.17181526319E+03  0.17181526319E+03  0.00000000000E+00 0. -1.
          6    2    1    2  501    0 -0.14190361261E+03 -0.54267192875E+02  0.21048124700E+03  0.31132091547E+03  0.17186271724E+03 0.  0.
         24    2    3    3    0    0 -0.15711686234E+03 -0.17257476825E+02  0.12492455093E+03  0.21675242023E+03  0.79949604834E+02 0.  0.
         -6    2    1    2    0  502  0.14190361261E+03  0.54267192875E+02 -0.11767728748E+02  0.23102312916E+03  0.17364228539E+03 0.  0.
        -24    2    5    5    0    0  0.12614046717E+03  0.90979015496E+02 -0.42822315733E+02  0.18020273909E+03  0.80316111290E+02 0.  0.
          5    1    3    3  501    0  0.15213249730E+02 -0.37009716050E+02  0.85556696067E+02  0.94568495237E+02  0.47000000000E+01 0. -1.
        -13    1    4    4    0    0 -0.64480811834E+02  0.21566981560E+02  0.18607771605E+02  0.70492261650E+02  0.00000000000E+00 0.  1.
         14    1    4    4    0    0 -0.92636050503E+02 -0.38824458384E+02  0.10631677932E+03  0.14626015858E+03  0.00000000000E+00 0. -1.
         -5    1    5    5    0  502  0.15763145440E+02 -0.36711822621E+02  0.31054586985E+02  0.50820390073E+02  0.47000000000E+01 0.  1.
         11    1    6    6    0    0  0.11660809058E+03  0.59999459921E+02 -0.61836007253E+01  0.13128449602E+03  0.00000000000E+00 0. -1.
        -12    1    6    6    0    0  0.95323765915E+01  0.30979555575E+02 -0.36638715008E+02  0.48918243064E+02  0.00000000000E+00 0.  1.
<mgrwt>
<rscale>  2 0.23038842E+03</rscale>
<asrwt>0</asrwt>
<pdfrwt beam="1">  1       21 0.57004428E-01 0.23072323E+03</pdfrwt>
<pdfrwt beam="2">  1       21 0.26433117E-01 0.23072323E+03</pdfrwt>
<totfact> 0.38623091E+04</totfact>
</mgrwt>
</event>
<event>
12    1  0.1026879E-001  0.1731515E+03  0.7546771E-02  0.1174633E+00
         21   -1    0    0  503  502  0.00000000000E+00  0.00000000000E+00  0.11872262398E+03  0.11872262398E+03  0.00000000000E+00 0.  1.
         21   -1    0    0  501  503 -0.00000000000E+00 -0.00000000000E+00 -0.30481249354E+03  0.30481249354E+03  0.00000000000E+00 0.  1.
          6    2    1    2  501    0 -0.18477435662E+01 -0.54840540657E+01 -0.18087210221E+03  0.25030502977E+03  0.17292889165E+03 0.  0.
         24    2    3    3    0    0 -0.16518541040E+02 -0.31325207297E+02 -0.20515545189E+02  0.87150768787E+02  0.76943083481E+02 0.  0.
         -6    2    1    2    0  502  0.18477435662E+01  0.54840540657E+01 -0.52177673525E+01  0.17323008774E+03  0.17305475780E+03 0.  0.
        -24    2    5    5    0    0  0.36309270303E+02 -0.46295981292E+02  0.26147213432E+02  0.10341160232E+03  0.80923431288E+02 0.  0.
          5    1    3    3  501    0  0.14670797474E+02  0.25841153231E+02 -0.16035655702E+03  0.16315426098E+03  0.47000000000E+01 0. -1.
        -13    1    4    4    0    0  0.14957571484E+02 -0.26313950050E+02 -0.39721027080E+02  0.49939091944E+02  0.00000000000E+00 0.  1.
         14    1    4    4    0    0 -0.31476112524E+02 -0.50112572461E+01  0.19205481891E+02  0.37211676843E+02  0.00000000000E+00 0. -1.
         -5    1    5    5    0  502 -0.34461526737E+02  0.51780035358E+02 -0.31364980785E+02  0.69818485420E+02  0.47000000000E+01 0.  1.
         11    1    6    6    0    0  0.14985292087E+02 -0.64439108192E+02  0.16021991024E+01  0.66177977345E+02  0.00000000000E+00 0. -1.
        -12    1    6    6    0    0  0.21323978216E+02  0.18143126900E+02  0.24545014330E+02  0.37233624980E+02  0.00000000000E+00 0.  1.
<mgrwt>
<rscale>  2 0.17312003E+03</rscale>
<asrwt>0</asrwt>
<pdfrwt beam="1">  1       21 0.18265019E-01 0.17315149E+03</pdfrwt>
<pdfrwt beam="2">  1       21 0.46894229E-01 0.17315149E+03</pdfrwt>
<totfact> 0.11978442E+05</totfact>
</mgrwt>
</event>
<event>
12    1  0.1026879E-001  0.1775309E+03  0.7546771E-02  0.1170755E+00
         21   -1    0    0  503  502  0.00000000000E+00  0.00000000000E+00  0.51638733194E+02  0.51638733194E+02  0.00000000000E+00 0. -1.
         21   -1    0    0  501  503 -0.00000000000E+00 -0.00000000000E+00 -0.61246605424E+03  0.61246605424E+03  0.00000000000E+00 0. -1.
          6    2    1    2  501    0 -0.24658057807E+02  0.77485648729E+01 -0.24055097881E+03  0.29896819822E+03  0.17563926118E+03 0.  0.
         24    2    3    3    0    0 -0.19477970520E+02  0.29161598050E+02 -0.25766599359E+03  0.27067747491E+03  0.75131491619E+02 0.  0.
         -6    2    1    2    0  502  0.24658057807E+02 -0.77485648729E+01 -0.32027634224E+03  0.36513658922E+03  0.17343509827E+03 0.  0.
        -24    2    5    5    0    0  0.23248971845E+02 -0.50684968536E+01 -0.57469020074E+02  0.10226980381E+03  0.81180170916E+02 0.  0.
          5    1    3    3  501    0 -0.51800872867E+01 -0.21413033178E+02  0.17115014787E+02  0.28290723309E+02  0.47000000000E+01 0. -1.
        -11    1    4    4    0    0 -0.27969614271E+02  0.19188138949E+02 -0.39275847162E+02  0.51894856866E+02  0.00000000000E+00 0.  1.
         12    1    4    4    0    0  0.84916437510E+01  0.99734591010E+01 -0.21839014643E+03  0.21878261805E+03  0.00000000000E+00 0. -1.
         -5    1    5    5    0  502  0.14090859618E+01 -0.26800680192E+01 -0.26280732217E+03  0.26286678541E+03  0.47000000000E+01 0.  1.
         13    1    6    6    0    0 -0.55853832878E+01  0.19557014724E+02  0.11645337613E+02  0.23436877341E+02  0.00000000000E+00 0. -1.
        -14    1    6    6    0    0  0.28834355133E+02 -0.24625511578E+02 -0.69114357687E+02  0.78832926464E+02  0.00000000000E+00 0.  1.
<mgrwt>
<rscale>  2 0.17698325E+03</rscale>
<asrwt>0</asrwt>
<pdfrwt beam="1">  1       21 0.79444200E-02 0.17753087E+03</pdfrwt>
<pdfrwt beam="2">  1       21 0.94225553E-01 0.17753087E+03</pdfrwt>
<totfact> 0.11537331E+05</totfact>
</mgrwt>
</event>
<event>
12    1  0.1026879E-001  0.2335326E+03  0.7546771E-02  0.1124255E+00
         21   -1    0    0  501  502  0.00000000000E+00  0.00000000000E+00  0.17000288523E+03  0.17000288523E+03  0.00000000000E+00 0.  1.
         21   -1    0    0  502  503 -0.00000000000E+00 -0.00000000000E+00 -0.43351366727E+03  0.43351366727E+03  0.00000000000E+00 0.  1.
         -6    2    1    2    0  503 -0.38932058836E+02 -0.15162683273E+03 -0.28594389362E+03  0.36890894265E+03  0.17269480611E+03 0.  0.
        -24    2    3    3    0    0  0.10863528299E+02 -0.26384382597E+02 -0.17439479438E+02  0.68439339778E+02  0.59713113250E+02 0.  0.
          6    2    1    2  501    0  0.38932058836E+02  0.15162683273E+03  0.22433111584E+02  0.23460760985E+03  0.17329479073E+03 0.  0.
         24    2    5    5    0    0  0.32891879867E+02  0.10699641763E+03 -0.51861096791E+02  0.14760141977E+03  0.81033922597E+02 0.  0.
          5    1    5    5  501    0  0.60401789698E+01  0.44630415099E+02  0.74294208375E+02  0.87006190079E+02  0.47000000000E+01 0. -1.
        -13    1    6    6    0    0 -0.28028290653E+01  0.89206347772E+02 -0.10041935464E+02  0.89813522375E+02  0.00000000000E+00 0.  1.
         14    1    6    6    0    0  0.35694708932E+02  0.17790069855E+02 -0.41819161327E+02  0.57787897394E+02  0.00000000000E+00 0. -1.
         -5    1    3    3    0  503 -0.49795587136E+02 -0.12524245013E+03 -0.26850441418E+03  0.30046960287E+03  0.47000000000E+01 0.  1.
         13    1    4    4    0    0  0.20381307855E+02 -0.31318773372E+01 -0.32980531775E+02  0.38896295990E+02  0.00000000000E+00 0. -1.
        -14    1    4    4    0    0 -0.95177795556E+01 -0.23252505260E+02  0.15541052337E+02  0.29543043788E+02  0.00000000000E+00 0.  1.
<mgrwt>
<rscale>  2 0.23342132E+03</rscale>
<asrwt>0</asrwt>
<pdfrwt beam="1">  1       21 0.26154290E-01 0.23353262E+03</pdfrwt>
<pdfrwt beam="2">  1       21 0.66694410E-01 0.23353262E+03</pdfrwt>
<totfact> 0.28013033E+04</totfact>
</mgrwt>
</event>
<event>
12    1  0.1026879E-001  0.1883711E+03  0.7546771E-02  0.1160418E+00
         21   -1    0    0  503  502  0.00000000000E+00  0.00000000000E+00  0.20810180821E+03  0.20810180821E+03  0.00000000000E+00 0. -1.
         21   -1    0    0  501  503 -0.00000000000E+00 -0.00000000000E+00 -0.72923622856E+03  0.72923622856E+03  0.00000000000E+00 0.  1.
          6    2    1    2  501    0 -0.21359291344E+02  0.70985564911E+02 -0.67182707717E+03  0.69773582467E+03  0.17317185007E+03 0.  0.
         24    2    3    3    0    0  0.37535843557E+02  0.74544225741E+02 -0.55442434716E+03  0.56625657918E+03  0.79337100999E+02 0.  0.
         -6    2    1    2    0  502  0.21359291344E+02 -0.70985564911E+02  0.15069265682E+03  0.23960221210E+03  0.17089696741E+03 0.  0.
        -24    2    5    5    0    0  0.30774681145E+02 -0.92954455539E+02  0.16867829968E+03  0.20932259735E+03  0.75999797188E+02 0.  0.
          5    1    3    3  501    0 -0.58895134900E+02 -0.35586608294E+01 -0.11740273002E+03  0.13147924550E+03  0.47000000000E+01 0. -1.
        -13    1    4    4    0    0 -0.17773994809E+01  0.41505863935E+01 -0.28478202549E+03  0.28481781643E+03  0.00000000000E+00 0.  1.
         14    1    4    4    0    0  0.39313243038E+02  0.70393639347E+02 -0.26964232167E+03  0.28143876275E+03  0.00000000000E+00 0. -1.
         -5    1    5    5    0  502 -0.94153898009E+01  0.21968890628E+02 -0.17985642860E+02  0.30279614754E+02  0.47000000000E+01 0.  1.
         13    1    6    6    0    0  0.13352633678E+02 -0.98652788779E+02  0.11246748515E+03  0.15019853786E+03  0.00000000000E+00 0. -1.
        -14    1    6    6    0    0  0.17422047467E+02  0.56983332395E+01  0.56210814534E+02  0.59124059487E+02  0.00000000000E+00 0.  1.
<mgrwt>
<rscale>  2 0.18784659E+03</rscale>
<asrwt>0</asrwt>
<pdfrwt beam="1">  1       21 0.32015663E-01 0.18837107E+03</pdfrwt>
<pdfrwt beam="2">  1       21 0.11219019E+00 0.18837107E+03</pdfrwt>
<totfact> 0.58619777E+03</totfact>
</mgrwt>
</event>
<event>
12    1  0.1026879E-001  0.3180619E+03  0.7546771E-02  0.1076796E+00
         21   -1    0    0  501  502  0.00000000000E+00  0.00000000000E+00  0.51887585229E+03  0.51887585229E+03  0.00000000000E+00 0.  1.
         21   -1    0    0  502  503 -0.00000000000E+00 -0.00000000000E+00 -0.26467538905E+03  0.26467538905E+03  0.00000000000E+00 0. -1.
         -6    2    1    2    0  503 -0.50545919348E+02 -0.26067652970E+03 -0.76168976276E+02  0.32495844855E+03  0.17114069428E+03 0.  0.
        -24    2    3    3    0    0 -0.13744951594E+02 -0.13116516784E+03  0.31897064000E+02  0.15225099897E+03  0.69063152601E+02 0.  0.
          6    2    1    2  501    0  0.50545919348E+02  0.26067652970E+03  0.33036943952E+03  0.45859279279E+03  0.17508923419E+03 0.  0.
         24    2    5    5    0    0  0.94362075508E+02  0.12926388413E+03  0.19604644451E+03  0.26558010940E+03  0.80530944823E+02 0.  0.
          5    1    5    5  501    0 -0.43816156160E+02  0.13141264557E+03  0.13432299501E+03  0.19301268338E+03  0.47000000000E+01 0. -1.
        -11    1    6    6    0    0  0.85907558914E+02  0.13484955732E+03  0.19876164075E+03  0.25508959529E+03  0.00000000000E+00 0.  1.
         12    1    6    6    0    0  0.84545165938E+01 -0.55856731902E+01 -0.27151962485E+01  0.10490514119E+02  0.00000000000E+00 0. -1.
         -5    1    3    3    0  503 -0.36800967754E+02 -0.12951136186E+03 -0.10806604028E+03  0.17270744958E+03  0.47000000000E+01 0.  1.
         13    1    4    4    0    0 -0.30397607863E+02 -0.64226421793E+02 -0.96763294867E+01  0.71712475710E+02  0.00000000000E+00 0. -1.
        -14    1    4    4    0    0  0.16652656269E+02 -0.66938746050E+02  0.41573393486E+02  0.80538523264E+02  0.00000000000E+00 0.  1.
<mgrwt>
<rscale>  2 0.31752143E+03</rscale>
<asrwt>0</asrwt>
<pdfrwt beam="1">  1       21 0.79827054E-01 0.31806192E+03</pdfrwt>
<pdfrwt beam="2">  1       21 0.40719291E-01 0.31806192E+03</pdfrwt>
<totfact> 0.74713229E+03</totfact>
</mgrwt>
</event>
<event>
12    1  0.1026879E-001  0.1846161E+03  0.7546771E-02  0.1164786E+00
         21   -1    0    0  501  502  0.00000000000E+00  0.00000000000E+00  0.11502040893E+03  0.11502040893E+03  0.00000000000E+00 0. -1.
         21   -1    0    0  502  503 -0.00000000000E+00 -0.00000000000E+00 -0.33793368409E+03  0.33793368409E+03  0.00000000000E+00 0. -1.
         -6    2    1    2    0  503 -0.28968971676E+02 -0.35364283630E+02 -0.19776974309E+03  0.26663371354E+03  0.17288965278E+03 0.  0.
        -24    2    3    3    0    0  0.19337933271E+02  0.14365911346E+02 -0.17317190147E+03  0.19291944647E+03  0.81541831562E+02 0.  0.
          6    2    1    2  501    0  0.28968971676E+02  0.35364283630E+02 -0.25143532056E+02  0.18632037948E+03  0.17886657801E+03 0.  0.
         24    2    5    5    0    0  0.35536392355E+02 -0.44186657373E+02 -0.37125488736E+02  0.10546779439E+03  0.80807535965E+02 0.  0.
          5    1    5    5  501    0 -0.65674206784E+01  0.79550941003E+02  0.11981956681E+02  0.80852585084E+02  0.47000000000E+01 0. -1.
        -13    1    6    6    0    0 -0.22994542705E+02 -0.11339695854E+02 -0.27611069099E+02  0.37679023781E+02  0.00000000000E+00 0.  1.
         14    1    6    6    0    0  0.58530935060E+02 -0.32846961520E+02 -0.95144196376E+01  0.67788770612E+02  0.00000000000E+00 0. -1.
         -5    1    3    3    0  503 -0.48306904947E+02 -0.49730194976E+02 -0.24597841625E+02  0.73714267076E+02  0.47000000000E+01 0.  1.
         11    1    4    4    0    0 -0.32208505418E+02  0.60787340007E+01 -0.63911510209E+02  0.71826318056E+02  0.00000000000E+00 0. -1.
        -12    1    4    4    0    0  0.51546438689E+02  0.82871773457E+01 -0.10926039126E+03  0.12109312841E+03  0.00000000000E+00 0.  1.
<mgrwt>
<rscale>  2 0.18315258E+03</rscale>
<asrwt>0</asrwt>
<pdfrwt beam="1">  1       21 0.17695448E-01 0.18461605E+03</pdfrwt>
<pdfrwt beam="2">  1       21 0.51989797E-01 0.18461605E+03</pdfrwt>
<totfact> 0.10206168E+05</totfact>
</mgrwt>
</event>
<event>
12    1  0.1026879E-001  0.2551949E+03  0.7546771E-02  0.1110307E+00
         21   -1    0    0  503  502  0.00000000000E+00  0.00000000000E+00  0.14374686418E+03  0.14374686418E+03  0.00000000000E+00 0.  1.
         21   -1    0    0  501  503 -0.00000000000E+00 -0.00000000000E+00 -0.50754801240E+03  0.50754801240E+03  0.00000000000E+00 0.  1.
          6    2    1    2  501    0 -0.15207782147E+03 -0.10578934200E+03 -0.73002496232E+02  0.26543139292E+03  0.17551470373E+03 0.  0.
         24    2    3    3    0    0 -0.11344347210E+03 -0.14370035329E+03 -0.48872569208E+02  0.20598224568E+03  0.80752366006E+02 0.  0.
         -6    2    1    2    0  502  0.15207782147E+03  0.10578934200E+03 -0.29079865199E+03  0.38586348366E+03  0.17322737473E+03 0.  0.
        -24    2    5    5    0    0  0.17947668268E+03  0.70949539658E+02 -0.23285064955E+03  0.31275691481E+03  0.79697841634E+02 0.  0.
          5    1    3    3  501    0 -0.38634349375E+02  0.37911011294E+02 -0.24129927025E+02  0.59449147237E+02  0.47000000000E+01 0. -1.
        -13    1    4    4    0    0 -0.95427050101E+02 -0.65534994727E+02 -0.49154525511E+02  0.12576694638E+03  0.00000000000E+00 0.  1.
         14    1    4    4    0    0 -0.18016421998E+02 -0.78165358567E+02  0.28195630337E+00  0.80215299295E+02  0.00000000000E+00 0. -1.
         -5    1    5    5    0  502 -0.27398861204E+02  0.34839802342E+02 -0.57948002439E+02  0.73106568851E+02  0.47000000000E+01 0.  1.
         11    1    6    6    0    0  0.67887132411E+02  0.51220103662E+02 -0.53071805316E+02  0.10024359474E+03  0.00000000000E+00 0. -1.
        -12    1    6    6    0    0  0.11158955027E+03  0.19729435996E+02 -0.17977884423E+03  0.21251332007E+03  0.00000000000E+00 0.  1.
<mgrwt>
<rscale>  2 0.25480211E+03</rscale>
<asrwt>0</asrwt>
<pdfrwt beam="1">  1       21 0.22114902E-01 0.25519494E+03</pdfrwt>
<pdfrwt beam="2">  1       21 0.78084310E-01 0.25519494E+03</pdfrwt>
<totfact> 0.26886954E+04</totfact>
</mgrwt>
</event>
<event>
12    1  0.1026879E-001  0.1810512E+03  0.7546771E-02  0.1167732E+00
         21   -1    0    0  503  502  0.00000000000E+00  0.00000000000E+00  0.35766963678E+03  0.35766963678E+03  0.00000000000E+00 0.  1.
         21   -1    0    0  501  503 -0.00000000000E+00 -0.00000000000E+00 -0.13688400416E+03  0.13688400416E+03  0.00000000000E+00 0.  1.
          6    2    1    2  501    0  0.41454881778E+02  0.11776005788E+01 -0.35571121987E+02  0.18070921545E+03  0.17225162368E+03 0.  0.
         24    2    3    3    0    0 -0.28827839665E+02 -0.32482983566E+02 -0.50105980123E+02  0.10129858669E+03  0.76580714677E+02 0.  0.
         -6    2    1    2    0  502 -0.41454881778E+02 -0.11776005788E+01  0.25635675460E+03  0.31384442549E+03  0.17623746428E+03 0.  0.
        -24    2    5    5    0    0  0.14397723907E+02  0.32203806491E+01  0.42029580010E+02  0.92265808364E+02  0.80801166403E+02 0.  0.
          5    1    3    3  501    0  0.70282721444E+02  0.33660584145E+02  0.14534858135E+02  0.79410628757E+02  0.47000000000E+01 0. -1.
        -13    1    4    4    0    0 -0.22272520502E+02 -0.24002725507E+02 -0.70793367031E+02  0.77999338566E+02  0.00000000000E+00 0.  1.
         14    1    4    4    0    0 -0.65553191638E+01 -0.84802580591E+01  0.20687386908E+02  0.23299248125E+02  0.00000000000E+00 0. -1.
         -5    1    5    5    0  502 -0.55852605685E+02 -0.43979812280E+01  0.21432717459E+03  0.22157861713E+03  0.47000000000E+01 0.  1.
         13    1    6    6    0    0  0.29031675196E+02  0.35486954412E+02  0.30248539487E+02  0.54928464745E+02  0.00000000000E+00 0. -1.
        -14    1    6    6    0    0 -0.14633951289E+02 -0.32266573763E+02  0.11781040523E+02  0.37337343619E+02  0.00000000000E+00 0.  1.
<mgrwt>
<rscale>  2 0.18007394E+03</rscale>
<asrwt>0</asrwt>
<pdfrwt beam="1">  1       21 0.55026097E-01 0.18105120E+03</pdfrwt>
<pdfrwt beam="2">  1       21 0.21059078E-01 0.18105120E+03</pdfrwt>
<totfact> 0.65634626E+04</totfact>
</mgrwt>
</event>
<event>
12    1  0.1026879E-001  0.3196696E+03  0.7546771E-02  0.1075938E+00
         21   -1    0    0  501  502  0.00000000000E+00  0.00000000000E+00  0.22270804076E+03  0.22270804076E+03  0.00000000000E+00 0. -1.
         21   -1    0    0  502  503 -0.00000000000E+00 -0.00000000000E+00 -0.49986640286E+03  0.49986640286E+03  0.00000000000E+00 0.  1.
         -6    2    1    2    0  503  0.12409142133E+03  0.23706344159E+03 -0.24442391045E+03  0.40240734362E+03  0.17490244713E+03 0.  0.
        -24    2    3    3    0    0  0.11692861999E+03  0.18267026062E+03 -0.25633245503E+03  0.34607061232E+03  0.83772399506E+02 0.  0.
          6    2    1    2  501    0 -0.12409142133E+03 -0.23706344159E+03 -0.32734451648E+02  0.32016710000E+03  0.17273584287E+03 0.  0.
         24    2    5    5    0    0 -0.75977462917E+02 -0.23359530221E+03 -0.58769734459E+02  0.26514976695E+03  0.80691865377E+02 0.  0.
          5    1    5    5  501    0 -0.48113958417E+02 -0.34681393766E+01  0.26035282811E+02  0.55017333054E+02  0.47000000000E+01 0. -1.
        -11    1    6    6    0    0  0.48462082437E+01 -0.11391267486E+03 -0.21895426015E+02  0.11609906506E+03  0.00000000000E+00 0.  1.
         12    1    6    6    0    0 -0.80823671161E+02 -0.11968262736E+03 -0.36874308444E+02  0.14905070189E+03  0.00000000000E+00 0. -1.
         -5    1    3    3    0  503  0.71628013396E+01  0.54393180971E+02  0.11908544588E+02  0.56336731298E+02  0.47000000000E+01 0.  1.
         13    1    4    4    0    0  0.59850830839E+02  0.33719391738E+02 -0.48548307268E+02  0.84119304977E+02  0.00000000000E+00 0. -1.
        -14    1    4    4    0    0  0.57077789156E+02  0.14895086888E+03 -0.20778414777E+03  0.26195130734E+03  0.00000000000E+00 0.  1.
<mgrwt>
<rscale>  2 0.31937408E+03</rscale>
<asrwt>0</asrwt>
<pdfrwt beam="1">  1       21 0.34262776E-01 0.31966955E+03</pdfrwt>
<pdfrwt beam="2">  1       21 0.76902523E-01 0.31966955E+03</pdfrwt>
<totfact> 0.11533203E+04</totfact>
</mgrwt>
</event>
<event>
12    1  0.1026879E-001  0.1950440E+03  0.7546771E-02  0.1155158E+00
         21   -1    0    0  503  502  0.00000000000E+00  0.00000000000E+00  0.10476489664E+04  0.10476489664E+04  0.00000000000E+00 0.  1.
         21   -1    0    0  501  503 -0.00000000000E+00 -0.00000000000E+00 -0.54830731024E+02  0.54830731024E+02  0.00000000000E+00 0.  1.
          6    2    1    2  501    0 -0.11200113815E+02 -0.83335520008E+02  0.16333027594E+03  0.25036912926E+03  0.17011075923E+03 0.  0.
         24    2    3    3    0    0 -0.30705438498E+02 -0.65032977383E+01  0.22208293359E+02  0.88439663022E+02  0.79644515609E+02 0.  0.
         -6    2    1    2    0  502  0.11200113815E+02  0.83335520008E+02  0.82948795946E+03  0.85211056818E+03  0.17598833506E+03 0.  0.
        -24    2    5    5    0    0 -0.42046328860E+02 -0.14521736467E+01  0.49108361142E+03  0.49917469664E+03  0.79007985531E+02 0.  0.
          5    1    3    3  501    0  0.19505324683E+02 -0.76832222270E+02  0.14112198258E+03  0.16192946624E+03  0.47000000000E+01 0. -1.
        -13    1    4    4    0    0 -0.37651012412E+02 -0.30153093714E+02  0.36004752722E+02  0.60192607642E+02  0.00000000000E+00 0.  1.
         14    1    4    4    0    0  0.69455739137E+01  0.23649795976E+02 -0.13796459362E+02  0.28247055380E+02  0.00000000000E+00 0. -1.
         -5    1    5    5    0  502  0.53246442675E+02  0.84787693655E+02  0.33840434804E+03  0.35293587154E+03  0.47000000000E+01 0.  1.
         13    1    6    6    0    0  0.11602161642E+02 -0.19103842329E+02  0.53787698893E+02  0.58246746680E+02  0.00000000000E+00 0. -1.
        -14    1    6    6    0    0 -0.53648490502E+02  0.17651668683E+02  0.43729591253E+03  0.44092794996E+03  0.00000000000E+00 0.  1.
<mgrwt>
<rscale>  2 0.19370870E+03</rscale>
<asrwt>0</asrwt>
<pdfrwt beam="1">  1       21 0.16117675E+00 0.19504396E+03</pdfrwt>
<pdfrwt beam="2">  1       21 0.84354978E-02 0.19504396E+03</pdfrwt>
<totfact> 0.26956139E+04</totfact>
</mgrwt>
</event>
<event>
12    1  0.1026879E-001  0.1930021E+03  0.7546771E-02  0.1156135E+00
         21   -1    0    0  503  502  0.00000000000E+00  0.00000000000E+00  0.16806880205E+03  0.16806880205E+03  0.00000000000E+00 0. -1.
         21   -1    0    0  501  503 -0.00000000000E+00 -0.00000000000E+00 -0.27478375452E+03  0.27478375452E+03  0.00000000000E+00 0. -1.
          6    2    1    2  501    0  0.82008504363E+02  0.28323032765E+00 -0.15222270252E+03  0.24455788477E+03  0.17294893129E+03 0.  0.
         24    2    3    3    0    0  0.82934581152E+02  0.15732196564E+02 -0.21685547399E+02  0.11302246352E+03  0.71959485374E+02 0.  0.
         -6    2    1    2    0  502 -0.82008504363E+02 -0.28323032765E+00  0.45507750056E+02  0.19829467180E+03  0.17471218200E+03 0.  0.
        -24    2    5    5    0    0 -0.35336727340E+02  0.55102109678E+00  0.95416939712E+02  0.12979673053E+03  0.80584185474E+02 0.  0.
          5    1    3    3  501    0 -0.92607678878E+00 -0.15448966236E+02 -0.13053715512E+03  0.13153542125E+03  0.47000000000E+01 0. -1.
        -13    1    4    4    0    0  0.73648832393E+02 -0.17856668895E+02 -0.11030752334E+02  0.76581255109E+02  0.00000000000E+00 0.  1.
         14    1    4    4    0    0  0.92857487582E+01  0.33588865459E+02 -0.10654795065E+02  0.36441208415E+02  0.00000000000E+00 0. -1.
         -5    1    5    5    0  502 -0.46671777023E+02 -0.83425142443E+00 -0.49909189656E+02  0.68497941269E+02  0.47000000000E+01 0.  1.
         13    1    6    6    0    0  0.84329777562E+01 -0.31768035433E+02  0.28112785367E+02  0.43251033400E+02  0.00000000000E+00 0. -1.
        -14    1    6    6    0    0 -0.43769705096E+02  0.32319056530E+02  0.67304154345E+02  0.86545697128E+02  0.00000000000E+00 0.  1.
<mgrwt>
<rscale>  2 0.19260221E+03</rscale>
<asrwt>0</asrwt>
<pdfrwt beam="1">  1       21 0.25856739E-01 0.19300213E+03</pdfrwt>
<pdfrwt beam="2">  1       21 0.42274423E-01 0.19300213E+03</pdfrwt>
<totfact> 0.76460778E+04</totfact>
</mgrwt>
</event>
<event>
12    1  0.1026879E-001  0.1958767E+03  0.7546771E-02  0.1153483E+00
         21   -1    0    0  501  502  0.00000000000E+00  0.00000000000E+00  0.11604646031E+04  0.11604646031E+04  0.00000000000E+00 0. -1.
         21   -1    0    0  502  503 -0.00000000000E+00 -0.00000000000E+00 -0.54446793492E+02  0.54446793492E+02  0.00000000000E+00 0.  1.
         -6    2    1    2    0  503  0.74978641240E+02  0.49729243951E+02  0.16995171342E+03  0.25857075102E+03  0.17285963682E+03 0.  0.
        -24    2    3    3    0    0 -0.94180150269E+01 -0.23349615690E+02  0.73474138662E+02  0.11094511724E+03  0.79224153059E+02 0.  0.
          6    2    1    2  501    0 -0.74978641240E+02 -0.49729243951E+02  0.93606609615E+03  0.95634064554E+03  0.17399109058E+03 0.  0.
         24    2    5    5    0    0  0.51591218956E+01 -0.52458849047E+02  0.27377372058E+03  0.28919538957E+03  0.76833429481E+02 0.  0.
          5    1    5    5  501    0 -0.80137763136E+02  0.27296050959E+01  0.66229237558E+03  0.66714525597E+03  0.47000000000E+01 0. -1.
        -11    1    6    6    0    0  0.23572583804E+02  0.64678963916E+01  0.13659120242E+03  0.13876115079E+03  0.00000000000E+00 0.  1.
         12    1    6    6    0    0 -0.18413461909E+02 -0.58926745439E+02  0.13718251816E+03  0.15043423878E+03  0.00000000000E+00 0. -1.
         -5    1    3    3    0  503  0.84396656267E+02  0.73078859641E+02  0.96477574760E+02  0.14762563377E+03  0.47000000000E+01 0.  1.
         11    1    4    4    0    0  0.23605436141E+02 -0.17427972136E+02  0.71558142436E+02  0.77340277844E+02  0.00000000000E+00 0. -1.
        -12    1    4    4    0    0 -0.33023451168E+02 -0.59216435535E+01  0.19159962260E+01  0.33604839398E+02  0.00000000000E+00 0.  1.
<mgrwt>
<rscale>  2 0.19562516E+03</rscale>
<asrwt>0</asrwt>
<pdfrwt beam="1">  1       21 0.17853300E+00 0.19587673E+03</pdfrwt>
<pdfrwt beam="2">  1       21 0.83764307E-02 0.19587673E+03</pdfrwt>
<totfact> 0.20576091E+04</totfact>
</mgrwt>
</event>
<event>
12    1  0.1026879E-001  0.2560046E+03  0.7546771E-02  0.1110133E+00
         21   -1    0    0  501  502  0.00000000000E+00  0.00000000000E+00  0.14422385769E+04  0.14422385769E+04  0.00000000000E+00 0.  1.
         21   -1    0    0  502  503 -0.00000000000E+00 -0.00000000000E+00 -0.93028802202E+02  0.93028802202E+02  0.00000000000E+00 0. -1.
         -6    2    1    2    0  503  0.18434711329E+03  0.23578093350E+02  0.11952974578E+03  0.27922147039E+03  0.17069705545E+03 0.  0.
        -24    2    3    3    0    0  0.34471741572E+02  0.44685241444E+02  0.79775046280E+02  0.12266264796E+03  0.74141725274E+02 0.  0.
          6    2    1    2  501    0 -0.18434711329E+03 -0.23578093350E+02  0.12296800289E+04  0.12560459087E+04  0.17606409801E+03 0.  0.
         24    2    5    5    0    0 -0.77575823472E+02  0.41023458644E+02  0.79547970054E+03  0.80424342531E+03  0.79489625926E+02 0.  0.
          5    1    5    5  501    0 -0.10677128982E+03 -0.64601551993E+02  0.43420032839E+03  0.45180248342E+03  0.47000000000E+01 0. -1.
        -13    1    6    6    0    0 -0.71498231755E+02  0.34844265572E+02  0.78999031413E+03  0.79398414116E+03  0.00000000000E+00 0.  1.
         14    1    6    6    0    0 -0.60775917172E+01  0.61791930718E+01  0.54893864084E+01  0.10259284149E+02  0.00000000000E+00 0. -1.
         -5    1    3    3    0  503  0.14987537172E+03 -0.21107148095E+02  0.39754699505E+02  0.15655882243E+03  0.47000000000E+01 0.  1.
         11    1    4    4    0    0 -0.77688489752E+01  0.12634678082E+02 -0.10357307282E+02  0.18090437219E+02  0.00000000000E+00 0. -1.
        -12    1    4    4    0    0  0.42240590547E+02  0.32050563362E+02  0.90132353562E+02  0.10457221075E+03  0.00000000000E+00 0.  1.
<mgrwt>
<rscale>  2 0.25508438E+03</rscale>
<asrwt>0</asrwt>
<pdfrwt beam="1">  1       21 0.22188284E+00 0.25600459E+03</pdfrwt>
<pdfrwt beam="2">  1       21 0.14312124E-01 0.25600459E+03</pdfrwt>
<totfact> 0.39582994E+03</totfact>
</mgrwt>
</event>
<event>
12    1  0.1026879E-001  0.1818303E+03  0.7546771E-02  0.1166940E+00
         21   -1    0    0  503  502  0.00000000000E+00  0.00000000000E+00  0.38595986489E+03  0.38595986489E+03  0.00000000000E+00 0.  1.
         21   -1    0    0  501  503 -0.00000000000E+00 -0.00000000000E+00 -0.88579901170E+02  0.88579901170E+02  0.00000000000E+00 0.  1.
          6    2    1    2  501    0 -0.39748936935E+02 -0.12795696699E+02  0.20455706814E+03  0.27368931599E+03  0.17697044872E+03 0.  0.
         24    2    3    3    0    0 -0.30899814130E+02 -0.53714588236E+02  0.50308825838E+02  0.11379162085E+03  0.81101784905E+02 0.  0.
         -6    2    1    2    0  502  0.39748936935E+02  0.12795696699E+02  0.92822895582E+02  0.20085045007E+03  0.17315052847E+03 0.  0.
        -24    2    5    5    0    0  0.30145271903E+01 -0.43765707047E+01 -0.17652506723E+02  0.83074356821E+02  0.81003061809E+02 0.  0.
          5    1    3    3  501    0 -0.88491228057E+01  0.40918891537E+02  0.15424824230E+03  0.15989769514E+03  0.47000000000E+01 0. -1.
        -13    1    4    4    0    0 -0.15391643184E+02 -0.43971864188E+02  0.71778185820E+02  0.85571814750E+02  0.00000000000E+00 0.  1.
         14    1    4    4    0    0 -0.15508170946E+02 -0.97427240482E+01 -0.21469359982E+02  0.28219806095E+02  0.00000000000E+00 0. -1.
         -5    1    5    5    0  502  0.36734409745E+02  0.17172267404E+02  0.11047540230E+03  0.11777609325E+03  0.47000000000E+01 0.  1.
         11    1    6    6    0    0 -0.28499010970E+02 -0.26890532366E+02 -0.20534758463E+02  0.44237661131E+02  0.00000000000E+00 0. -1.
        -12    1    6    6    0    0  0.31513538160E+02  0.22513961662E+02  0.28822517398E+01  0.38836695691E+02  0.00000000000E+00 0.  1.
<mgrwt>
<rscale>  2 0.18089415E+03</rscale>
<asrwt>0</asrwt>
<pdfrwt beam="1">  1       21 0.59378440E-01 0.18183027E+03</pdfrwt>
<pdfrwt beam="2">  1       21 0.13627677E-01 0.18183027E+03</pdfrwt>
<totfact> 0.12417997E+05</totfact>
</mgrwt>
</event>
<event>
12    1  0.1026879E-001  0.1940865E+03  0.7546771E-02  0.1155362E+00
         21   -1    0    0  503  502  0.00000000000E+00  0.00000000000E+00  0.19943502759E+04  0.19943502759E+04  0.00000000000E+00 0. -1.
         21   -1    0    0  501  503 -0.00000000000E+00 -0.00000000000E+00 -0.23769114666E+02  0.23769114666E+02  0.00000000000E+00 0. -1.
          6    2    1    2  501    0  0.60267741560E+02  0.68080657472E+02  0.51229218531E+03  0.54697143385E+03  0.16872252287E+03 0.  0.
         24    2    3    3    0    0 -0.10554637531E+02 -0.19096257082E+02  0.23225044627E+03  0.24520813354E+03  0.75569117718E+02 0.  0.
         -6    2    1    2    0  502 -0.60267741560E+02 -0.68080657472E+02  0.14582889760E+04  0.14711479568E+04  0.17147127062E+03 0.  0.
        -24    2    5    5    0    0 -0.74828602517E+02 -0.89412933578E+02  0.14002926511E+04  0.14074867569E+04  0.81274039683E+02 0.  0.
          5    1    3    3  501    0  0.70822379091E+02  0.87176914555E+02  0.28004173904E+03  0.30176330031E+03  0.47000000000E+01 0. -1.
        -13    1    4    4    0    0 -0.37388242370E+02 -0.10436467037E+02  0.19308799148E+03  0.19695119437E+03  0.00000000000E+00 0.  1.
         14    1    4    4    0    0  0.26833604839E+02 -0.86597900454E+01  0.39162454791E+02  0.48256939164E+02  0.00000000000E+00 0. -1.
         -5    1    5    5    0  502  0.14560860957E+02  0.21332276106E+02  0.57996324835E+02  0.63661199879E+02  0.47000000000E+01 0.  1.
         11    1    6    6    0    0 -0.40494830259E+02 -0.42552204625E+02  0.11034918707E+04  0.11050542204E+04  0.00000000000E+00 0. -1.
        -12    1    6    6    0    0 -0.34333772258E+02 -0.46860728954E+02  0.29680078046E+03  0.30243253647E+03  0.00000000000E+00 0.  1.
<mgrwt>
<rscale>  2 0.19347762E+03</rscale>
<asrwt>0</asrwt>
<pdfrwt beam="1">  1       21 0.30682299E+00 0.19408651E+03</pdfrwt>
<pdfrwt beam="2">  1       21 0.36567884E-02 0.19408651E+03</pdfrwt>
<totfact> 0.14175855E+04</totfact>
</mgrwt>
</event>
<event>
12    1  0.1026879E-001  0.1810622E+03  0.7546771E-02  0.1166876E+00
         21   -1    0    0  501  502  0.00000000000E+00  0.00000000000E+00  0.24991190880E+03  0.24991190880E+03  0.00000000000E+00 0.  1.
         21   -1    0    0  502  503 -0.00000000000E+00 -0.00000000000E+00 -0.26881380604E+03  0.26881380604E+03  0.00000000000E+00 0.  1.
         -6    2    1    2    0  503 -0.27317256374E+02 -0.45022998941E+02 -0.19522723199E+03  0.26599237687E+03  0.17281484170E+03 0.  0.
        -24    2    3    3    0    0  0.15579254212E+02 -0.85601932332E+02 -0.10835742990E+03  0.16084860401E+03  0.80997140795E+02 0.  0.
          6    2    1    2  501    0  0.27317256374E+02  0.45022998941E+02  0.17632533475E+03  0.25273333797E+03  0.17323456213E+03 0.  0.
         24    2    5    5    0    0  0.38681744009E+00 -0.34424893916E+02  0.13107114762E+03  0.15730143726E+03  0.79867850074E+02 0.  0.
          5    1    5    5  501    0  0.26930438934E+02  0.79447892857E+02  0.45254187132E+02  0.95431900712E+02  0.47000000000E+01 0. -1.
        -13    1    6    6    0    0 -0.26940155315E+00  0.15715958381E+02 -0.12789612178E+01  0.15770214546E+02  0.00000000000E+00 0.  1.
         14    1    6    6    0    0  0.65621899324E+00 -0.50140852296E+02  0.13235010884E+03  0.14153122271E+03  0.00000000000E+00 0. -1.
         -5    1    3    3    0  503 -0.42896510586E+02  0.40578933391E+02 -0.86869802088E+02  0.10514377286E+03  0.47000000000E+01 0.  1.
         11    1    4    4    0    0 -0.23378480831E+01  0.51260898897E+01  0.94962408985E+01  0.11041780763E+02  0.00000000000E+00 0. -1.
        -12    1    4    4    0    0  0.17917102295E+02 -0.90728022222E+02 -0.11785367080E+03  0.14980682325E+03  0.00000000000E+00 0.  1.
<mgrwt>
<rscale>  2 0.18096172E+03</rscale>
<asrwt>0</asrwt>
<pdfrwt beam="1">  1       21 0.38447986E-01 0.18106219E+03</pdfrwt>
<pdfrwt beam="2">  1       21 0.41355970E-01 0.18106219E+03</pdfrwt>
<totfact> 0.36945905E+04</totfact>
</mgrwt>
</event>
<event>
12    1  0.1026879E-001  0.2184892E+03  0.7546771E-02  0.1135047E+00
         21   -1    0    0  503  502  0.00000000000E+00  0.00000000000E+00  0.41207729621E+03  0.41207729621E+03  0.00000000000E+00 0.  1.
         21   -1    0    0  501  503 -0.00000000000E+00 -0.00000000000E+00 -0.12428975655E+03  0.12428975655E+03  0.00000000000E+00 0.  1.
          6    2    1    2  501    0 -0.11174247295E+03  0.71640182382E+02  0.73561566173E+02  0.23037635722E+03  0.17332993381E+03 0.  0.
         24    2    3    3    0    0 -0.91245499179E+02 -0.23017621715E+01  0.63007590723E+02  0.15278116732E+03  0.10507658811E+03 0.  0.
         -6    2    1    2    0  502  0.11174247295E+03 -0.71640182382E+02  0.21422597349E+03  0.30599069553E+03  0.17354780910E+03 0.  0.
        -24    2    5    5    0    0  0.54427018912E+02 -0.85525458880E+02  0.20688387622E+03  0.24637644751E+03  0.87312720409E+02 0.  0.
          5    1    3    3  501    0 -0.20496973770E+02  0.73941944553E+02  0.10553975450E+02  0.77595189901E+02  0.47000000000E+01 0. -1.
        -13    1    4    4    0    0 -0.20834690673E+02  0.13833305616E+02  0.75445319296E+02  0.79482330636E+02  0.00000000000E+00 0.  1.
         14    1    4    4    0    0 -0.70410808506E+02 -0.16135067787E+02 -0.12437728573E+02  0.73298836683E+02  0.00000000000E+00 0. -1.
         -5    1    5    5    0  502  0.57315454037E+02  0.13885276498E+02  0.73420972712E+01  0.59614248022E+02  0.47000000000E+01 0.  1.
         11    1    6    6    0    0 -0.66843328763E+01  0.10088254685E+02  0.21398598252E+01  0.12289515395E+02  0.00000000000E+00 0. -1.
        -12    1    6    6    0    0  0.61111351788E+02 -0.95613713564E+02  0.20474401639E+03  0.23408693212E+03  0.00000000000E+00 0.  1.
<mgrwt>
<rscale>  2 0.21844595E+03</rscale>
<asrwt>0</asrwt>
<pdfrwt beam="1">  1       21 0.63396507E-01 0.21848922E+03</pdfrwt>
<pdfrwt beam="2">  1       21 0.19121501E-01 0.21848922E+03</pdfrwt>
<totfact> 0.57063939E+04</totfact>
</mgrwt>
</event>
<event>
12    1  0.1026879E-001  0.2144135E+03  0.7546771E-02  0.1138474E+00
         21   -1    0    0  503  502  0.00000000000E+00  0.00000000000E+00  0.78467990234E+03  0.78467990234E+03  0.00000000000E+00 0. -1.
         21   -1    0    0  501  503 -0.00000000000E+00 -0.00000000000E+00 -0.82331946907E+02  0.82331946907E+02  0.00000000000E+00 0. -1.
          6    2    1    2  501    0  0.83704394644E+02 -0.94243078550E+02  0.11699525248E+03  0.24425612252E+03  0.17345022557E+03 0.  0.
         24    2    3    3    0    0  0.54855363521E+02  0.26384197296E+02  0.55617540830E+02  0.10579125419E+03  0.66281534693E+02 0.  0.
         -6    2    1    2    0  502 -0.83704394644E+02  0.94243078550E+02  0.58535270295E+03  0.62275572672E+03  0.17116870267E+03 0.  0.
        -24    2    5    5    0    0  0.26519644133E+02  0.61101174439E+02  0.31820405381E+03  0.33182924929E+03  0.66484477744E+02 0.  0.
          5    1    3    3  501    0  0.28849031124E+02 -0.12062727585E+03  0.61377711646E+02  0.13846486833E+03  0.47000000000E+01 0. -1.
        -13    1    4    4    0    0  0.38589599391E+02  0.23499162755E+02  0.70381461429E+02  0.83635626047E+02  0.00000000000E+00 0.  1.
         14    1    4    4    0    0  0.16265764129E+02  0.28850345413E+01 -0.14763920599E+02  0.22155628144E+02  0.00000000000E+00 0. -1.
         -5    1    5    5    0  502 -0.11022403878E+03  0.33141904111E+02  0.26714864914E+03  0.29092647743E+03  0.47000000000E+01 0.  1.
         13    1    6    6    0    0  0.17790390312E+00  0.52745305084E+02  0.11219713333E+03  0.12397699620E+03  0.00000000000E+00 0. -1.
        -14    1    6    6    0    0  0.26341740230E+02  0.83558693547E+01  0.20600692048E+03  0.20785225309E+03  0.00000000000E+00 0.  1.
<mgrwt>
<rscale>  2 0.21395169E+03</rscale>
<asrwt>0</asrwt>
<pdfrwt beam="1">  1       21 0.12071998E+00 0.21441354E+03</pdfrwt>
<pdfrwt beam="2">  1       21 0.12666454E-01 0.21441354E+03</pdfrwt>
<totfact> 0.27359838E+04</totfact>
</mgrwt>
</event>
<event>
12    1  0.1026879E-001  0.1877389E+03  0.7546771E-02  0.1160768E+00
         21   -1    0    0  501  502  0.00000000000E+00  0.00000000000E+00  0.16961273462E+03  0.16961273462E+03  0.00000000000E+00 0. -1.
         21   -1    0    0  502  503 -0.00000000000E+00 -0.00000000000E+00 -0.23852764575E+03  0.23852764575E+03  0.00000000000E+00 0. -1.
         -6    2    1    2    0  503  0.71738043638E+02  0.22163352019E+01 -0.10903721358E+03  0.21616200542E+03  0.17229521060E+03 0.  0.
        -24    2    3    3    0    0  0.10478430134E+03  0.37789163899E+02 -0.73753405567E+02  0.15595803215E+03  0.80470940361E+02 0.  0.
          6    2    1    2  501    0 -0.71738043638E+02 -0.22163352019E+01  0.40122302452E+02  0.19197837495E+03  0.17347806273E+03 0.  0.
         24    2    5    5    0    0 -0.10754069133E+03  0.95733179860E+01 -0.43739046190E+01  0.13347343543E+03  0.78354184412E+02 0.  0.
          5    1    5    5  501    0  0.35802647694E+02 -0.11789653188E+02  0.44496207071E+02  0.58504939517E+02  0.47000000000E+01 0. -1.
        -11    1    6    6    0    0  0.82894742260E+01  0.14595659892E+02 -0.50631991604E+01  0.17532388781E+02  0.00000000000E+00 0.  1.
         12    1    6    6    0    0 -0.11583016556E+03 -0.50223419063E+01  0.68929454146E+00  0.11594104665E+03  0.00000000000E+00 0. -1.
         -5    1    3    3    0  503 -0.33046257706E+02 -0.35572828697E+02 -0.35283808015E+02  0.60203973274E+02  0.47000000000E+01 0.  1.
         11    1    4    4    0    0  0.31664197788E+02  0.35570430373E+02 -0.67403166816E+02  0.82529169603E+02  0.00000000000E+00 0. -1.
        -12    1    4    4    0    0  0.73120103556E+02  0.22187335258E+01 -0.63502387506E+01  0.73428862546E+02  0.00000000000E+00 0.  1.
<mgrwt>
<rscale>  2 0.18746520E+03</rscale>
<asrwt>0</asrwt>
<pdfrwt beam="1">  1       21 0.26094267E-01 0.18773891E+03</pdfrwt>
<pdfrwt beam="2">  1       21 0.36696561E-01 0.18773891E+03</pdfrwt>
<totfact> 0.10012446E+05</totfact>
</mgrwt>
</event>
<event>
12    1  0.1026879E-001  0.2418859E+03  0.7546771E-02  0.1119546E+00
         21   -1    0    0  503  502  0.00000000000E+00  0.00000000000E+00  0.52080460199E+03  0.52080460199E+03  0.00000000000E+00 0. -1.
         21   -1    0    0  501  503 -0.00000000000E+00 -0.00000000000E+00 -0.14583047928E+03  0.14583047928E+03  0.00000000000E+00 0.  1.
          6    2    1    2  501    0  0.32978834699E+02 -0.15664644967E+03  0.23063283548E+02  0.24298291473E+03  0.18133689109E+03 0.  0.
         24    2    3    3    0    0 -0.33301076119E+02 -0.15109763253E+03  0.69435276030E+01  0.17438442727E+03  0.80139002197E+02 0.  0.
         -6    2    1    2    0  502 -0.32978834699E+02  0.15664644967E+03  0.35191083917E+03  0.42365216654E+03  0.17324608439E+03 0.  0.
        -24    2    5    5    0    0  0.16568924915E+02  0.28185354893E+02  0.19806668395E+03  0.21713982442E+03  0.82766832452E+02 0.  0.
          5    1    3    3  501    0  0.66279910818E+02 -0.55488171391E+01  0.16119755945E+02  0.68598487457E+02  0.47000000000E+01 0. -1.
        -13    1    4    4    0    0 -0.34290856555E+02 -0.14367376027E+02  0.59153522758E+01  0.37646722695E+02  0.00000000000E+00 0.  1.
         14    1    4    4    0    0  0.98978043538E+00 -0.13673025650E+03  0.10281753272E+01  0.13673770458E+03  0.00000000000E+00 0. -1.
         -5    1    5    5    0  502 -0.49547759614E+02  0.12846109478E+03  0.15384415522E+03  0.20651234212E+03  0.47000000000E+01 0.  1.
         11    1    6    6    0    0  0.30683202891E+02  0.39975850017E+02  0.62285131785E+02  0.80118444604E+02  0.00000000000E+00 0. -1.
        -12    1    6    6    0    0 -0.14114277976E+02 -0.11790495124E+02  0.13578155216E+03  0.13702137981E+03  0.00000000000E+00 0.  1.
<mgrwt>
<rscale>  2 0.24037052E+03</rscale>
<asrwt>0</asrwt>
<pdfrwt beam="1">  1       21 0.80123784E-01 0.24188589E+03</pdfrwt>
<pdfrwt beam="2">  1       21 0.22435459E-01 0.24188589E+03</pdfrwt>
<totfact> 0.24827786E+04</totfact>
</mgrwt>
</event>
<event>
12    1  0.1026879E-001  0.1786582E+03  0.7546771E-02  0.1169347E+00
         21   -1    0    0  503  502  0.00000000000E+00  0.00000000000E+00  0.38671660649E+02  0.38671660649E+02  0.00000000000E+00 0. -1.
         21   -1    0    0  501  503 -0.00000000000E+00 -0.00000000000E+00 -0.83324213245E+03  0.83324213245E+03  0.00000000000E+00 0. -1.
          6    2    1    2  501    0 -0.30804821182E+01 -0.41337609868E+02 -0.45144059015E+03  0.48550733430E+03  0.17378284687E+03 0.  0.
         24    2    3    3    0    0 -0.37904977809E+02  0.87362660101E+01 -0.12115996306E+03  0.14960925277E+03  0.78677075310E+02 0.  0.
         -6    2    1    2    0  502  0.30804821182E+01  0.41337609868E+02 -0.34312988166E+03  0.38640645880E+03  0.17278179406E+03 0.  0.
        -24    2    5    5    0    0  0.62527457294E+02  0.53664191132E+02 -0.19995702010E+03  0.23082225090E+03  0.80663333039E+02 0.  0.
          5    1    3    3  501    0  0.34824495691E+02 -0.50073875878E+02 -0.33028062708E+03  0.33589808153E+03  0.47000000000E+01 0. -1.
        -13    1    4    4    0    0 -0.19942243549E+02 -0.30281494263E+01 -0.12599491436E+03  0.12759929942E+03  0.00000000000E+00 0.  1.
         14    1    4    4    0    0 -0.17962734260E+02  0.11764415436E+02  0.48349512991E+01  0.22009953355E+02  0.00000000000E+00 0. -1.
         -5    1    5    5    0  502 -0.59446975175E+02 -0.12326581263E+02 -0.14317286155E+03  0.15558420790E+03  0.47000000000E+01 0.  1.
         13    1    6    6    0    0 -0.17404794175E+02  0.17224107716E+02 -0.68223247043E+02  0.72484537551E+02  0.00000000000E+00 0. -1.
        -14    1    6    6    0    0  0.79932251469E+02  0.36440083416E+02 -0.13173377306E+03  0.15833771335E+03  0.00000000000E+00 0.  1.
<mgrwt>
<rscale>  2 0.17841434E+03</rscale>
<asrwt>0</asrwt>
<pdfrwt beam="1">  1       21 0.59494858E-02 0.17865824E+03</pdfrwt>
<pdfrwt beam="2">  1       21 0.12819111E+00 0.17865824E+03</pdfrwt>
<totfact> 0.90155971E+04</totfact>
</mgrwt>
</event>
<event>
12    1  0.1026879E-001  0.2958070E+03  0.7546771E-02  0.1087401E+00
         21   -1    0    0  501  502  0.00000000000E+00  0.00000000000E+00  0.22841570011E+03  0.22841570011E+03  0.00000000000E+00 0.  1.
         21   -1    0    0  502  503 -0.00000000000E+00 -0.00000000000E+00 -0.56976545005E+03  0.56976545005E+03  0.00000000000E+00 0.  1.
         -6    2    1    2    0  503 -0.21406254415E+03  0.10695965970E+03 -0.39947153313E+03  0.49707068795E+03  0.17389255715E+03 0.  0.
        -24    2    3    3    0    0 -0.45735370501E+02  0.64986185904E+02 -0.10027950290E+03  0.15118953663E+03  0.80544204076E+02 0.  0.
          6    2    1    2  501    0  0.21406254415E+03 -0.10695965970E+03  0.58121783191E+02  0.30111046220E+03  0.17328077550E+03 0.  0.
         24    2    5    5    0    0  0.22840758659E+03 -0.95932551622E+02  0.23125137790E+02  0.26143386274E+03  0.80248442463E+02 0.  0.
          5    1    5    5  501    0 -0.14345042445E+02 -0.11027108076E+02  0.34996645401E+02  0.39676599458E+02  0.47000000000E+01 0. -1.
        -13    1    6    6    0    0  0.11549771406E+03 -0.56930729543E+01  0.48076820352E+01  0.11573783668E+03  0.00000000000E+00 0.  1.
         14    1    6    6    0    0  0.11290987253E+03 -0.90239478668E+02  0.18317455755E+02  0.14569602606E+03  0.00000000000E+00 0. -1.
         -5    1    3    3    0  503 -0.16832717365E+03  0.41973473794E+02 -0.29919203022E+03  0.34588115132E+03  0.47000000000E+01 0.  1.
         13    1    4    4    0    0 -0.55556077211E+02  0.65740557337E+02 -0.49142276921E+02  0.99112370444E+02  0.00000000000E+00 0. -1.
        -14    1    4    4    0    0  0.98207067106E+01 -0.75437143338E+00 -0.51137225984E+02  0.52077166185E+02  0.00000000000E+00 0.  1.
<mgrwt>
<rscale>  2 0.29571712E+03</rscale>
<asrwt>0</asrwt>
<pdfrwt beam="1">  1       21 0.35140877E-01 0.29580697E+03</pdfrwt>
<pdfrwt beam="2">  1       21 0.87656223E-01 0.29580697E+03</pdfrwt>
<totfact> 0.81988824E+03</totfact>
</mgrwt>
</event>
<event>
12    1  0.1026879E-001  0.1830718E+03  0.7546771E-02  0.1165063E+00
         21   -1    0    0  503  502  0.00000000000E+00  0.00000000000E+00  0.99675911829E+02  0.99675911829E+02  0.00000000000E+00 0.  1.
         21   -1    0    0  501  503 -0.00000000000E+00 -0.00000000000E+00 -0.38097541611E+03  0.38097541611E+03  0.00000000000E+00 0.  1.
          6    2    1    2  501    0 -0.58164883538E+02  0.33147408031E+01 -0.57169742725E+02  0.19179067430E+03  0.17355443550E+03 0.  0.
         24    2    3    3    0    0 -0.39985508167E+02 -0.64616997601E+02 -0.50085530601E+02  0.12095645352E+03  0.79672492312E+02 0.  0.
         -6    2    1    2    0  502  0.58164883538E+02 -0.33147408031E+01 -0.22412976156E+03  0.28886065365E+03  0.17266205728E+03 0.  0.
        -24    2    5    5    0    0  0.10577213979E+03  0.61356672405E+01 -0.17268493936E+03  0.21797750479E+03  0.80428305617E+02 0.  0.
          5    1    3    3  501    0 -0.18179375371E+02  0.67931738404E+02 -0.70842121243E+01  0.70834220775E+02  0.47000000000E+01 0. -1.
        -13    1    4    4    0    0 -0.53595896966E+02 -0.19465820405E+02 -0.46651561391E+02  0.73673648721E+02  0.00000000000E+00 0.  1.
         14    1    4    4    0    0  0.13610388799E+02 -0.45151177196E+02 -0.34339692092E+01  0.47282804802E+02  0.00000000000E+00 0. -1.
         -5    1    5    5    0  502 -0.47607256254E+02 -0.94504080436E+01 -0.51444822199E+02  0.70883148853E+02  0.47000000000E+01 0.  1.
         11    1    6    6    0    0 -0.62687553063E+01  0.48924063837E+01 -0.54664661342E+02  0.55240004824E+02  0.00000000000E+00 0. -1.
        -12    1    6    6    0    0  0.11204089510E+03  0.12432608568E+01 -0.11802027802E+03  0.16273749997E+03  0.00000000000E+00 0.  1.
<mgrwt>
<rscale>  2 0.18285999E+03</rscale>
<asrwt>0</asrwt>
<pdfrwt beam="1">  1       21 0.15334756E-01 0.18307180E+03</pdfrwt>
<pdfrwt beam="2">  1       21 0.58611602E-01 0.18307180E+03</pdfrwt>
<totfact> 0.10303599E+05</totfact>
</mgrwt>
</event>
<event>
12    1  0.1026879E-001  0.2038211E+03  0.7546771E-02  0.1146618E+00
         21   -1    0    0  501  502  0.00000000000E+00  0.00000000000E+00  0.20938624827E+03  0.20938624827E+03  0.00000000000E+00 0.  1.
         21   -1    0    0  502  503 -0.00000000000E+00 -0.00000000000E+00 -0.20440722151E+03  0.20440722151E+03  0.00000000000E+00 0. -1.
         -6    2    1    2    0  503  0.76626171361E+02 -0.76581844831E+02 -0.33847119331E+02  0.20630734280E+03  0.17228100044E+03 0.  0.
        -24    2    3    3    0    0  0.93601714828E+01 -0.16083049384E+02 -0.69744451039E+02  0.10886234594E+03  0.81488923326E+02 0.  0.
          6    2    1    2  501    0 -0.76626171361E+02  0.76581844831E+02  0.38826146086E+02  0.20748612698E+03  0.17264609516E+03 0.  0.
         24    2    5    5    0    0 -0.11158506335E+03  0.24091358657E+02  0.17845115275E+02  0.14085528635E+03  0.80561427678E+02 0.  0.
          5    1    5    5  501    0  0.34958891992E+02  0.52490486174E+02  0.20981030811E+02  0.66630840622E+02  0.47000000000E+01 0. -1.
        -13    1    6    6    0    0 -0.52408021684E+02  0.14132218721E+02  0.49101884873E+02  0.73193684433E+02  0.00000000000E+00 0.  1.
         14    1    6    6    0    0 -0.59177041668E+02  0.99591399364E+01 -0.31256769598E+02  0.67661601921E+02  0.00000000000E+00 0. -1.
         -5    1    3    3    0  503  0.67265999878E+02 -0.60498795447E+02  0.35897331707E+02  0.97444996864E+02  0.47000000000E+01 0.  1.
         11    1    4    4    0    0  0.36155048326E+02 -0.35053074603E+02 -0.47340879800E+02  0.69116311091E+02  0.00000000000E+00 0. -1.
        -12    1    4    4    0    0 -0.26794876843E+02  0.18970025219E+02 -0.22403571239E+02  0.39746034848E+02  0.00000000000E+00 0.  1.
<mgrwt>
<rscale>  2 0.20374372E+03</rscale>
<asrwt>0</asrwt>
<pdfrwt beam="1">  1       21 0.32213269E-01 0.20382106E+03</pdfrwt>
<pdfrwt beam="2">  1       21 0.31447265E-01 0.20382106E+03</pdfrwt>
<totfact> 0.89681531E+04</totfact>
</mgrwt>
</event>
<event>
12    1  0.1026879E-001  0.2150956E+03  0.7546771E-02  0.1137634E+00
         21   -1    0    0  503  502  0.00000000000E+00  0.00000000000E+00  0.10952558961E+03  0.10952558961E+03  0.00000000000E+00 0.  1.
         21   -1    0    0  501  503 -0.00000000000E+00 -0.00000000000E+00 -0.57228005915E+03  0.57228005915E+03  0.00000000000E+00 0. -1.
          6    2    1    2  501    0 -0.33417505906E+02  0.12292056523E+03 -0.40615449593E+03  0.45959503438E+03  0.17332029889E+03 0.  0.
         24    2    3    3    0    0  0.30792986372E+02  0.82500108035E+02 -0.14465405481E+03  0.18726917923E+03  0.79940440833E+02 0.  0.
         -6    2    1    2    0  502  0.33417505906E+02 -0.12292056523E+03 -0.56599973613E+02  0.22221061438E+03  0.17305434138E+03 0.  0.
        -24    2    5    5    0    0  0.17278956269E+02 -0.93833412697E+02 -0.10432104600E+03  0.16385047407E+03  0.82830100497E+02 0.  0.
          5    1    3    3  501    0 -0.64210492278E+02  0.40420457198E+02 -0.26150044112E+03  0.27232585516E+03  0.47000000000E+01 0. -1.
        -13    1    4    4    0    0 -0.79528827091E+01  0.47445678650E+02 -0.19984902259E+02  0.52093541675E+02  0.00000000000E+00 0.  1.
         14    1    4    4    0    0  0.38745869081E+02  0.35054429385E+02 -0.12466915255E+03  0.13517563755E+03  0.00000000000E+00 0. -1.
         -5    1    5    5    0  502  0.16138549637E+02 -0.29087152536E+02  0.47721072384E+02  0.58360140306E+02  0.47000000000E+01 0.  1.
         13    1    6    6    0    0 -0.25214647481E+02 -0.61180958574E+02 -0.31109393882E+02  0.73121012899E+02  0.00000000000E+00 0. -1.
        -14    1    6    6    0    0  0.42493603749E+02 -0.32652454123E+02 -0.73211652115E+02  0.90729461176E+02  0.00000000000E+00 0.  1.
<mgrwt>
<rscale>  2 0.21504203E+03</rscale>
<asrwt>0</asrwt>
<pdfrwt beam="1">  1       21 0.16850091E-01 0.21509561E+03</pdfrwt>
<pdfrwt beam="2">  1       21 0.88043084E-01 0.21509561E+03</pdfrwt>
<totfact> 0.34628295E+04</totfact>
</mgrwt>
</event>
<event>
12    1  0.1026879E-001  0.2228119E+03  0.7546771E-02  0.1132086E+00
         21   -1    0    0  503  502  0.00000000000E+00  0.00000000000E+00  0.23404331256E+03  0.23404331256E+03  0.00000000000E+00 0. -1.
         21   -1    0    0  501  503 -0.00000000000E+00 -0.00000000000E+00 -0.25346286007E+03  0.25346286007E+03  0.00000000000E+00 0.  1.
          6    2    1    2  501    0  0.13734143392E+03 -0.57829159594E+00 -0.10990317021E+03  0.24844285318E+03  0.17544839863E+03 0.  0.
         24    2    3    3    0    0  0.11501768676E+03  0.89825504862E+01 -0.46664111925E+01  0.14033815931E+03  0.79770101438E+02 0.  0.
         -6    2    1    2    0  502 -0.13734143392E+03  0.57829159594E+00  0.90483622697E+02  0.23906331946E+03  0.17349634244E+03 0.  0.
        -24    2    5    5    0    0 -0.56035085226E+02 -0.64492032639E+02  0.57704710474E+02  0.12978653089E+03  0.78838803509E+02 0.  0.
          5    1    3    3  501    0  0.22323747156E+02 -0.95608420821E+01 -0.10523675902E+03  0.10810469387E+03  0.47000000000E+01 0. -1.
        -11    1    4    4    0    0  0.70591082250E+01 -0.25869530495E+02 -0.76097081581E+00  0.26826156891E+02  0.00000000000E+00 0.  1.
         12    1    4    4    0    0  0.10795857853E+03  0.34852080981E+02 -0.39054403767E+01  0.11351200242E+03  0.00000000000E+00 0. -1.
         -5    1    5    5    0  502 -0.81306348690E+02  0.65070324235E+02  0.32778912223E+02  0.10927678857E+03  0.47000000000E+01 0.  1.
         11    1    6    6    0    0 -0.36442067121E+02 -0.50542883971E+01  0.56216177209E+02  0.67185033060E+02  0.00000000000E+00 0. -1.
        -12    1    6    6    0    0 -0.19593018105E+02 -0.59437744242E+02  0.14885332652E+01  0.62601497828E+02  0.00000000000E+00 0.  1.
<mgrwt>
<rscale>  2 0.22242745E+03</rscale>
<asrwt>0</asrwt>
<pdfrwt beam="1">  1       21 0.36006664E-01 0.22281190E+03</pdfrwt>
<pdfrwt beam="2">  1       21 0.38994286E-01 0.22281190E+03</pdfrwt>
<totfact> 0.46487452E+04</totfact>
</mgrwt>
</event>
<event>
12    1  0.1026879E-001  0.2735578E+03  0.7546771E-02  0.1100364E+00
         21   -1    0    0  503  502  0.00000000000E+00  0.00000000000E+00  0.56859253826E+03  0.56859253826E+03  0.00000000000E+00 0. -1.
         21   -1    0    0  501  503 -0.00000000000E+00 -0.00000000000E+00 -0.27877146716E+03  0.27877146716E+03  0.00000000000E+00 0.  1.
          6    2    1    2  501    0  0.14279356027E+03 -0.14522074872E+03 -0.16578630846E+03  0.31987332539E+03  0.18263290368E+03 0.  0.
         24    2    3    3    0    0  0.65583683441E+01 -0.82678068048E+02 -0.11022649426E+03  0.15993397007E+03  0.80934044845E+02 0.  0.
         -6    2    1    2    0  502 -0.14279356027E+03  0.14522074872E+03  0.45560737956E+03  0.52749068003E+03  0.17084866549E+03 0.  0.
        -24    2    5    5    0    0 -0.11027388093E+02  0.48380832568E+02  0.10451024930E+03  0.14015158006E+03  0.79106036035E+02 0.  0.
          5    1    3    3  501    0  0.13623519192E+03 -0.62542680676E+02 -0.55559814200E+02  0.15993935532E+03  0.47000000000E+01 0. -1.
        -11    1    4    4    0    0  0.11951899435E+02 -0.87442736432E+02 -0.11927243339E+03  0.14837450395E+03  0.00000000000E+00 0.  1.
         12    1    4    4    0    0 -0.53935310907E+01  0.47646683835E+01  0.90459391286E+01  0.11559466127E+02  0.00000000000E+00 0. -1.
         -5    1    5    5    0  502 -0.13176617217E+03  0.96839916156E+02  0.35109713026E+03  0.38733909997E+03  0.47000000000E+01 0.  1.
         11    1    6    6    0    0 -0.22546463329E+02  0.18702005999E+02  0.10427849694E+03  0.10831487876E+03  0.00000000000E+00 0. -1.
        -12    1    6    6    0    0  0.11519075235E+02  0.29678826569E+02  0.23175236323E+00  0.31836701305E+02  0.00000000000E+00 0.  1.
<mgrwt>
<rscale>  2 0.27160632E+03</rscale>
<asrwt>0</asrwt>
<pdfrwt beam="1">  1       21 0.87475775E-01 0.27355775E+03</pdfrwt>
<pdfrwt beam="2">  1       21 0.42887918E-01 0.27355775E+03</pdfrwt>
<totfact> 0.55601315E+03</totfact>
</mgrwt>
</event>
<event>
12    1  0.1026879E-001  0.2109974E+03  0.7546771E-02  0.1141083E+00
         21   -1    0    0  501  502  0.00000000000E+00  0.00000000000E+00  0.35757033458E+02  0.35757033458E+02  0.00000000000E+00 0.  1.
         21   -1    0    0  502  503 -0.00000000000E+00 -0.00000000000E+00 -0.13813109607E+04  0.13813109607E+04  0.00000000000E+00 0. -1.
         -6    2    1    2    0  503  0.70563378601E+02 -0.99208422647E+02 -0.44516314413E+03  0.49263588025E+03  0.17233219111E+03 0.  0.
        -24    2    3    3    0    0 -0.11817864653E+02 -0.15885991151E+02 -0.26409017770E+03  0.27690733322E+03  0.80882770689E+02 0.  0.
          6    2    1    2  501    0 -0.70563378601E+02  0.99208422647E+02 -0.90039078310E+03  0.92443211389E+03  0.17043963562E+03 0.  0.
         24    2    5    5    0    0 -0.32725090195E+02  0.65267063540E+02 -0.83275030013E+03  0.83969087916E+03  0.79227451522E+02 0.  0.
          5    1    5    5  501    0 -0.37838288407E+02  0.33941359108E+02 -0.67640482971E+02  0.84741234733E+02  0.47000000000E+01 0. -1.
        -13    1    6    6    0    0  0.63180145750E+01  0.60806932873E+01 -0.79119409533E+01  0.11810628632E+02  0.00000000000E+00 0.  1.
         14    1    6    6    0    0 -0.39043104769E+02  0.59186370252E+02 -0.82483835917E+03  0.82788025053E+03  0.00000000000E+00 0. -1.
         -5    1    3    3    0  503  0.82381243255E+02 -0.83322431497E+02 -0.18107296643E+03  0.21572854702E+03  0.47000000000E+01 0.  1.
         13    1    4    4    0    0  0.12942892657E+02 -0.16566736864E+02 -0.24429834872E+03  0.24520126106E+03  0.00000000000E+00 0. -1.
        -14    1    4    4    0    0 -0.24760757310E+02  0.68074571332E+00 -0.19791828985E+02  0.31706072160E+02  0.00000000000E+00 0.  1.
<mgrwt>
<rscale>  2 0.21061057E+03</rscale>
<asrwt>0</asrwt>
<pdfrwt beam="1">  1       21 0.55010808E-02 0.21099736E+03</pdfrwt>
<pdfrwt beam="2">  1       21 0.21250943E+00 0.21099736E+03</pdfrwt>
<totfact> 0.25248362E+04</totfact>
</mgrwt>
</event>
<event>
12    1  0.1026879E-001  0.1862896E+03  0.7546771E-02  0.1162853E+00
         21   -1    0    0  503  502  0.00000000000E+00  0.00000000000E+00  0.57548063825E+03  0.57548063825E+03  0.00000000000E+00 0.  1.
         21   -1    0    0  501  503 -0.00000000000E+00 -0.00000000000E+00 -0.98361106869E+02  0.98361106869E+02  0.00000000000E+00 0.  1.
          6    2    1    2  501    0  0.37352984480E+02  0.57452448174E+02  0.23579704756E+02  0.18353349535E+03  0.16861943005E+03 0.  0.
         24    2    3    3    0    0  0.89245223244E+02  0.30728275598E+02  0.23331519820E+02  0.12497465794E+03  0.78519860649E+02 0.  0.
         -6    2    1    2    0  502 -0.37352984480E+02 -0.57452448174E+02  0.45353982663E+03  0.49030824977E+03  0.17322752727E+03 0.  0.
        -24    2    5    5    0    0 -0.21507428497E+02 -0.13443514264E+02  0.89547774865E+02  0.12329302985E+03  0.80864514277E+02 0.  0.
          5    1    3    3  501    0 -0.51892238764E+02  0.26724172575E+02  0.24818493661E+00  0.58558837416E+02  0.47000000000E+01 0. -1.
        -11    1    4    4    0    0  0.36723704188E+02  0.82798079939E+01 -0.28990636344E+02  0.47514657374E+02  0.00000000000E+00 0.  1.
         12    1    4    4    0    0  0.52521519056E+02  0.22448467605E+02  0.52322156164E+02  0.77460000564E+02  0.00000000000E+00 0. -1.
         -5    1    5    5    0  502 -0.15845555983E+02 -0.44008933909E+02  0.36399205176E+03  0.36701521992E+03  0.47000000000E+01 0.  1.
         13    1    6    6    0    0 -0.25024640086E+01 -0.34016411322E+02  0.53074593016E+01  0.34518801972E+02  0.00000000000E+00 0. -1.
        -14    1    6    6    0    0 -0.19004964488E+02  0.20572897058E+02  0.84240315564E+02  0.88774227875E+02  0.00000000000E+00 0.  1.
<mgrwt>
<rscale>  2 0.18521097E+03</rscale>
<asrwt>0</asrwt>
<pdfrwt beam="1">  1       21 0.88535481E-01 0.18628957E+03</pdfrwt>
<pdfrwt beam="2">  1       21 0.15132478E-01 0.18628957E+03</pdfrwt>
<totfact> 0.42261243E+04</totfact>
</mgrwt>
</event>
<event>
12    1  0.1026879E-001  0.2667763E+03  0.7546771E-02  0.1104165E+00
         21   -1    0    0  501  502  0.00000000000E+00  0.00000000000E+00  0.58766507313E+03  0.58766507313E+03  0.00000000000E+00 0.  1.
         21   -1    0    0  502  503 -0.00000000000E+00 -0.00000000000E+00 -0.12544199148E+03  0.12544199148E+03  0.00000000000E+00 0.  1.
         -6    2    1    2    0  503 -0.16703842174E+03 -0.96726172409E+02  0.14694243456E+03  0.30456798723E+03  0.18415154901E+03 0.  0.
        -24    2    3    3    0    0 -0.18449896285E+03 -0.55592588619E+02  0.15512517953E+03  0.25889644766E+03  0.76375035722E+02 0.  0.
          6    2    1    2  501    0  0.16703842174E+03  0.96726172409E+02  0.31528064709E+03  0.40853907739E+03  0.17390947232E+03 0.  0.
         24    2    5    5    0    0  0.98792075186E+01  0.52277941849E+02  0.11066207755E+03  0.14668890494E+03  0.80255575999E+02 0.  0.
          5    1    5    5  501    0  0.15715921422E+03  0.44448230561E+02  0.20461856954E+03  0.26185017245E+03  0.47000000000E+01 0. -1.
        -11    1    6    6    0    0  0.16845762296E+02  0.52531063741E+02  0.24697603324E+02  0.60442236681E+02  0.00000000000E+00 0.  1.
         12    1    6    6    0    0 -0.69665547775E+01 -0.25312189184E+00  0.85964474231E+02  0.86246668260E+02  0.00000000000E+00 0. -1.
         -5    1    3    3    0  503  0.17460541115E+02 -0.41133583791E+02 -0.81827449699E+01  0.45671539571E+02  0.47000000000E+01 0.  1.
         13    1    4    4    0    0 -0.26048773358E+02  0.18640146552E+02  0.19373341144E+02  0.37434209008E+02  0.00000000000E+00 0. -1.
        -14    1    4    4    0    0 -0.15845018949E+03 -0.74232735171E+02  0.13575183839E+03  0.22146223865E+03  0.00000000000E+00 0.  1.
<mgrwt>
<rscale>  2 0.26501790E+03</rscale>
<asrwt>0</asrwt>
<pdfrwt beam="1">  1       21 0.90410009E-01 0.26677627E+03</pdfrwt>
<pdfrwt beam="2">  1       21 0.19298768E-01 0.26677627E+03</pdfrwt>
<totfact> 0.24683845E+04</totfact>
</mgrwt>
</event>
<event>
12    1  0.1026879E-001  0.2663751E+03  0.7546771E-02  0.1103393E+00
         21   -1    0    0  503  502  0.00000000000E+00  0.00000000000E+00  0.77095372342E+02  0.77095372342E+02  0.00000000000E+00 0. -1.
         21   -1    0    0  501  503 -0.00000000000E+00 -0.00000000000E+00 -0.10912026021E+04  0.10912026021E+04  0.00000000000E+00 0. -1.
          6    2    1    2  501    0 -0.10863363518E+03 -0.17105246818E+03 -0.27546441398E+03  0.38309168020E+03  0.17267998872E+03 0.  0.
         24    2    3    3    0    0  0.50699418199E+01 -0.56568730092E+02 -0.14114509812E+03  0.17309454135E+03  0.82547295476E+02 0.  0.
         -6    2    1    2    0  502  0.10863363518E+03  0.17105246818E+03 -0.73864281575E+03  0.78520629422E+03  0.17290315686E+03 0.  0.
        -24    2    5    5    0    0 -0.44827626748E+01  0.11983235139E+03 -0.39340638570E+03  0.41828790756E+03  0.76264681900E+02 0.  0.
          5    1    3    3  501    0 -0.11370357700E+03 -0.11448373809E+03 -0.13431931587E+03  0.20999713885E+03  0.47000000000E+01 0. -1.
        -13    1    4    4    0    0 -0.20406010223E+02  0.46544302342E+01 -0.47918492688E+01  0.21471627638E+02  0.00000000000E+00 0.  1.
         14    1    4    4    0    0  0.25475952042E+02 -0.61223160327E+02 -0.13635324885E+03  0.15162291372E+03  0.00000000000E+00 0. -1.
         -5    1    5    5    0  502  0.11311639785E+03  0.51220116791E+02 -0.34523643006E+03  0.36691838666E+03  0.47000000000E+01 0.  1.
         13    1    6    6    0    0  0.18852527707E+02  0.11656369807E+03 -0.31437459429E+03  0.33581825299E+03  0.00000000000E+00 0. -1.
        -14    1    6    6    0    0 -0.23335290382E+02  0.32686533194E+01 -0.79031791407E+02  0.82469654569E+02  0.00000000000E+00 0.  1.
<mgrwt>
<rscale>  2 0.26633893E+03</rscale>
<asrwt>0</asrwt>
<pdfrwt beam="1">  1       21 0.11860826E-01 0.26637514E+03</pdfrwt>
<pdfrwt beam="2">  1       21 0.16787733E+00 0.26637514E+03</pdfrwt>
<totfact> 0.12606223E+04</totfact>
</mgrwt>
</event>
<event>
12    1  0.1026879E-001  0.2311986E+03  0.7546771E-02  0.1125824E+00
         21   -1    0    0  501  502  0.00000000000E+00  0.00000000000E+00  0.56276635179E+03  0.56276635179E+03  0.00000000000E+00 0.  1.
         21   -1    0    0  502  503 -0.00000000000E+00 -0.00000000000E+00 -0.94927913015E+02  0.94927913015E+02  0.00000000000E+00 0.  1.
         -6    2    1    2    0  503 -0.15537465387E+03 -0.15041868938E+02  0.23162580328E+03  0.32716560438E+03  0.17035045952E+03 0.  0.
        -24    2    3    3    0    0 -0.59199864607E+02 -0.32841892549E+02  0.43273433283E+02  0.11488009801E+03  0.82107447990E+02 0.  0.
          6    2    1    2  501    0  0.15537465387E+03  0.15041868938E+02  0.23621263549E+03  0.33052866042E+03  0.17054396884E+03 0.  0.
         24    2    5    5    0    0  0.34911131665E+02  0.57456755797E+02  0.10281195950E+03  0.14579016101E+03  0.78513732113E+02 0.  0.
          5    1    5    5  501    0  0.12046352221E+03 -0.42414886859E+02  0.13340067599E+03  0.18473849941E+03  0.47000000000E+01 0. -1.
        -11    1    6    6    0    0  0.99788366649E+01 -0.10168251702E+02  0.60625419285E+02  0.62276897701E+02  0.00000000000E+00 0.  1.
         12    1    6    6    0    0  0.24932295000E+02  0.67625007500E+02  0.42186540220E+02  0.83513263312E+02  0.00000000000E+00 0. -1.
         -5    1    3    3    0  503 -0.96174789266E+02  0.17800023611E+02  0.18835237000E+03  0.21228550637E+03  0.47000000000E+01 0.  1.
         11    1    4    4    0    0 -0.36364551050E+02  0.24057324867E+02  0.85928816619E+01  0.44440669078E+02  0.00000000000E+00 0. -1.
        -12    1    4    4    0    0 -0.22835313556E+02 -0.56899217416E+02  0.34680551622E+02  0.70439428934E+02  0.00000000000E+00 0.  1.
<mgrwt>
<rscale>  2 0.23116290E+03</rscale>
<asrwt>0</asrwt>
<pdfrwt beam="1">  1       21 0.86579437E-01 0.23119859E+03</pdfrwt>
<pdfrwt beam="2">  1       21 0.14604295E-01 0.23119859E+03</pdfrwt>
<totfact> 0.46430259E+04</totfact>
</mgrwt>
</event>
<event>
12    1  0.1026879E-001  0.1756214E+03  0.7546771E-02  0.1172324E+00
         21   -1    0    0  503  502  0.00000000000E+00  0.00000000000E+00  0.22331871179E+03  0.22331871179E+03  0.00000000000E+00 0. -1.
         21   -1    0    0  501  503 -0.00000000000E+00 -0.00000000000E+00 -0.19889003673E+03  0.19889003673E+03  0.00000000000E+00 0. -1.
          6    2    1    2  501    0  0.31875980392E+02 -0.10725982078E+02 -0.10510756316E+03  0.20467163019E+03  0.17237097074E+03 0.  0.
         24    2    3    3    0    0 -0.36091948763E+01  0.90439691711E+01  0.10493378980E+02  0.82051417908E+02  0.80792973161E+02 0.  0.
         -6    2    1    2    0  502 -0.31875980392E+02  0.10725982078E+02  0.12953623822E+03  0.21753711833E+03  0.17149820996E+03 0.  0.
        -24    2    5    5    0    0  0.28837841471E+02  0.53164643035E+02  0.98148252712E+02  0.13694863439E+03  0.73917173791E+02 0.  0.
          5    1    3    3  501    0  0.35485175268E+02 -0.19769951249E+02 -0.11560094214E+03  0.12262021228E+03  0.47000000000E+01 0. -1.
        -13    1    4    4    0    0 -0.22298879586E+02  0.22701331608E+02 -0.24454651004E+02  0.40132535969E+02  0.00000000000E+00 0.  1.
         14    1    4    4    0    0  0.18689684709E+02 -0.13657362437E+02  0.34948029984E+02  0.41918881939E+02  0.00000000000E+00 0. -1.
         -5    1    5    5    0  502 -0.60713821863E+02 -0.42438660958E+02  0.31387985507E+02  0.80588483937E+02  0.47000000000E+01 0.  1.
         11    1    6    6    0    0 -0.14068787693E+01  0.33727475656E+02  0.95046507116E+02  0.10086307767E+03  0.00000000000E+00 0. -1.
        -12    1    6    6    0    0  0.30244720240E+02  0.19437167379E+02  0.31017455961E+01  0.36085556721E+02  0.00000000000E+00 0.  1.
<mgrwt>
<rscale>  2 0.17540688E+03</rscale>
<asrwt>0</asrwt>
<pdfrwt beam="1">  1       21 0.34356725E-01 0.17562140E+03</pdfrwt>
<pdfrwt beam="2">  1       21 0.30598467E-01 0.17562140E+03</pdfrwt>
<totfact> 0.84285262E+04</totfact>
</mgrwt>
</event>
<event>
12    1  0.1026879E-001  0.1864280E+03  0.7546771E-02  0.1162160E+00
         21   -1    0    0  501  502  0.00000000000E+00  0.00000000000E+00  0.12533115631E+04  0.12533115631E+04  0.00000000000E+00 0.  1.
         21   -1    0    0  502  503 -0.00000000000E+00 -0.00000000000E+00 -0.27605031130E+02  0.27605031130E+02  0.00000000000E+00 0.  1.
         -6    2    1    2    0  503 -0.32772300978E+02  0.57237066343E+02  0.65744587537E+03  0.68285675952E+03  0.17236057990E+03 0.  0.
        -24    2    3    3    0    0 -0.63054679513E+02  0.62262804953E+02  0.63040676608E+03  0.64168050508E+03  0.80552035301E+02 0.  0.
          6    2    1    2  501    0  0.32772300978E+02 -0.57237066343E+02  0.56826065664E+03  0.59805983475E+03  0.17437111740E+03 0.  0.
         24    2    5    5    0    0  0.48952818912E+02 -0.91647435381E+02  0.51683618037E+03  0.53393145244E+03  0.84661252508E+02 0.  0.
          5    1    5    5  501    0 -0.16180517934E+02  0.34410369038E+02  0.51424476268E+02  0.64128382308E+02  0.47000000000E+01 0. -1.
        -11    1    6    6    0    0  0.43374767948E+02 -0.21485803217E+01  0.19927743436E+03  0.20395460951E+03  0.00000000000E+00 0.  1.
         12    1    6    6    0    0  0.55780509642E+01 -0.89498855059E+02  0.31755874601E+03  0.32997684294E+03  0.00000000000E+00 0. -1.
         -5    1    3    3    0  503  0.30282378535E+02 -0.50257386104E+01  0.27039109290E+02  0.41176254438E+02  0.47000000000E+01 0.  1.
         11    1    4    4    0    0 -0.33657037126E+02 -0.30848630396E+01  0.37170553142E+03  0.37323895110E+03  0.00000000000E+00 0. -1.
        -12    1    4    4    0    0 -0.29397642387E+02  0.65347667993E+02  0.25870123466E+03  0.26844155399E+03  0.00000000000E+00 0.  1.
<mgrwt>
<rscale>  2 0.18595641E+03</rscale>
<asrwt>0</asrwt>
<pdfrwt beam="1">  1       21 0.19281712E+00 0.18642798E+03</pdfrwt>
<pdfrwt beam="2">  1       21 0.42469288E-02 0.18642798E+03</pdfrwt>
<totfact> 0.53173570E+04</totfact>
</mgrwt>
</event>
<event>
12    1  0.1026879E-001  0.2453893E+03  0.7546771E-02  0.1116312E+00
         21   -1    0    0  503  502  0.00000000000E+00  0.00000000000E+00  0.83523401938E+03  0.83523401938E+03  0.00000000000E+00 0. -1.
         21   -1    0    0  501  503 -0.00000000000E+00 -0.00000000000E+00 -0.18611623373E+03  0.18611623373E+03  0.00000000000E+00 0. -1.
          6    2    1    2  501    0  0.17060924336E+03  0.27019730937E+02 -0.75430171308E+02  0.25637596928E+03  0.17378534777E+03 0.  0.
         24    2    3    3    0    0  0.15798998684E+03  0.76859428509E+02 -0.61138255653E+02  0.20280741561E+03  0.80775948337E+02 0.  0.
         -6    2    1    2    0  502 -0.17060924336E+03 -0.27019730937E+02  0.72454795696E+03  0.76497428383E+03  0.17429381286E+03 0.  0.
        -24    2    5    5    0    0 -0.19027457922E+03  0.18640896599E+01  0.56094711135E+03  0.59761739807E+03  0.79227535692E+02 0.  0.
          5    1    3    3  501    0  0.12619256523E+02 -0.49839697573E+02 -0.14291915655E+02  0.53568553671E+02  0.47000000000E+01 0. -1.
        -13    1    4    4    0    0  0.16153253852E+02  0.40572301395E+02  0.11932997795E+01  0.43685961301E+02  0.00000000000E+00 0.  1.
         14    1    4    4    0    0  0.14183673298E+03  0.36287127115E+02 -0.62331555432E+02  0.15912145431E+03  0.00000000000E+00 0. -1.
         -5    1    5    5    0  502  0.19665335864E+02 -0.28883820597E+02  0.16360084561E+03  0.16735688576E+03  0.47000000000E+01 0.  1.
         11    1    6    6    0    0 -0.63625549662E+01  0.19573060891E+02  0.73554145196E+02  0.76379310640E+02  0.00000000000E+00 0. -1.
        -12    1    6    6    0    0 -0.18391202426E+03 -0.17708971231E+02  0.48739296616E+03  0.52123808743E+03  0.00000000000E+00 0.  1.
<mgrwt>
<rscale>  2 0.24529904E+03</rscale>
<asrwt>0</asrwt>
<pdfrwt beam="1">  1       21 0.12849754E+00 0.24538931E+03</pdfrwt>
<pdfrwt beam="2">  1       21 0.28633267E-01 0.24538931E+03</pdfrwt>
<totfact> 0.49937140E+03</totfact>
</mgrwt>
</event>
<event>
12    1  0.1026879E-001  0.1873047E+03  0.7546771E-02  0.1161174E+00
         21   -1    0    0  503  502  0.00000000000E+00  0.00000000000E+00  0.11710647801E+03  0.11710647801E+03  0.00000000000E+00 0.  1.
         21   -1    0    0  501  503 -0.00000000000E+00 -0.00000000000E+00 -0.41079620234E+03  0.41079620234E+03  0.00000000000E+00 0. -1.
          6    2    1    2  501    0  0.52364745814E+02  0.45670648525E+02 -0.28560407305E+03  0.34154461460E+03  0.17394011176E+03 0.  0.
         24    2    3    3    0    0 -0.23160753840E+02 -0.21308718186E+02 -0.12881433647E+03  0.15500923415E+03  0.80276069923E+02 0.  0.
         -6    2    1    2    0  502 -0.52364745814E+02 -0.45670648525E+02 -0.80856512787E+01  0.18635806575E+03  0.17273122524E+03 0.  0.
        -24    2    5    5    0    0 -0.50798967126E+02 -0.92573906674E+02 -0.29468535244E+01  0.13891478877E+03  0.90211813728E+02 0.  0.
          5    1    3    3  501    0  0.75525499653E+02  0.66979366711E+02 -0.15678973657E+03  0.18653538044E+03  0.47000000000E+01 0. -1.
        -11    1    4    4    0    0 -0.10949223518E+02  0.22550751089E+02 -0.86655926267E+01  0.26523845233E+02  0.00000000000E+00 0.  1.
         12    1    4    4    0    0 -0.12211530321E+02 -0.43859469275E+02 -0.12014874385E+03  0.12848538892E+03  0.00000000000E+00 0. -1.
         -5    1    5    5    0  502 -0.15657786874E+01  0.46903258149E+02 -0.51387977544E+01  0.47443276977E+02  0.47000000000E+01 0.  1.
         11    1    6    6    0    0 -0.26717765448E+02 -0.38699636136E+02 -0.46064924611E+02  0.65829158486E+02  0.00000000000E+00 0. -1.
        -12    1    6    6    0    0 -0.24081201678E+02 -0.53874270538E+02  0.43118071086E+02  0.73085630287E+02  0.00000000000E+00 0.  1.
<mgrwt>
<rscale>  2 0.18702351E+03</rscale>
<asrwt>0</asrwt>
<pdfrwt beam="1">  1       21 0.18016382E-01 0.18730466E+03</pdfrwt>
<pdfrwt beam="2">  1       21 0.63199414E-01 0.18730466E+03</pdfrwt>
<totfact> 0.65082558E+04</totfact>
</mgrwt>
</event>
<event>
12    1  0.1026879E-001  0.3499874E+03  0.7546771E-02  0.1062649E+00
         21   -1    0    0  501  502  0.00000000000E+00  0.00000000000E+00  0.10078613621E+03  0.10078613621E+03  0.00000000000E+00 0. -1.
         21   -1    0    0  502  503 -0.00000000000E+00 -0.00000000000E+00 -0.19287245845E+04  0.19287245845E+04  0.00000000000E+00 0. -1.
         -6    2    1    2    0  503  0.14154022143E+03  0.26882900251E+03 -0.15312952999E+04  0.15707206759E+04  0.17319203052E+03 0.  0.
        -24    2    3    3    0    0  0.42342640053E+02  0.16279936173E+03 -0.58350113296E+03  0.61185764205E+03  0.74830946913E+02 0.  0.
          6    2    1    2  501    0 -0.14154022143E+03 -0.26882900251E+03 -0.29664314843E+03  0.45879004482E+03  0.17374832616E+03 0.  0.
         24    2    5    5    0    0 -0.23748467778E+02 -0.85130875021E+02 -0.16515524744E+03  0.20397431262E+03  0.80734186359E+02 0.  0.
          5    1    5    5  501    0 -0.11779175365E+03 -0.18369812749E+03 -0.13148790098E+03  0.25481573220E+03  0.47000000000E+01 0. -1.
        -13    1    6    6    0    0  0.15813180399E+02 -0.73500474815E+02 -0.82591673357E+02  0.11168599277E+03  0.00000000000E+00 0.  1.
         14    1    6    6    0    0 -0.39561648177E+02 -0.11630400207E+02 -0.82563574087E+02  0.92288319854E+02  0.00000000000E+00 0. -1.
         -5    1    3    3    0  503  0.99197581373E+02  0.10602964078E+03 -0.94779416689E+03  0.95886303384E+03  0.47000000000E+01 0.  1.
         11    1    4    4    0    0  0.61468623058E+02  0.13836890277E+03 -0.51192857510E+03  0.53384942716E+03  0.00000000000E+00 0. -1.
        -12    1    4    4    0    0 -0.19125983005E+02  0.24430458956E+02 -0.71572557857E+02  0.78008214881E+02  0.00000000000E+00 0.  1.
<mgrwt>
<rscale>  2 0.34991837E+03</rscale>
<asrwt>0</asrwt>
<pdfrwt beam="1">  1       21 0.15505561E-01 0.34998735E+03</pdfrwt>
<pdfrwt beam="2">  1       21 0.29672684E+00 0.34998735E+03</pdfrwt>
<totfact> 0.11323681E+03</totfact>
</mgrwt>
</event>
<event>
12    1  0.1026879E-001  0.1859175E+03  0.7546771E-02  0.1162250E+00
         21   -1    0    0  501  502  0.00000000000E+00  0.00000000000E+00  0.23340492110E+03  0.23340492110E+03  0.00000000000E+00 0.  1.
         21   -1    0    0  502  503 -0.00000000000E+00 -0.00000000000E+00 -0.23155041273E+03  0.23155041273E+03  0.00000000000E+00 0.  1.
         -6    2    1    2    0  503  0.46583638391E+02 -0.49873907884E+02 -0.13879920764E+03  0.23182705246E+03  0.17268792707E+03 0.  0.
        -24    2    3    3    0    0  0.10340529131E+02 -0.86515697587E+02 -0.49037779219E+02  0.12821533616E+03  0.80265659932E+02 0.  0.
          6    2    1    2  501    0 -0.46583638391E+02  0.49873907884E+02  0.14065371601E+03  0.23312828138E+03  0.17293896523E+03 0.  0.
         24    2    5    5    0    0  0.12123584821E+02  0.22521734027E+02  0.14509656448E+03  0.16803981562E+03  0.80809385580E+02 0.  0.
          5    1    5    5  501    0 -0.58707223212E+02  0.27352173857E+02 -0.44428484658E+01  0.65088465756E+02  0.47000000000E+01 0. -1.
        -13    1    6    6    0    0 -0.30939504089E+02  0.58696639645E+01  0.94186704388E+02  0.99311837924E+02  0.00000000000E+00 0.  1.
         14    1    6    6    0    0  0.43063088910E+02  0.16652070062E+02  0.50909860092E+02  0.68727977698E+02  0.00000000000E+00 0. -1.
         -5    1    3    3    0  503  0.36243109260E+02  0.36641789703E+02 -0.89761428423E+02  0.10361171630E+03  0.47000000000E+01 0.  1.
         11    1    4    4    0    0  0.38310716631E+02 -0.47682972356E+02 -0.51976647479E+02  0.80267980818E+02  0.00000000000E+00 0. -1.
        -12    1    4    4    0    0 -0.27970187499E+02 -0.38832725231E+02  0.29388682607E+01  0.47947355342E+02  0.00000000000E+00 0.  1.
<mgrwt>
<rscale>  2 0.18585913E+03</rscale>
<asrwt>0</asrwt>
<pdfrwt beam="1">  1       21 0.35908449E-01 0.18591753E+03</pdfrwt>
<pdfrwt beam="2">  1       21 0.35623140E-01 0.18591753E+03</pdfrwt>
<totfact> 0.56995807E+04</totfact>
</mgrwt>
</event>
<event>
12    1  0.1026879E-001  0.1869225E+03  0.7546771E-02  0.1161306E+00
         21   -1    0    0  501  502  0.00000000000E+00  0.00000000000E+00  0.16220731126E+03  0.16220731126E+03  0.00000000000E+00 0. -1.
         21   -1    0    0  502  503 -0.00000000000E+00 -0.00000000000E+00 -0.47632479078E+03  0.47632479078E+03  0.00000000000E+00 0. -1.
         -6    2    1    2    0  503  0.55640189956E+02 -0.42904287095E+02 -0.39347616234E+03  0.43561854709E+03  0.17321495217E+03 0.  0.
        -24    2    3    3    0    0  0.99614239522E+02 -0.12704166264E+02 -0.22806850974E+03  0.26175783885E+03  0.80109478270E+02 0.  0.
          6    2    1    2  501    0 -0.55640189956E+02  0.42904287095E+02  0.79358682816E+02  0.20291355495E+03  0.17303034894E+03 0.  0.
         24    2    5    5    0    0  0.35492691765E+02  0.31472941025E+02  0.34484004482E+02  0.10058220805E+03  0.81715095455E+02 0.  0.
          5    1    5    5  501    0 -0.91132881721E+02  0.11431346071E+02  0.44874678334E+02  0.10233134690E+03  0.47000000000E+01 0. -1.
        -11    1    6    6    0    0 -0.76974100763E+01  0.25758080382E+02 -0.18014281629E+02  0.32361136715E+02  0.00000000000E+00 0.  1.
         12    1    6    6    0    0  0.43190101841E+02  0.57148606426E+01  0.52498286111E+02  0.68221071333E+02  0.00000000000E+00 0. -1.
         -5    1    3    3    0  503 -0.43974049566E+02 -0.30200120831E+02 -0.16540765260E+03  0.17386070824E+03  0.47000000000E+01 0.  1.
         13    1    4    4    0    0  0.70546538345E+02  0.20661826563E+02 -0.18875933772E+03  0.20256804468E+03  0.00000000000E+00 0. -1.
        -14    1    4    4    0    0  0.29067701177E+02 -0.33365992827E+02 -0.39309172024E+02  0.59189794174E+02  0.00000000000E+00 0.  1.
<mgrwt>
<rscale>  2 0.18687974E+03</rscale>
<asrwt>0</asrwt>
<pdfrwt beam="1">  1       21 0.24954971E-01 0.18692252E+03</pdfrwt>
<pdfrwt beam="2">  1       21 0.73280736E-01 0.18692252E+03</pdfrwt>
<totfact> 0.25529112E+04</totfact>
</mgrwt>
</event>
<event>
12    1  0.1026879E-001  0.1760971E+03  0.7546771E-02  0.1171801E+00
         21   -1    0    0  501  502  0.00000000000E+00  0.00000000000E+00  0.16394689674E+03  0.16394689674E+03  0.00000000000E+00 0. -1.
         21   -1    0    0  502  503 -0.00000000000E+00 -0.00000000000E+00 -0.31250184241E+03  0.31250184241E+03  0.00000000000E+00 0. -1.
         -6    2    1    2    0  503  0.83176513740E+01 -0.25364979761E+02 -0.22429711449E+03  0.28475348797E+03  0.17338623884E+03 0.  0.
        -24    2    3    3    0    0 -0.35865987035E+02 -0.70699192082E+02 -0.16528951777E+03  0.19808532092E+03  0.75049482945E+02 0.  0.
          6    2    1    2  501    0 -0.83176513740E+01  0.25364979761E+02  0.75742168825E+02  0.19169525117E+03  0.17406213735E+03 0.  0.
         24    2    5    5    0    0  0.16901682427E+02 -0.26541247037E+02  0.97991490337E+02  0.12966789039E+03  0.78875376110E+02 0.  0.
          5    1    5    5  501    0 -0.25219333801E+02  0.51906226798E+02 -0.22249321511E+02  0.62027360781E+02  0.47000000000E+01 0. -1.
        -11    1    6    6    0    0  0.38452757812E+02 -0.25942024036E+02  0.23263653781E+02  0.51892203476E+02  0.00000000000E+00 0.  1.
         12    1    6    6    0    0 -0.21551075385E+02 -0.59922300118E+00  0.74727836556E+02  0.77775686913E+02  0.00000000000E+00 0. -1.
         -5    1    3    3    0  503  0.44183638409E+02  0.45334212321E+02 -0.59007596721E+02  0.86668167055E+02  0.47000000000E+01 0.  1.
         13    1    4    4    0    0  0.11855585491E+01 -0.54901144425E+02 -0.14034989502E+03  0.15071043176E+03  0.00000000000E+00 0. -1.
        -14    1    4    4    0    0 -0.37051545584E+02 -0.15798047656E+02 -0.24939622754E+02  0.47374889161E+02  0.00000000000E+00 0.  1.
<mgrwt>
<rscale>  2 0.17592986E+03</rscale>
<asrwt>0</asrwt>
<pdfrwt beam="1">  1       21 0.25222600E-01 0.17609711E+03</pdfrwt>
<pdfrwt beam="2">  1       21 0.48077206E-01 0.17609711E+03</pdfrwt>
<totfact> 0.62022864E+04</totfact>
</mgrwt>
</event>
<event>
12    1  0.1026879E-001  0.1774451E+03  0.7546771E-02  0.1170540E+00
         21   -1    0    0  501  502  0.00000000000E+00  0.00000000000E+00  0.87921317165E+02  0.87921317165E+02  0.00000000000E+00 0.  1.
         21   -1    0    0  502  503 -0.00000000000E+00 -0.00000000000E+00 -0.19306702988E+04  0.19306702988E+04  0.00000000000E+00 0.  1.
         -6    2    1    2    0  503 -0.26127951467E+02  0.29433317556E+02 -0.18333037160E+04  0.18418711382E+04  0.17302538735E+03 0.  0.
        -24    2    3    3    0    0  0.24950672803E+02 -0.36333894020E+02 -0.11270674125E+04  0.11307268783E+04  0.79496120356E+02 0.  0.
          6    2    1    2  501    0  0.26127951467E+02 -0.29433317556E+02 -0.94452656039E+01  0.17672047772E+03  0.17202303384E+03 0.  0.
         24    2    5    5    0    0 -0.46324350726E+02 -0.31951131194E+02  0.21713501050E+02  0.97672174648E+02  0.76821594086E+02 0.  0.
          5    1    5    5  501    0  0.72452302193E+02  0.25178136382E+01 -0.31158766654E+02  0.79048303068E+02  0.47000000000E+01 0. -1.
        -11    1    6    6    0    0 -0.15034867440E+01 -0.29043017609E+02  0.39765508928E+02  0.49265130108E+02  0.00000000000E+00 0.  1.
         12    1    6    6    0    0 -0.44820863982E+02 -0.29081135851E+01 -0.18052007878E+02  0.48407044540E+02  0.00000000000E+00 0. -1.
         -5    1    3    3    0  503 -0.51078624270E+02  0.65767211576E+02 -0.70623630351E+03  0.71114425989E+03  0.47000000000E+01 0.  1.
         11    1    4    4    0    0  0.21690017771E+02  0.13006277949E+02 -0.13018367851E+03  0.13261753386E+03  0.00000000000E+00 0. -1.
        -12    1    4    4    0    0  0.32606550327E+01 -0.49340171969E+02 -0.99688373399E+03  0.99810934448E+03  0.00000000000E+00 0.  1.
<mgrwt>
<rscale>  2 0.17720031E+03</rscale>
<asrwt>0</asrwt>
<pdfrwt beam="1">  1       21 0.13526358E-01 0.17744513E+03</pdfrwt>
<pdfrwt beam="2">  1       21 0.29702616E+00 0.17744513E+03</pdfrwt>
<totfact> 0.17146739E+03</totfact>
</mgrwt>
</event>
<event>
12    1  0.1026879E-001  0.1793189E+03  0.7546771E-02  0.1169746E+00
         21   -1    0    0  501  502  0.00000000000E+00  0.00000000000E+00  0.22432703037E+03  0.22432703037E+03  0.00000000000E+00 0.  1.
         21   -1    0    0  502  503 -0.00000000000E+00 -0.00000000000E+00 -0.21591327709E+03  0.21591327709E+03  0.00000000000E+00 0.  1.
         -6    2    1    2    0  503 -0.33559872117E+02  0.14287679864E+01 -0.12693124432E+03  0.21969705622E+03  0.17614468295E+03 0.  0.
        -24    2    3    3    0    0 -0.58274862396E+02  0.27875886490E+02 -0.18233042466E+02  0.10503376694E+03  0.80787522093E+02 0.  0.
          6    2    1    2  501    0  0.33559872117E+02 -0.14287679864E+01  0.13534499760E+03  0.22054325123E+03  0.17085886250E+03 0.  0.
         24    2    5    5    0    0  0.82884500667E+02  0.23931017861E+02  0.89301125937E+02  0.14830637811E+03  0.81102137019E+02 0.  0.
          5    1    5    5  501    0 -0.49324628550E+02 -0.25359785848E+02  0.46043871663E+02  0.72236873116E+02  0.47000000000E+01 0. -1.
        -13    1    6    6    0    0  0.67088041762E+02  0.15679087006E+02  0.13203458636E+02  0.70149628914E+02  0.00000000000E+00 0.  1.
         14    1    6    6    0    0  0.15796458904E+02  0.82519308550E+01  0.76097667301E+02  0.78156749200E+02  0.00000000000E+00 0. -1.
         -5    1    3    3    0  503  0.24714990279E+02 -0.26447118504E+02 -0.10869820185E+03  0.11466328928E+03  0.47000000000E+01 0.  1.
         13    1    4    4    0    0  0.12020718155E+02 -0.10474954290E+01 -0.25961474480E+02  0.28628535918E+02  0.00000000000E+00 0. -1.
        -14    1    4    4    0    0 -0.70295580551E+02  0.28923381919E+02  0.77284320146E+01  0.76405231025E+02  0.00000000000E+00 0.  1.
<mgrwt>
<rscale>  2 0.17800718E+03</rscale>
<asrwt>0</asrwt>
<pdfrwt beam="1">  1       21 0.34511851E-01 0.17931887E+03</pdfrwt>
<pdfrwt beam="2">  1       21 0.33217427E-01 0.17931887E+03</pdfrwt>
<totfact> 0.71013664E+04</totfact>
</mgrwt>
</event>
<event>
12    1  0.1026879E-001  0.1895451E+03  0.7546771E-02  0.1159592E+00
         21   -1    0    0  501  502  0.00000000000E+00  0.00000000000E+00  0.23260381295E+03  0.23260381295E+03  0.00000000000E+00 0. -1.
         21   -1    0    0  502  503 -0.00000000000E+00 -0.00000000000E+00 -0.20050878441E+03  0.20050878441E+03  0.00000000000E+00 0. -1.
         -6    2    1    2    0  503  0.73185443811E+02  0.24136723241E+02 -0.90476823070E+02  0.21003185924E+03  0.17317227200E+03 0.  0.
        -24    2    3    3    0    0  0.84057411645E+02 -0.13315669583E+02 -0.11431095536E+03  0.16408583357E+03  0.81327798160E+02 0.  0.
          6    2    1    2  501    0 -0.73185443811E+02 -0.24136723241E+02  0.12257185161E+03  0.22308073812E+03  0.16971289379E+03 0.  0.
         24    2    5    5    0    0 -0.92874835902E+02 -0.56616302672E+02  0.52371022036E+02  0.14312548993E+03  0.76883294974E+02 0.  0.
          5    1    5    5  501    0  0.19689392091E+02  0.32479579431E+02  0.70200829574E+02  0.79955248195E+02  0.47000000000E+01 0. -1.
        -11    1    6    6    0    0 -0.12402155693E+02 -0.90664480803E+01 -0.19781035392E+02  0.25046023792E+02  0.00000000000E+00 0.  1.
         12    1    6    6    0    0 -0.80472680209E+02 -0.47549854592E+02  0.72152057428E+02  0.11807946614E+03  0.00000000000E+00 0. -1.
         -5    1    3    3    0  503 -0.10871967835E+02  0.37452392824E+02  0.23834132295E+02  0.45946025672E+02  0.47000000000E+01 0.  1.
         11    1    4    4    0    0  0.18768995182E+02  0.20534815631E+02 -0.76482432494E+02  0.81384988255E+02  0.00000000000E+00 0. -1.
        -12    1    4    4    0    0  0.65288416463E+02 -0.33850485213E+02 -0.37828522870E+02  0.82700845316E+02  0.00000000000E+00 0.  1.
<mgrwt>
<rscale>  2 0.18875127E+03</rscale>
<asrwt>0</asrwt>
<pdfrwt beam="1">  1       21 0.35785202E-01 0.18954505E+03</pdfrwt>
<pdfrwt beam="2">  1       21 0.30847505E-01 0.18954505E+03</pdfrwt>
<totfact> 0.76091816E+04</totfact>
</mgrwt>
</event>
<event>
12    1  0.1026879E-001  0.2563280E+03  0.7546771E-02  0.1109530E+00
         21   -1    0    0  503  502  0.00000000000E+00  0.00000000000E+00  0.70288042308E+02  0.70288042308E+02  0.00000000000E+00 0.  1.
         21   -1    0    0  501  503 -0.00000000000E+00 -0.00000000000E+00 -0.10968319168E+04  0.10968319168E+04  0.00000000000E+00 0. -1.
          6    2    1    2  501    0 -0.10654817992E+03 -0.15413362579E+03 -0.28723266535E+03  0.38497613467E+03  0.17491235228E+03 0.  0.
         24    2    3    3    0    0  0.88691059649E+01 -0.88668363896E+02 -0.10488088171E+03  0.15940771181E+03  0.80436804013E+02 0.  0.
         -6    2    1    2    0  502  0.10654817992E+03  0.15413362579E+03 -0.73931120915E+03  0.78214382445E+03  0.17337303396E+03 0.  0.
        -24    2    5    5    0    0  0.11183429333E+03  0.41532371841E+02 -0.51474752404E+03  0.53083142114E+03  0.50844243418E+02 0.  0.
          5    1    3    3  501    0 -0.11541728588E+03 -0.65465261891E+02 -0.18235178364E+03  0.22556842286E+03  0.47000000000E+01 0. -1.
        -11    1    4    4    0    0  0.32285217118E+02 -0.44530910343E+01 -0.26580408108E+02  0.42055717320E+02  0.00000000000E+00 0.  1.
         12    1    4    4    0    0 -0.23416111153E+02 -0.84215272862E+02 -0.78300473603E+02  0.11735199449E+03  0.00000000000E+00 0. -1.
         -5    1    5    5    0  502 -0.52861134171E+01  0.11260125395E+03 -0.22456368511E+03  0.25131240331E+03  0.47000000000E+01 0.  1.
         11    1    6    6    0    0  0.54920597048E+02  0.29248247943E+02 -0.16643635084E+03  0.17768734021E+03  0.00000000000E+00 0. -1.
        -12    1    6    6    0    0  0.56913696286E+02  0.12284123899E+02 -0.34831117320E+03  0.35314408093E+03  0.00000000000E+00 0.  1.
<mgrwt>
<rscale>  2 0.25606557E+03</rscale>
<asrwt>0</asrwt>
<pdfrwt beam="1">  1       21 0.10813545E-01 0.25632795E+03</pdfrwt>
<pdfrwt beam="2">  1       21 0.16874337E+00 0.25632795E+03</pdfrwt>
<totfact> 0.14753401E+04</totfact>
</mgrwt>
</event>
<event>
12    1  0.1026879E-001  0.2886248E+03  0.7546771E-02  0.1091219E+00
         21   -1    0    0  501  502  0.00000000000E+00  0.00000000000E+00  0.22691888098E+03  0.22691888098E+03  0.00000000000E+00 0. -1.
         21   -1    0    0  502  503 -0.00000000000E+00 -0.00000000000E+00 -0.42184955048E+03  0.42184955048E+03  0.00000000000E+00 0.  1.
         -6    2    1    2    0  503  0.22599202406E+03 -0.42889179237E+02 -0.21567857635E+03  0.35939883573E+03  0.17244824787E+03 0.  0.
        -24    2    3    3    0    0  0.87362844891E+02 -0.62503574177E+02 -0.15894978693E+03  0.20825976284E+03  0.81044004091E+02 0.  0.
          6    2    1    2  501    0 -0.22599202406E+03  0.42889179237E+02  0.20747906847E+02  0.28936959573E+03  0.17433419247E+03 0.  0.
         24    2    5    5    0    0 -0.22040147322E+03  0.57637771386E+02  0.56261147095E+02  0.25022811567E+03  0.86889994307E+02 0.  0.
          5    1    5    5  501    0 -0.55905508406E+01 -0.14748592149E+02 -0.35513240248E+02  0.39141480069E+02  0.47000000000E+01 0. -1.
        -11    1    6    6    0    0 -0.67780599067E+02 -0.85758946054E+01 -0.13819756525E+02  0.69704671641E+02  0.00000000000E+00 0.  1.
         12    1    6    6    0    0 -0.15262087415E+03  0.66213665991E+02  0.70080903620E+02  0.18052344402E+03  0.00000000000E+00 0. -1.
         -5    1    3    3    0  503  0.13862917917E+03  0.19614394940E+02 -0.56728789420E+02  0.15113907289E+03  0.47000000000E+01 0.  1.
         11    1    4    4    0    0  0.91670780132E+02 -0.74608068581E+02 -0.12534475826E+03  0.17228233877E+03  0.00000000000E+00 0. -1.
        -12    1    4    4    0    0 -0.43079352409E+01  0.12104494404E+02 -0.33605028670E+02  0.35977424070E+02  0.00000000000E+00 0.  1.
<mgrwt>
<rscale>  2 0.28834060E+03</rscale>
<asrwt>0</asrwt>
<pdfrwt beam="1">  1       21 0.34910597E-01 0.28862482E+03</pdfrwt>
<pdfrwt beam="2">  1       21 0.64899930E-01 0.28862482E+03</pdfrwt>
<totfact> 0.16445698E+04</totfact>
</mgrwt>
</event>
<event>
12    1  0.1026879E-001  0.2693234E+03  0.7546771E-02  0.1101717E+00
         21   -1    0    0  503  502  0.00000000000E+00  0.00000000000E+00  0.24552271901E+03  0.24552271901E+03  0.00000000000E+00 0. -1.
         21   -1    0    0  501  503 -0.00000000000E+00 -0.00000000000E+00 -0.49007904752E+03  0.49007904752E+03  0.00000000000E+00 0.  1.
          6    2    1    2  501    0 -0.22418806951E+02  0.20489064706E+03 -0.35425272571E+03  0.44479533948E+03  0.17281527768E+03 0.  0.
         24    2    3    3    0    0 -0.78235451851E+02  0.12120800620E+03 -0.19555183069E+03  0.25684229666E+03  0.83158163594E+02 0.  0.
         -6    2    1    2    0  502  0.22418806951E+02 -0.20489064706E+03  0.10969639720E+03  0.29080642704E+03  0.17335598719E+03 0.  0.
        -24    2    5    5    0    0 -0.53519872509E+02 -0.94902345975E+02  0.61650591839E+02  0.14869872554E+03  0.80247638460E+02 0.  0.
          5    1    3    3  501    0  0.55816644899E+02  0.83682640861E+02 -0.15870089501E+03  0.18795304282E+03  0.47000000000E+01 0. -1.
        -11    1    4    4    0    0 -0.56014605575E+02  0.81424326098E+02 -0.18548940830E+03  0.21017582523E+03  0.00000000000E+00 0.  1.
         12    1    4    4    0    0 -0.22220846276E+02  0.39783680103E+02 -0.10062422396E+02  0.46666471435E+02  0.00000000000E+00 0. -1.
         -5    1    5    5    0  502  0.75938679460E+02 -0.10998830109E+03  0.48045805357E+02  0.14210770150E+03  0.47000000000E+01 0.  1.
         11    1    6    6    0    0 -0.69864328524E+02 -0.57705657770E+02  0.25046017972E+02  0.94012075581E+02  0.00000000000E+00 0. -1.
        -12    1    6    6    0    0  0.16344456015E+02 -0.37196688204E+02  0.36604573867E+02  0.54686649960E+02  0.00000000000E+00 0.  1.
<mgrwt>
<rscale>  2 0.26923640E+03</rscale>
<asrwt>0</asrwt>
<pdfrwt beam="1">  1       21 0.37772727E-01 0.26932337E+03</pdfrwt>
<pdfrwt beam="2">  1       21 0.75396775E-01 0.26932337E+03</pdfrwt>
<totfact> 0.10143894E+04</totfact>
</mgrwt>
</event>
<event>
12    1  0.1026879E-001  0.2164025E+03  0.7546771E-02  0.1136761E+00
         21   -1    0    0  501  502  0.00000000000E+00  0.00000000000E+00  0.82824160963E+02  0.82824160963E+02  0.00000000000E+00 0. -1.
         21   -1    0    0  502  503 -0.00000000000E+00 -0.00000000000E+00 -0.59392331478E+03  0.59392331478E+03  0.00000000000E+00 0.  1.
         -6    2    1    2    0  503  0.13022570080E+03 -0.74200179143E+01 -0.33308527210E+03  0.39721006697E+03  0.17267382257E+03 0.  0.
        -24    2    3    3    0    0  0.13325799207E+02 -0.46537088464E+02 -0.15314237608E+03  0.17904208576E+03  0.79121448379E+02 0.  0.
          6    2    1    2  501    0 -0.13022570080E+03  0.74200179143E+01 -0.17801388172E+03  0.27953740877E+03  0.17157631248E+03 0.  0.
         24    2    5    5    0    0 -0.14047913894E+03 -0.20960212696E+02 -0.18620944703E+03  0.24791735541E+03  0.81334727855E+02 0.  0.
          5    1    5    5  501    0  0.10253438145E+02  0.28380230610E+02  0.81955653187E+01  0.31620053355E+02  0.47000000000E+01 0. -1.
        -11    1    6    6    0    0 -0.67269269245E+02 -0.11339396440E+02 -0.15186132834E+03  0.16648002746E+03  0.00000000000E+00 0.  1.
         12    1    6    6    0    0 -0.73209869698E+02 -0.96208162565E+01 -0.34348118691E+02  0.81437327954E+02  0.00000000000E+00 0. -1.
         -5    1    3    3    0  503  0.11689990159E+03  0.39117070549E+02 -0.17994289602E+03  0.21816798122E+03  0.47000000000E+01 0.  1.
         11    1    4    4    0    0  0.27709875647E+02  0.13127952404E+02 -0.61905342339E+02  0.69082933875E+02  0.00000000000E+00 0. -1.
        -12    1    4    4    0    0 -0.14384076440E+02 -0.59665040867E+02 -0.91237033741E+02  0.10995915188E+03  0.00000000000E+00 0.  1.
<mgrwt>
<rscale>  2 0.21618348E+03</rscale>
<asrwt>0</asrwt>
<pdfrwt beam="1">  1       21 0.12742179E-01 0.21640249E+03</pdfrwt>
<pdfrwt beam="2">  1       21 0.91372813E-01 0.21640249E+03</pdfrwt>
<totfact> 0.52834398E+04</totfact>
</mgrwt>
</event>
<event>
12    1  0.1026879E-001  0.1963968E+03  0.7546771E-02  0.1152815E+00
         21   -1    0    0  503  502  0.00000000000E+00  0.00000000000E+00  0.76440596928E+02  0.76440596928E+02  0.00000000000E+00 0. -1.
         21   -1    0    0  501  503 -0.00000000000E+00 -0.00000000000E+00 -0.10385277239E+04  0.10385277239E+04  0.00000000000E+00 0.  1.
          6    2    1    2  501    0 -0.84508132924E+02  0.41314639571E+02 -0.88077342359E+03  0.90240430556E+03  0.17240412705E+03 0.  0.
         24    2    3    3    0    0 -0.69496919718E+02  0.90356928566E+02 -0.72173156307E+03  0.73523108394E+03  0.81695172827E+02 0.  0.
         -6    2    1    2    0  502  0.84508132924E+02 -0.41314639571E+02 -0.81313703390E+02  0.21256401527E+03  0.17240364920E+03 0.  0.
        -24    2    5    5    0    0  0.32565831187E+02 -0.58076339532E+01  0.19213320150E+02  0.93877357980E+02  0.85729485575E+02 0.  0.
          5    1    3    3  501    0 -0.15011213206E+02 -0.49042288995E+02 -0.15904186051E+03  0.16717322162E+03  0.47000000000E+01 0. -1.
        -11    1    4    4    0    0 -0.11040234568E+02  0.60825528985E+02 -0.50641873400E+03  0.51017797474E+03  0.00000000000E+00 0.  1.
         12    1    4    4    0    0 -0.58456685150E+02  0.29531399581E+02 -0.21531282907E+03  0.22505310920E+03  0.00000000000E+00 0. -1.
         -5    1    5    5    0  502  0.51942301737E+02 -0.35507005618E+02 -0.10052702354E+03  0.11868665729E+03  0.47000000000E+01 0.  1.
         13    1    6    6    0    0 -0.19760468653E+02 -0.22897114695E+02  0.24018455522E+02  0.38621757966E+02  0.00000000000E+00 0. -1.
        -14    1    6    6    0    0  0.52326299840E+02  0.17089480742E+02 -0.48051353716E+01  0.55255600014E+02  0.00000000000E+00 0.  1.
<mgrwt>
<rscale>  2 0.19639671E+03</rscale>
<asrwt>0</asrwt>
<pdfrwt beam="1">  1       21 0.11760092E-01 0.19639681E+03</pdfrwt>
<pdfrwt beam="2">  1       21 0.15977349E+00 0.19639681E+03</pdfrwt>
<totfact> 0.15330211E+04</totfact>
</mgrwt>
</event>
<event>
12    1  0.1026879E-001  0.1803199E+03  0.7546771E-02  0.1167641E+00
         21   -1    0    0  501  502  0.00000000000E+00  0.00000000000E+00  0.20321000957E+03  0.20321000957E+03  0.00000000000E+00 0.  1.
         21   -1    0    0  502  503 -0.00000000000E+00 -0.00000000000E+00 -0.16412260604E+03  0.16412260604E+03  0.00000000000E+00 0.  1.
         -6    2    1    2    0  503  0.41124648258E+02 -0.15047825891E+02 -0.11410911382E+02  0.18007518850E+03  0.17429627321E+03 0.  0.
        -24    2    3    3    0    0 -0.13265578976E+02 -0.13326149963E+02  0.50800918589E+02  0.97288337033E+02  0.80812903268E+02 0.  0.
          6    2    1    2  501    0 -0.41124648258E+02  0.15047825891E+02  0.50498314919E+02  0.18725742712E+03  0.17492166945E+03 0.  0.
         24    2    5    5    0    0 -0.17511965579E+02 -0.40326588045E+02  0.79408881414E+02  0.12031121470E+03  0.78969078079E+02 0.  0.
          5    1    5    5  501    0 -0.23612682679E+02  0.55374413936E+02 -0.28910566495E+02  0.66946212418E+02  0.47000000000E+01 0. -1.
        -13    1    6    6    0    0 -0.42868099113E+02 -0.28139108841E+02  0.76406142075E+02  0.92018378136E+02  0.00000000000E+00 0.  1.
         14    1    6    6    0    0  0.25356133534E+02 -0.12187479204E+02  0.30027393390E+01  0.28292836561E+02  0.00000000000E+00 0. -1.
         -5    1    3    3    0  503  0.54390227235E+02 -0.17216759277E+01 -0.62211829972E+02  0.82786851462E+02  0.47000000000E+01 0.  1.
         13    1    4    4    0    0 -0.26919229514E+02 -0.26036649914E+02 -0.56141779247E+01  0.37869130570E+02  0.00000000000E+00 0. -1.
        -14    1    4    4    0    0  0.13653650538E+02  0.12710499950E+02  0.56415096514E+02  0.59419206463E+02  0.00000000000E+00 0.  1.
<mgrwt>
<rscale>  2 0.18016805E+03</rscale>
<asrwt>0</asrwt>
<pdfrwt beam="1">  1       21 0.31263078E-01 0.18031989E+03</pdfrwt>
<pdfrwt beam="2">  1       21 0.25249632E-01 0.18031989E+03</pdfrwt>
<totfact> 0.14669732E+05</totfact>
</mgrwt>
</event>
<event>
12    1  0.1026879E-001  0.2295016E+03  0.7546771E-02  0.1127113E+00
         21   -1    0    0  501  502  0.00000000000E+00  0.00000000000E+00  0.18270228087E+03  0.18270228087E+03  0.00000000000E+00 0.  1.
         21   -1    0    0  502  503 -0.00000000000E+00 -0.00000000000E+00 -0.55212305606E+03  0.55212305606E+03  0.00000000000E+00 0.  1.
         -6    2    1    2    0  503  0.44496937349E+02  0.14402312123E+03 -0.43925096467E+03  0.49559298775E+03  0.17305595240E+03 0.  0.
        -24    2    3    3    0    0 -0.21568669791E+02  0.10385826976E+03 -0.17205321309E+03  0.21739412328E+03  0.80038421959E+02 0.  0.
          6    2    1    2  501    0 -0.44496937349E+02 -0.14402312123E+03  0.69830189481E+02  0.23923234917E+03  0.17214303542E+03 0.  0.
         24    2    5    5    0    0  0.27318833739E+02 -0.11191331223E+03  0.10238450199E+02  0.14043047570E+03  0.79655411057E+02 0.  0.
          5    1    5    5  501    0 -0.71815771088E+02 -0.32109809000E+02  0.59591739282E+02  0.98801873473E+02  0.47000000000E+01 0. -1.
        -13    1    6    6    0    0  0.51820036407E+02 -0.45540688820E+02  0.32063538446E+00  0.68988211446E+02  0.00000000000E+00 0.  1.
         14    1    6    6    0    0 -0.24501202668E+02 -0.66372623411E+02  0.99178148145E+01  0.71442264252E+02  0.00000000000E+00 0. -1.
         -5    1    3    3    0  503  0.66065607140E+02  0.40164851476E+02 -0.26719775159E+03  0.27819886447E+03  0.47000000000E+01 0.  1.
         13    1    4    4    0    0 -0.15080452878E+02  0.93236399902E+01  0.33392541680E+01  0.18041644606E+02  0.00000000000E+00 0. -1.
        -14    1    4    4    0    0 -0.64882169129E+01  0.94534629766E+02 -0.17539246726E+03  0.19935247867E+03  0.00000000000E+00 0.  1.
<mgrwt>
<rscale>  2 0.22932954E+03</rscale>
<asrwt>0</asrwt>
<pdfrwt beam="1">  1       21 0.28108044E-01 0.22950163E+03</pdfrwt>
<pdfrwt beam="2">  1       21 0.84942006E-01 0.22950163E+03</pdfrwt>
<totfact> 0.14185284E+04</totfact>
</mgrwt>
</event>
<event>
12    1  0.1026879E-001  0.2278960E+03  0.7546771E-02  0.1130612E+00
         21   -1    0    0  503  502  0.00000000000E+00  0.00000000000E+00  0.10407771631E+03  0.10407771631E+03  0.00000000000E+00 0.  1.
         21   -1    0    0  501  503 -0.00000000000E+00 -0.00000000000E+00 -0.68737713968E+03  0.68737713968E+03  0.00000000000E+00 0.  1.
          6    2    1    2  501    0  0.83056012050E+02 -0.95885252217E+02 -0.50808386000E+03  0.55146745257E+03  0.17284345438E+03 0.  0.
         24    2    3    3    0    0  0.83961545561E+02 -0.12796129420E+03 -0.35224216078E+03  0.39228699625E+03  0.79943190112E+02 0.  0.
         -6    2    1    2    0  502 -0.83056012050E+02  0.95885252217E+02 -0.75215563375E+02  0.23998740342E+03  0.18932588332E+03 0.  0.
        -24    2    5    5    0    0  0.32215848854E+02  0.67886187324E+02 -0.49837215901E+02  0.11858847397E+03  0.77026506622E+02 0.  0.
          5    1    3    3  501    0 -0.90553351013E+00  0.32076041986E+02 -0.15584169922E+03  0.15918045632E+03  0.47000000000E+01 0. -1.
        -13    1    4    4    0    0 -0.36625989073E+01 -0.25497017021E+02 -0.12856151790E+03  0.13111665185E+03  0.00000000000E+00 0.  1.
         14    1    4    4    0    0  0.87624144468E+02 -0.10246427718E+03 -0.22368064288E+03  0.26117034439E+03  0.00000000000E+00 0. -1.
         -5    1    5    5    0  502 -0.11527186090E+03  0.27999064893E+02 -0.25378347474E+02  0.12139892945E+03  0.47000000000E+01 0.  1.
         11    1    6    6    0    0  0.43865984229E+02  0.14875603063E+02 -0.21989905535E+01  0.46371798524E+02  0.00000000000E+00 0. -1.
        -12    1    6    6    0    0 -0.11650135375E+02  0.53010584261E+02 -0.47638225347E+02  0.72216675444E+02  0.00000000000E+00 0.  1.
<mgrwt>
<rscale>  2 0.22444422E+03</rscale>
<asrwt>0</asrwt>
<pdfrwt beam="1">  1       21 0.16011956E-01 0.22789597E+03</pdfrwt>
<pdfrwt beam="2">  1       21 0.10575033E+00 0.22789597E+03</pdfrwt>
<totfact> 0.24507677E+04</totfact>
</mgrwt>
</event>
<event>
12    1  0.1026879E-001  0.2135709E+03  0.7546771E-02  0.1139178E+00
         21   -1    0    0  503  502  0.00000000000E+00  0.00000000000E+00  0.16097115785E+03  0.16097115785E+03  0.00000000000E+00 0.  1.
         21   -1    0    0  501  503 -0.00000000000E+00 -0.00000000000E+00 -0.32664970626E+03  0.32664970626E+03  0.00000000000E+00 0.  1.
          6    2    1    2  501    0  0.11911316633E+03 -0.29994713618E+02 -0.17475141195E+03  0.27595392618E+03  0.17471372058E+03 0.  0.
         24    2    3    3    0    0  0.13495794926E+03 -0.53850524386E+02 -0.18514123104E+03  0.24512868986E+03  0.68536647985E+02 0.  0.
         -6    2    1    2    0  502 -0.11911316633E+03  0.29994713618E+02  0.90728635364E+01  0.21166693793E+03  0.17214222760E+03 0.  0.
        -24    2    5    5    0    0 -0.58620208754E+00 -0.11975578263E+02  0.29173704255E+02  0.84245273955E+02  0.78117879234E+02 0.  0.
          5    1    3    3  501    0 -0.15844782932E+02  0.23855810768E+02  0.10389819088E+02  0.30825236321E+02  0.47000000000E+01 0. -1.
        -13    1    4    4    0    0  0.27031895456E+02 -0.36687130483E+02 -0.87157431452E+02  0.98351851901E+02  0.00000000000E+00 0.  1.
         14    1    4    4    0    0  0.10792605380E+03 -0.17163393903E+02 -0.97983799588E+02  0.14677683796E+03  0.00000000000E+00 0. -1.
         -5    1    5    5    0  502 -0.11852696424E+03  0.41970291882E+02 -0.20100840719E+02  0.12742166398E+03  0.47000000000E+01 0.  1.
         11    1    6    6    0    0 -0.18611591371E+02 -0.40660220039E+02  0.20959101170E+02  0.49385511528E+02  0.00000000000E+00 0. -1.
        -12    1    6    6    0    0  0.18025389283E+02  0.28684641776E+02  0.82146030850E+01  0.34859762427E+02  0.00000000000E+00 0.  1.
<mgrwt>
<rscale>  2 0.21304430E+03</rscale>
<asrwt>0</asrwt>
<pdfrwt beam="1">  1       21 0.24764793E-01 0.21357086E+03</pdfrwt>
<pdfrwt beam="2">  1       21 0.50253802E-01 0.21357086E+03</pdfrwt>
<totfact> 0.57586874E+04</totfact>
</mgrwt>
</event>
<event>
12    1  0.1026879E-001  0.1783393E+03  0.7546771E-02  0.1170861E+00
         21   -1    0    0  503  502  0.00000000000E+00  0.00000000000E+00  0.28819277495E+03  0.28819277495E+03  0.00000000000E+00 0. -1.
         21   -1    0    0  501  503 -0.00000000000E+00 -0.00000000000E+00 -0.10681192949E+03  0.10681192949E+03  0.00000000000E+00 0. -1.
          6    2    1    2  501    0 -0.43851062339E+02 -0.12471061024E+02  0.88741214847E+02  0.19403948942E+03  0.16642679235E+03 0.  0.
         24    2    3    3    0    0  0.14251997539E+02  0.95381147052E+00 -0.85244429823E+01  0.79851526128E+02  0.78099749722E+02 0.  0.
         -6    2    1    2    0  502  0.43851062339E+02  0.12471061024E+02  0.92639630611E+02  0.20096521501E+03  0.17241366957E+03 0.  0.
        -24    2    5    5    0    0  0.77238449423E+02 -0.32493804054E+02  0.37224321087E+02  0.12203801287E+03  0.80535713409E+02 0.  0.
          5    1    3    3  501    0 -0.58103059877E+02 -0.13424872494E+02  0.97265657829E+02  0.11418796330E+03  0.47000000000E+01 0. -1.
        -13    1    4    4    0    0  0.31491756905E+02  0.16667986430E+01  0.26250224265E+02  0.41031490890E+02  0.00000000000E+00 0.  1.
         14    1    4    4    0    0 -0.17239759366E+02 -0.71298717253E+00 -0.34774667248E+02  0.38820035238E+02  0.00000000000E+00 0. -1.
         -5    1    5    5    0  502 -0.33387387084E+02  0.44964865077E+02  0.55415309523E+02  0.78927202137E+02  0.47000000000E+01 0.  1.
         13    1    6    6    0    0  0.74012819097E+02  0.63048093904E+01  0.37267673620E+02  0.83105520329E+02  0.00000000000E+00 0. -1.
        -14    1    6    6    0    0  0.32256303253E+01 -0.38798613444E+02 -0.43352532296E-01  0.38932492543E+02  0.00000000000E+00 0.  1.
<mgrwt>
<rscale>  2 0.17687613E+03</rscale>
<asrwt>0</asrwt>
<pdfrwt beam="1">  1       21 0.44337350E-01 0.17833933E+03</pdfrwt>
<pdfrwt beam="2">  1       21 0.16432605E-01 0.17833933E+03</pdfrwt>
<totfact> 0.16293633E+05</totfact>
</mgrwt>
</event>
<event>
12    1  0.1026879E-001  0.3105106E+03  0.7546771E-02  0.1080112E+00
         21   -1    0    0  501  502  0.00000000000E+00  0.00000000000E+00  0.33655756462E+03  0.33655756462E+03  0.00000000000E+00 0.  1.
         21   -1    0    0  502  503 -0.00000000000E+00 -0.00000000000E+00 -0.32113047177E+03  0.32113047177E+03  0.00000000000E+00 0.  1.
         -6    2    1    2    0  503 -0.24937940912E+03  0.66330468698E+02 -0.10043563719E+03  0.32626530070E+03  0.17254538085E+03 0.  0.
        -24    2    3    3    0    0 -0.71000278489E+02 -0.25485951593E+02 -0.37350623157E+02  0.11590566038E+03  0.79677348001E+02 0.  0.
          6    2    1    2  501    0  0.24937940912E+03 -0.66330468698E+02  0.11586273004E+03  0.33142273569E+03  0.17270505710E+03 0.  0.
         24    2    5    5    0    0  0.20831554483E+03 -0.10888927640E+03  0.11010512648E+03  0.27181792831E+03  0.80682132713E+02 0.  0.
          5    1    5    5  501    0  0.41063864294E+02  0.42558807706E+02  0.57576035573E+01  0.59604807380E+02  0.47000000000E+01 0. -1.
        -13    1    6    6    0    0  0.13920762688E+03 -0.10866229297E+03  0.96984372835E+02  0.20147512469E+03  0.00000000000E+00 0.  1.
         14    1    6    6    0    0  0.69107917945E+02 -0.22698343374E+00  0.13120753650E+02  0.70342803615E+02  0.00000000000E+00 0. -1.
         -5    1    3    3    0  503 -0.17837913063E+03  0.91816420291E+02 -0.63085014033E+02  0.21035964032E+03  0.47000000000E+01 0.  1.
         13    1    4    4    0    0 -0.83658891514E+02 -0.31244135486E+02 -0.45036391845E+02  0.10001641226E+03  0.00000000000E+00 0. -1.
        -14    1    4    4    0    0  0.12658613025E+02  0.57581838930E+01  0.76857686884E+01  0.15889248119E+02  0.00000000000E+00 0.  1.
<mgrwt>
<rscale>  2 0.31048844E+03</rscale>
<asrwt>0</asrwt>
<pdfrwt beam="1">  1       21 0.51778087E-01 0.31051064E+03</pdfrwt>
<pdfrwt beam="2">  1       21 0.49404687E-01 0.31051064E+03</pdfrwt>
<totfact> 0.13007311E+04</totfact>
</mgrwt>
</event>
<event>
12    1  0.1026879E-001  0.2504917E+03  0.7546771E-02  0.1113182E+00
         21   -1    0    0  503  502  0.00000000000E+00  0.00000000000E+00  0.62522926657E+03  0.62522926657E+03  0.00000000000E+00 0. -1.
         21   -1    0    0  501  503 -0.00000000000E+00 -0.00000000000E+00 -0.24568216855E+03  0.24568216855E+03  0.00000000000E+00 0. -1.
          6    2    1    2  501    0  0.10349367955E+03  0.14635900101E+03 -0.14549863349E+03  0.28968246358E+03  0.17496907863E+03 0.  0.
         24    2    3    3    0    0  0.49106677294E+02  0.14460382082E+03 -0.15782289424E+03  0.23369135648E+03  0.79886503219E+02 0.  0.
         -6    2    1    2    0  502 -0.10349367955E+03 -0.14635900101E+03  0.52504573151E+03  0.58122897154E+03  0.17326914988E+03 0.  0.
        -24    2    5    5    0    0 -0.10480257026E+03 -0.35244822720E+02  0.32511572833E+03  0.35244485937E+03  0.79318130497E+02 0.  0.
          5    1    3    3  501    0  0.54387002252E+02  0.17551801941E+01  0.12324260750E+02  0.55991107102E+02  0.47000000000E+01 0. -1.
        -11    1    4    4    0    0 -0.18636875284E+01  0.18799629596E+02 -0.68844918644E+02  0.71389930853E+02  0.00000000000E+00 0.  1.
         12    1    4    4    0    0  0.50970364822E+02  0.12580419122E+03 -0.88977975598E+02  0.16230142563E+03  0.00000000000E+00 0. -1.
         -5    1    5    5    0  502  0.13088907132E+01 -0.11111417829E+03  0.19993000317E+03  0.22878411217E+03  0.47000000000E+01 0.  1.
         13    1    6    6    0    0 -0.23295501748E+02 -0.47803841978E+02  0.14136119331E+03  0.15103269409E+03  0.00000000000E+00 0. -1.
        -14    1    6    6    0    0 -0.81507068511E+02  0.12559019258E+02  0.18375453502E+03  0.20141216528E+03  0.00000000000E+00 0.  1.
<mgrwt>
<rscale>  2 0.25019504E+03</rscale>
<asrwt>0</asrwt>
<pdfrwt beam="1">  1       21 0.96189117E-01 0.25049167E+03</pdfrwt>
<pdfrwt beam="2">  1       21 0.37797257E-01 0.25049167E+03</pdfrwt>
<totfact> 0.58349022E+03</totfact>
</mgrwt>
</event>
<event>
12    1  0.1026879E-001  0.1998479E+03  0.7546771E-02  0.1152873E+00
         21   -1    0    0  503  502  0.00000000000E+00  0.00000000000E+00  0.93401575678E+03  0.93401575678E+03  0.00000000000E+00 0. -1.
         21   -1    0    0  501  503 -0.00000000000E+00 -0.00000000000E+00 -0.48361595997E+02  0.48361595997E+02  0.00000000000E+00 0. -1.
          6    2    1    2  501    0  0.15554635270E+02 -0.72063289080E+02  0.22425152387E+03  0.29144131157E+03  0.17092170085E+03 0.  0.
         24    2    3    3    0    0 -0.18204420570E+02 -0.10719916301E+03  0.14536804184E+03  0.19860329551E+03  0.80550232292E+02 0.  0.
         -6    2    1    2    0  502 -0.15554635270E+02  0.72063289080E+02  0.66140263691E+03  0.69093604121E+03  0.18575279436E+03 0.  0.
        -24    2    5    5    0    0 -0.59865460913E+02 -0.14603967634E+02  0.38220923753E+03  0.39522383836E+03  0.79503659482E+02 0.  0.
          5    1    3    3  501    0  0.33759055841E+02  0.35135873930E+02  0.78883482029E+02  0.92838016056E+02  0.47000000000E+01 0. -1.
        -11    1    4    4    0    0 -0.43159237133E+02 -0.29308999912E+02  0.70633115023E+02  0.87811013909E+02  0.00000000000E+00 0.  1.
         12    1    4    4    0    0  0.24954816563E+02 -0.77890163097E+02  0.74734926817E+02  0.11079228161E+03  0.00000000000E+00 0. -1.
         -5    1    5    5    0  502  0.44310825642E+02  0.86667256715E+02  0.27919339938E+03  0.29571220285E+03  0.47000000000E+01 0.  1.
         11    1    6    6    0    0 -0.17017166227E+01 -0.37483939556E+02  0.12367879288E+03  0.12924544623E+03  0.00000000000E+00 0. -1.
        -12    1    6    6    0    0 -0.58163744290E+02  0.22879971921E+02  0.25853044465E+03  0.26597839213E+03  0.00000000000E+00 0.  1.
<mgrwt>
<rscale>  2 0.19632989E+03</rscale>
<asrwt>0</asrwt>
<pdfrwt beam="1">  1       21 0.14369472E+00 0.19984785E+03</pdfrwt>
<pdfrwt beam="2">  1       21 0.74402462E-02 0.19984785E+03</pdfrwt>
<totfact> 0.45337634E+04</totfact>
</mgrwt>
</event>
<event>
12    1  0.1026879E-001  0.1898218E+03  0.7546771E-02  0.1162054E+00
         21   -1    0    0  501  502  0.00000000000E+00  0.00000000000E+00  0.14270009458E+03  0.14270009458E+03  0.00000000000E+00 0.  1.
         21   -1    0    0  502  503 -0.00000000000E+00 -0.00000000000E+00 -0.23608049756E+03  0.23608049756E+03  0.00000000000E+00 0.  1.
         -6    2    1    2    0  503 -0.20454814068E+01 -0.28001103111E+02 -0.64633444003E+02  0.18679443057E+03  0.17299257625E+03 0.  0.
        -24    2    3    3    0    0 -0.37019545464E+02 -0.33457766988E+02  0.17829377279E+02  0.96932496299E+02  0.81167439447E+02 0.  0.
          6    2    1    2  501    0  0.20454814068E+01  0.28001103111E+02 -0.28746958975E+02  0.19198616157E+03  0.18773399483E+03 0.  0.
         24    2    5    5    0    0 -0.45614878586E+02  0.42161370738E+02  0.38330985134E+02  0.10835863214E+03  0.80087642030E+02 0.  0.
          5    1    5    5  501    0  0.47660359992E+02 -0.14160267627E+02 -0.67077944109E+02  0.83627529437E+02  0.47000000000E+01 0. -1.
        -13    1    6    6    0    0 -0.53184592153E+02 -0.12213291123E+01  0.56072127556E+01  0.53493301657E+02  0.00000000000E+00 0.  1.
         14    1    6    6    0    0  0.75697135675E+01  0.43382699850E+02  0.32723772378E+02  0.54865330478E+02  0.00000000000E+00 0. -1.
         -5    1    3    3    0  503  0.34974064057E+02  0.54566638770E+01 -0.82462821282E+02  0.89861934272E+02  0.47000000000E+01 0.  1.
         11    1    4    4    0    0 -0.42078268853E+02 -0.40475030688E+02 -0.17187998212E+02  0.60862435882E+02  0.00000000000E+00 0. -1.
        -12    1    4    4    0    0  0.50587233896E+01  0.70172637005E+01  0.35017375491E+02  0.36070060417E+02  0.00000000000E+00 0.  1.
<mgrwt>
<rscale>  2 0.18607059E+03</rscale>
<asrwt>0</asrwt>
<pdfrwt beam="1">  1       21 0.21953861E-01 0.18982175E+03</pdfrwt>
<pdfrwt beam="2">  1       21 0.36320076E-01 0.18982175E+03</pdfrwt>
<totfact> 0.14181272E+05</totfact>
</mgrwt>
</event>
<event>
12    1  0.1026879E-001  0.2655888E+03  0.7546771E-02  0.1104302E+00
         21   -1    0    0  503  502  0.00000000000E+00  0.00000000000E+00  0.54993986104E+02  0.54993986104E+02  0.00000000000E+00 0.  1.
         21   -1    0    0  501  503 -0.00000000000E+00 -0.00000000000E+00 -0.12971055485E+04  0.12971055485E+04  0.00000000000E+00 0.  1.
          6    2    1    2  501    0 -0.15683139253E+03 -0.11770622329E+03 -0.72732647850E+03  0.77430047908E+03  0.17912728685E+03 0.  0.
         24    2    3    3    0    0 -0.11166322284E+03 -0.13902950931E+03 -0.42196710664E+03  0.46484728058E+03  0.78923224619E+02 0.  0.
         -6    2    1    2    0  502  0.15683139253E+03  0.11770622329E+03 -0.51478508388E+03  0.57779905551E+03  0.17434800049E+03 0.  0.
        -24    2    5    5    0    0  0.79325743765E+02 -0.87378887305E+01 -0.22622215247E+03  0.25332117577E+03  0.81401667682E+02 0.  0.
          5    1    3    3  501    0 -0.45168169690E+02  0.21323286019E+02 -0.30535937186E+03  0.30945319850E+03  0.47000000000E+01 0. -1.
        -11    1    4    4    0    0 -0.30645208766E+01 -0.38040422779E+02 -0.15319128329E+03  0.15787347570E+03  0.00000000000E+00 0.  1.
         12    1    4    4    0    0 -0.10859870196E+03 -0.10098908653E+03 -0.26877582335E+03  0.30697380488E+03  0.00000000000E+00 0. -1.
         -5    1    5    5    0  502  0.77505648762E+02  0.12644411202E+03 -0.28856293141E+03  0.32447787974E+03  0.47000000000E+01 0.  1.
         13    1    6    6    0    0  0.75547285011E+02  0.79314114813E+01 -0.22344587537E+03  0.23600499736E+03  0.00000000000E+00 0. -1.
        -14    1    6    6    0    0  0.37784587541E+01 -0.16669300212E+02 -0.27762771026E+01  0.17316178408E+02  0.00000000000E+00 0.  1.
<mgrwt>
<rscale>  2 0.26478527E+03</rscale>
<asrwt>0</asrwt>
<pdfrwt beam="1">  1       21 0.84606135E-02 0.26558883E+03</pdfrwt>
<pdfrwt beam="2">  1       21 0.19955469E+00 0.26558883E+03</pdfrwt>
<totfact> 0.13980396E+04</totfact>
</mgrwt>
</event>
<event>
12    1  0.1026879E-001  0.2184646E+03  0.7546771E-02  0.1135147E+00
         21   -1    0    0  501  502  0.00000000000E+00  0.00000000000E+00  0.35499742397E+02  0.35499742397E+02  0.00000000000E+00 0.  1.
         21   -1    0    0  502  503 -0.00000000000E+00 -0.00000000000E+00 -0.17520418799E+04  0.17520418799E+04  0.00000000000E+00 0. -1.
         -6    2    1    2    0  503 -0.98582922656E+02 -0.92229904299E+02 -0.12904273458E+04  0.13086882032E+04  0.17098868510E+03 0.  0.
        -24    2    3    3    0    0 -0.88916651771E+02 -0.62613061098E+02 -0.12494960654E+04  0.12570349950E+04  0.84083262091E+02 0.  0.
          6    2    1    2  501    0  0.98582922656E+02  0.92229904299E+02 -0.42611479164E+03  0.47885341907E+03  0.17176097756E+03 0.  0.
         24    2    5    5    0    0  0.64740593354E+02  0.12703122796E+03 -0.27709530281E+03  0.32205630994E+03  0.81303029619E+02 0.  0.
          5    1    5    5  501    0  0.33842329302E+02 -0.34801323660E+02 -0.14901948883E+03  0.15679710913E+03  0.47000000000E+01 0. -1.
        -11    1    6    6    0    0  0.26819552263E+01  0.55681212950E+02 -0.45697606479E+02  0.72082325138E+02  0.00000000000E+00 0.  1.
         12    1    6    6    0    0  0.62058638128E+02  0.71350015009E+02 -0.23139769633E+03  0.24997398480E+03  0.00000000000E+00 0. -1.
         -5    1    3    3    0  503 -0.96662708853E+01 -0.29616843201E+02 -0.40931280453E+02  0.51653208163E+02  0.47000000000E+01 0.  1.
         11    1    4    4    0    0  0.13310727791E+01 -0.44419330381E+02 -0.34018666516E+03  0.34307698235E+03  0.00000000000E+00 0. -1.
        -12    1    4    4    0    0 -0.90247724550E+02 -0.18193730717E+02 -0.90930940021E+03  0.91395801268E+03  0.00000000000E+00 0.  1.
<mgrwt>
<rscale>  2 0.21831277E+03</rscale>
<asrwt>0</asrwt>
<pdfrwt beam="1">  1       21 0.54614987E-02 0.21846460E+03</pdfrwt>
<pdfrwt beam="2">  1       21 0.26954491E+00 0.21846460E+03</pdfrwt>
<totfact> 0.11556544E+04</totfact>
</mgrwt>
</event>
<event>
12    1  0.1026879E-001  0.2514928E+03  0.7546771E-02  0.1112519E+00
         21   -1    0    0  503  502  0.00000000000E+00  0.00000000000E+00  0.15113305980E+03  0.15113305980E+03  0.00000000000E+00 0.  1.
         21   -1    0    0  501  503 -0.00000000000E+00 -0.00000000000E+00 -0.61721608557E+03  0.61721608557E+03  0.00000000000E+00 0.  1.
          6    2    1    2  501    0  0.15418005776E+02 -0.18041668112E+03 -0.45222751984E+03  0.51745374152E+03  0.17453008676E+03 0.  0.
         24    2    3    3    0    0 -0.20949679345E+02 -0.11598821171E+03 -0.15382168431E+03  0.20997728898E+03  0.80852934398E+02 0.  0.
         -6    2    1    2    0  502 -0.15418005776E+02  0.18041668112E+03 -0.13855505932E+02  0.25089540386E+03  0.17311451384E+03 0.  0.
        -24    2    5    5    0    0 -0.10439961350E+01  0.88773167493E+02  0.58966012551E+02  0.13286909621E+03  0.79343814480E+02 0.  0.
          5    1    3    3  501    0  0.36367685121E+02 -0.64428469405E+02 -0.29840583553E+03  0.30747645254E+03  0.47000000000E+01 0. -1.
        -11    1    4    4    0    0  0.20181295063E+02 -0.90137090060E+02 -0.11673361359E+03  0.14885804049E+03  0.00000000000E+00 0.  1.
         12    1    4    4    0    0 -0.41130974408E+02 -0.25851121653E+02 -0.37088070716E+02  0.61119248489E+02  0.00000000000E+00 0. -1.
         -5    1    5    5    0  502 -0.14374009641E+02  0.91643513625E+02 -0.72821518483E+02  0.11802630765E+03  0.47000000000E+01 0.  1.
         11    1    6    6    0    0  0.37917884559E+02  0.36494550898E+02  0.35913804319E+02  0.63713574341E+02  0.00000000000E+00 0. -1.
        -12    1    6    6    0    0 -0.38961880694E+02  0.52278616594E+02  0.23052208232E+02  0.69155521866E+02  0.00000000000E+00 0.  1.
<mgrwt>
<rscale>  2 0.25124740E+03</rscale>
<asrwt>0</asrwt>
<pdfrwt beam="1">  1       21 0.23251240E-01 0.25149283E+03</pdfrwt>
<pdfrwt beam="2">  1       21 0.94956319E-01 0.25149283E+03</pdfrwt>
<totfact> 0.15577867E+04</totfact>
</mgrwt>
</event>
<event>
12    1  0.1026879E-001  0.4294444E+03  0.7546771E-02  0.1034119E+00
         21   -1    0    0  501  502  0.00000000000E+00  0.00000000000E+00  0.80950564680E+03  0.80950564680E+03  0.00000000000E+00 0. -1.
         21   -1    0    0  502  503 -0.00000000000E+00 -0.00000000000E+00 -0.51684723280E+03  0.51684723280E+03  0.00000000000E+00 0.  1.
         -6    2    1    2    0  503 -0.24756668593E+03 -0.30356180428E+03 -0.35015639607E+03  0.55328535805E+03  0.17342477543E+03 0.  0.
        -24    2    3    3    0    0 -0.80127752884E+02 -0.12190671271E+03 -0.21379385024E+03  0.27105991183E+03  0.80523052691E+02 0.  0.
          6    2    1    2  501    0  0.24756668593E+03  0.30356180428E+03  0.64281481006E+03  0.77306752154E+03  0.17602124824E+03 0.  0.
         24    2    5    5    0    0  0.10152543960E+03  0.84414677516E+02  0.14472562395E+03  0.20962414717E+03  0.74589035288E+02 0.  0.
          5    1    5    5  501    0  0.14604124633E+03  0.21914712677E+03  0.49808918611E+03  0.56344337437E+03  0.47000000000E+01 0. -1.
        -13    1    6    6    0    0  0.78112896062E+02  0.22248086818E+02  0.10302950390E+03  0.13119329469E+03  0.00000000000E+00 0.  1.
         14    1    6    6    0    0  0.23412543534E+02  0.62166590698E+02  0.41696120049E+02  0.78430852481E+02  0.00000000000E+00 0. -1.
         -5    1    3    3    0  503 -0.16743893304E+03 -0.18165509157E+03 -0.13636254583E+03  0.28222544623E+03  0.47000000000E+01 0.  1.
         13    1    4    4    0    0  0.98489363173E+01 -0.53301824108E+01  0.30826952325E+00  0.11203009471E+02  0.00000000000E+00 0. -1.
        -14    1    4    4    0    0 -0.89976689201E+02 -0.11657653030E+03 -0.21410211976E+03  0.25985690236E+03  0.00000000000E+00 0.  1.
<mgrwt>
<rscale>  2 0.42917975E+03</rscale>
<asrwt>0</asrwt>
<pdfrwt beam="1">  1       21 0.12453933E+00 0.42944442E+03</pdfrwt>
<pdfrwt beam="2">  1       21 0.79514959E-01 0.42944442E+03</pdfrwt>
<totfact> 0.56793451E+02</totfact>
</mgrwt>
</event>
<event>
12    1  0.1026879E-001  0.1802706E+03  0.7546771E-02  0.1167695E+00
         21   -1    0    0  503  502  0.00000000000E+00  0.00000000000E+00  0.10096385398E+04  0.10096385398E+04  0.00000000000E+00 0.  1.
         21   -1    0    0  501  503 -0.00000000000E+00 -0.00000000000E+00 -0.40622709025E+02  0.40622709025E+02  0.00000000000E+00 0.  1.
          6    2    1    2  501    0 -0.40444068561E+02  0.29948029073E+02  0.24292969536E+03  0.30213121382E+03  0.17244079085E+03 0.  0.
         24    2    3    3    0    0 -0.41624957281E+02  0.16010674498E+02  0.41433667747E+02  0.10009561424E+03  0.79456934257E+02 0.  0.
         -6    2    1    2    0  502  0.40444068561E+02 -0.29948029073E+02  0.72608613540E+03  0.74813003499E+03  0.17310362824E+03 0.  0.
        -24    2    5    5    0    0  0.69937586343E+02  0.29658790157E+02  0.47069326755E+03  0.48417843443E+03  0.84295281215E+02 0.  0.
          5    1    3    3  501    0  0.11808887198E+01  0.13937354575E+02  0.20149602762E+03  0.20203559957E+03  0.47000000000E+01 0. -1.
        -11    1    4    4    0    0  0.12853252194E+02  0.30268369177E+02  0.56257792714E+01  0.33362099110E+02  0.00000000000E+00 0.  1.
         12    1    4    4    0    0 -0.54478209475E+02 -0.14257694679E+02  0.35807888475E+02  0.66733515134E+02  0.00000000000E+00 0. -1.
         -5    1    5    5    0  502 -0.29493517782E+02 -0.59606819230E+02  0.25539286785E+03  0.26395160056E+03  0.47000000000E+01 0.  1.
         11    1    6    6    0    0 -0.16332264640E+02  0.20845281174E+02  0.96448567448E+02  0.10001797228E+03  0.00000000000E+00 0. -1.
        -12    1    6    6    0    0  0.86269850983E+02  0.88135089827E+01  0.37424470010E+03  0.38416046216E+03  0.00000000000E+00 0.  1.
<mgrwt>
<rscale>  2 0.18011125E+03</rscale>
<asrwt>0</asrwt>
<pdfrwt beam="1">  1       21 0.15532899E+00 0.18027056E+03</pdfrwt>
<pdfrwt beam="2">  1       21 0.62496483E-02 0.18027056E+03</pdfrwt>
<totfact> 0.50465777E+04</totfact>
</mgrwt>
</event>
<event>
12    1  0.1026879E-001  0.2068071E+03  0.7546771E-02  0.1144200E+00
         21   -1    0    0  503  502  0.00000000000E+00  0.00000000000E+00  0.65679234230E+03  0.65679234230E+03  0.00000000000E+00 0. -1.
         21   -1    0    0  501  503 -0.00000000000E+00 -0.00000000000E+00 -0.65374885499E+02  0.65374885499E+02  0.00000000000E+00 0.  1.
          6    2    1    2  501    0 -0.10703489029E+03 -0.33808147277E+02  0.32355839760E+03  0.38400420298E+03  0.17369436573E+03 0.  0.
         24    2    3    3    0    0 -0.34524244025E+02 -0.80401404128E+02  0.21571385519E+03  0.24586926629E+03  0.79138609879E+02 0.  0.
         -6    2    1    2    0  502  0.10703489029E+03  0.33808147277E+02  0.26785905920E+03  0.33816302482E+03  0.17322325825E+03 0.  0.
        -24    2    5    5    0    0  0.13803709105E+03  0.98830140866E+01  0.24362890472E+03  0.29187329771E+03  0.81750022794E+02 0.  0.
          5    1    3    3  501    0 -0.72510646270E+02  0.46593256851E+02  0.10784454241E+03  0.13813493669E+03  0.47000000000E+01 0. -1.
        -11    1    4    4    0    0  0.16468936144E+01 -0.38954829294E+02  0.22584902381E+02  0.45058504186E+02  0.00000000000E+00 0.  1.
         12    1    4    4    0    0 -0.36171137640E+02 -0.41446574834E+02  0.19312895281E+03  0.20081076210E+03  0.00000000000E+00 0. -1.
         -5    1    5    5    0  502 -0.31002200758E+02  0.23925133190E+02  0.24230154484E+02  0.46289727114E+02  0.47000000000E+01 0.  1.
         13    1    6    6    0    0  0.16755011075E+02 -0.25580283225E+02  0.25627926530E+02  0.39898269439E+02  0.00000000000E+00 0. -1.
        -14    1    6    6    0    0  0.12128207998E+03  0.35463297312E+02  0.21800097819E+03  0.25197502827E+03  0.00000000000E+00 0.  1.
<mgrwt>
<rscale>  2 0.20670818E+03</rscale>
<asrwt>0</asrwt>
<pdfrwt beam="1">  1       21 0.10104497E+00 0.20680714E+03</pdfrwt>
<pdfrwt beam="2">  1       21 0.10057675E-01 0.20680714E+03</pdfrwt>
<totfact> 0.63893383E+04</totfact>
</mgrwt>
</event>
<event>
12    1  0.1026879E-001  0.2460636E+03  0.7546771E-02  0.1116082E+00
         21   -1    0    0  503  502  0.00000000000E+00  0.00000000000E+00  0.40364362941E+03  0.40364362941E+03  0.00000000000E+00 0.  1.
         21   -1    0    0  501  503 -0.00000000000E+00 -0.00000000000E+00 -0.14902594886E+03  0.14902594886E+03  0.00000000000E+00 0.  1.
          6    2    1    2  501    0 -0.14683130251E+03 -0.90693203978E+02  0.12477596578E+03  0.27589193516E+03  0.17539278665E+03 0.  0.
         24    2    3    3    0    0 -0.17661973931E+03 -0.88369821461E+02  0.95290610981E+02  0.23365184495E+03  0.80679157461E+02 0.  0.
         -6    2    1    2    0  502  0.14683130251E+03  0.90693203978E+02  0.12984171478E+03  0.27677764311E+03  0.17309622811E+03 0.  0.
        -24    2    5    5    0    0  0.53973339023E+02  0.25540028095E+02  0.12933556062E+03  0.16324401856E+03  0.79721439993E+02 0.  0.
          5    1    3    3  501    0  0.29788436803E+02 -0.23233825169E+01  0.29485354797E+02  0.42240090211E+02  0.47000000000E+01 0. -1.
        -11    1    4    4    0    0 -0.10162686804E+03 -0.36280137285E+02  0.92776458749E+02  0.14230860819E+03  0.00000000000E+00 0.  1.
         12    1    4    4    0    0 -0.74992871278E+02 -0.52089684177E+02  0.25141522314E+01  0.91343236759E+02  0.00000000000E+00 0. -1.
         -5    1    5    5    0  502  0.92857963489E+02  0.65153175883E+02  0.50615415228E+00  0.11353362455E+03  0.47000000000E+01 0.  1.
         11    1    6    6    0    0  0.54318350764E+02 -0.16165517896E+02  0.61652876205E+02  0.83742965931E+02  0.00000000000E+00 0. -1.
        -12    1    6    6    0    0 -0.34501174181E+00  0.41705545991E+02  0.67682684419E+02  0.79501052632E+02  0.00000000000E+00 0.  1.
<mgrwt>
<rscale>  2 0.24565471E+03</rscale>
<asrwt>0</asrwt>
<pdfrwt beam="1">  1       21 0.62099020E-01 0.24606365E+03</pdfrwt>
<pdfrwt beam="2">  1       21 0.22927069E-01 0.24606365E+03</pdfrwt>
<totfact> 0.41897929E+04</totfact>
</mgrwt>
</event>
<event>
12    1  0.1026879E-001  0.1897672E+03  0.7546771E-02  0.1161127E+00
         21   -1    0    0  503  502  0.00000000000E+00  0.00000000000E+00  0.12126471592E+03  0.12126471592E+03  0.00000000000E+00 0.  1.
         21   -1    0    0  501  503 -0.00000000000E+00 -0.00000000000E+00 -0.70903793527E+03  0.70903793527E+03  0.00000000000E+00 0.  1.
          6    2    1    2  501    0  0.39529147958E+02 -0.21399885946E+02 -0.61318644476E+03  0.63884134430E+03  0.17349391484E+03 0.  0.
         24    2    3    3    0    0 -0.41459803667E+01 -0.64684623011E+02 -0.49312667071E+03  0.50386903365E+03  0.80677134888E+02 0.  0.
         -6    2    1    2    0  502 -0.39529147958E+02  0.21399885946E+02  0.25413225409E+02  0.19146130690E+03  0.18436673061E+03 0.  0.
        -24    2    5    5    0    0 -0.34676140008E+02 -0.12114369137E+02 -0.54497776463E+02  0.10454401748E+03  0.81303452114E+02 0.  0.
          5    1    3    3  501    0  0.43675128325E+02  0.43284737065E+02 -0.12005977405E+03  0.13497231065E+03  0.47000000000E+01 0. -1.
        -13    1    4    4    0    0 -0.12404087853E+02 -0.37830713460E+02 -0.45377081549E+03  0.45551397044E+03  0.00000000000E+00 0.  1.
         14    1    4    4    0    0  0.82581074867E+01 -0.26853909551E+02 -0.39355855223E+02  0.48355063207E+02  0.00000000000E+00 0. -1.
         -5    1    5    5    0  502 -0.48530079500E+01  0.33514255083E+02  0.79911001872E+02  0.86917289420E+02  0.47000000000E+01 0.  1.
         11    1    6    6    0    0 -0.57680290036E+01  0.32201109906E+02 -0.70278263001E+01  0.33460005682E+02  0.00000000000E+00 0. -1.
        -12    1    6    6    0    0 -0.28908111005E+02 -0.44315479043E+02 -0.47469950163E+02  0.71084011797E+02  0.00000000000E+00 0.  1.
<mgrwt>
<rscale>  2 0.18707422E+03</rscale>
<asrwt>0</asrwt>
<pdfrwt beam="1">  1       21 0.18656110E-01 0.18976723E+03</pdfrwt>
<pdfrwt beam="2">  1       21 0.10908276E+00 0.18976723E+03</pdfrwt>
<totfact> 0.17543753E+04</totfact>
</mgrwt>
</event>
<event>
12    1  0.1026879E-001  0.2067057E+03  0.7546771E-02  0.1146506E+00
         21   -1    0    0  503  502  0.00000000000E+00  0.00000000000E+00  0.59172676647E+02  0.59172676647E+02  0.00000000000E+00 0.  1.
         21   -1    0    0  501  503 -0.00000000000E+00 -0.00000000000E+00 -0.68394000150E+03  0.68394000150E+03  0.00000000000E+00 0.  1.
          6    2    1    2  501    0  0.11359087671E+02  0.93193363411E+02 -0.31900951254E+03  0.38012408067E+03  0.18415541195E+03 0.  0.
         24    2    3    3    0    0  0.32279720680E+02  0.11180401547E+03 -0.13990862413E+03  0.19878669487E+03  0.79997554401E+02 0.  0.
         -6    2    1    2    0  502 -0.11359087671E+02 -0.93193363411E+02 -0.30575781231E+03  0.36298859749E+03  0.17163580704E+03 0.  0.
        -24    2    5    5    0    0 -0.18694457165E+02 -0.69208338285E+02 -0.31736280630E+03  0.33495549275E+03  0.79603734118E+02 0.  0.
          5    1    3    3  501    0 -0.20920633009E+02 -0.18610652058E+02 -0.17910088841E+03  0.18133738579E+03  0.47000000000E+01 0. -1.
        -11    1    4    4    0    0  0.33317198154E+02  0.22572704943E+02 -0.10496734772E+02  0.41590192860E+02  0.00000000000E+00 0.  1.
         12    1    4    4    0    0 -0.10374774736E+01  0.89231310525E+02 -0.12941188936E+03  0.15719650201E+03  0.00000000000E+00 0. -1.
         -5    1    5    5    0  502  0.73353694940E+01 -0.23985025126E+02  0.11604993983E+02  0.28033104738E+02  0.47000000000E+01 0.  1.
         13    1    6    6    0    0 -0.38212576385E+02 -0.24931669258E+02 -0.23535177850E+03  0.23973370386E+03  0.00000000000E+00 0. -1.
        -14    1    6    6    0    0  0.19518119220E+02 -0.44276669026E+02 -0.82011027799E+02  0.95221788886E+02  0.00000000000E+00 0.  1.
<mgrwt>
<rscale>  2 0.20388052E+03</rscale>
<asrwt>0</asrwt>
<pdfrwt beam="1">  1       21 0.91034881E-02 0.20670570E+03</pdfrwt>
<pdfrwt beam="2">  1       21 0.10522155E+00 0.20670570E+03</pdfrwt>
<totfact> 0.69130959E+04</totfact>
</mgrwt>
</event>
<event>
12    1  0.1026879E-001  0.4117557E+03  0.7546771E-02  0.1039823E+00
         21   -1    0    0  503  502  0.00000000000E+00  0.00000000000E+00  0.27681787819E+03  0.27681787819E+03  0.00000000000E+00 0. -1.
         21   -1    0    0  501  503 -0.00000000000E+00 -0.00000000000E+00 -0.14633574419E+04  0.14633574419E+04  0.00000000000E+00 0.  1.
          6    2    1    2  501    0  0.31696771214E+03 -0.19756525932E+03  0.70621127786E+02  0.41730127691E+03  0.17219886697E+03 0.  0.
         24    2    3    3    0    0  0.95939798203E+02 -0.11209878304E+03 -0.79248279318E+01  0.16760262960E+03  0.79102822395E+02 0.  0.
         -6    2    1    2    0  502 -0.31696771214E+03  0.19756525932E+03 -0.12571606915E+04  0.13228740432E+04  0.17332676562E+03 0.  0.
        -24    2    5    5    0    0 -0.65957589281E+02  0.17931317449E+02 -0.32021098260E+03  0.33637960233E+03  0.77098818133E+02 0.  0.
          5    1    3    3  501    0  0.22102791394E+03 -0.85466476282E+02  0.78545955717E+02  0.24969864731E+03  0.47000000000E+01 0. -1.
        -11    1    4    4    0    0  0.28106863060E+02  0.99817744990E+00 -0.20966547552E+02  0.35079740956E+02  0.00000000000E+00 0.  1.
         12    1    4    4    0    0  0.67832935144E+02 -0.11309696049E+03  0.13041719620E+02  0.13252288864E+03  0.00000000000E+00 0. -1.
         -5    1    5    5    0  502 -0.25101012286E+03  0.17963394188E+03 -0.93694970891E+03  0.98649444088E+03  0.47000000000E+01 0.  1.
         11    1    6    6    0    0 -0.85467480401E+01  0.57467163020E+01  0.53052349194E+00  0.10312764202E+02  0.00000000000E+00 0. -1.
        -12    1    6    6    0    0 -0.57410841241E+02  0.12184601147E+02 -0.32074150609E+03  0.32606683813E+03  0.00000000000E+00 0.  1.
<mgrwt>
<rscale>  2 0.41163724E+03</rscale>
<asrwt>0</asrwt>
<pdfrwt beam="1">  1       21 0.42587367E-01 0.41175567E+03</pdfrwt>
<pdfrwt beam="2">  1       21 0.22513191E+00 0.41175567E+03</pdfrwt>
<totfact> 0.41247264E+02</totfact>
</mgrwt>
</event>
<event>
12    1  0.1026879E-001  0.1902150E+03  0.7546771E-02  0.1158604E+00
         21   -1    0    0  501  502  0.00000000000E+00  0.00000000000E+00  0.59190244960E+03  0.59190244960E+03  0.00000000000E+00 0.  1.
         21   -1    0    0  502  503 -0.00000000000E+00 -0.00000000000E+00 -0.80189813537E+02  0.80189813537E+02  0.00000000000E+00 0.  1.
         -6    2    1    2    0  503  0.41815743276E+02 -0.60674008192E+02  0.89216831089E+02  0.20875173847E+03  0.17374623365E+03 0.  0.
        -24    2    3    3    0    0  0.15620724676E+02  0.68688865287E+01  0.10888470899E+03  0.13353779662E+03  0.75400760158E+02 0.  0.
          6    2    1    2  501    0 -0.41815743276E+02  0.60674008192E+02  0.42249580497E+03  0.46334052467E+03  0.17536203958E+03 0.  0.
         24    2    5    5    0    0 -0.29351347565E+02  0.51469548029E+02  0.43303243908E+03  0.44402229738E+03  0.78282126279E+02 0.  0.
          5    1    5    5  501    0 -0.12464395710E+02  0.92044601629E+01 -0.10536634108E+02  0.19318227291E+02  0.47000000000E+01 0. -1.
        -13    1    6    6    0    0  0.24425832406E+02  0.11802293869E+01  0.99718837827E+02  0.10267356450E+03  0.00000000000E+00 0.  1.
         14    1    6    6    0    0 -0.53777179971E+02  0.50289318642E+02  0.33331360126E+03  0.34134873288E+03  0.00000000000E+00 0. -1.
         -5    1    3    3    0  503  0.26195018600E+02 -0.67542894721E+02 -0.19667877905E+02  0.75213941846E+02  0.47000000000E+01 0.  1.
         11    1    4    4    0    0 -0.12932424117E+02  0.34172852559E+02  0.40376331479E+02  0.54454380808E+02  0.00000000000E+00 0. -1.
        -12    1    4    4    0    0  0.28553148792E+02 -0.27303966030E+02  0.68508377515E+02  0.79083415813E+02  0.00000000000E+00 0.  1.
<mgrwt>
<rscale>  2 0.18984173E+03</rscale>
<asrwt>0</asrwt>
<pdfrwt beam="1">  1       21 0.91061912E-01 0.19021497E+03</pdfrwt>
<pdfrwt beam="2">  1       21 0.12336895E-01 0.19021497E+03</pdfrwt>
<totfact> 0.57161870E+04</totfact>
</mgrwt>
</event>
<event>
12    1  0.1026879E-001  0.2419413E+03  0.7546771E-02  0.1120885E+00
         21   -1    0    0  503  502  0.00000000000E+00  0.00000000000E+00  0.80572904667E+03  0.80572904667E+03  0.00000000000E+00 0.  1.
         21   -1    0    0  501  503 -0.00000000000E+00 -0.00000000000E+00 -0.17236882658E+03  0.17236882658E+03  0.00000000000E+00 0.  1.
          6    2    1    2  501    0 -0.15385412366E+02 -0.16922507530E+03 -0.66610702403E+02  0.23749345404E+03  0.15196156757E+03 0.  0.
         24    2    3    3    0    0  0.78565310942E+01 -0.43907945330E+02  0.38477508750E+01  0.91784653223E+02  0.80124806624E+02 0.  0.
         -6    2    1    2    0  502  0.15385412366E+02  0.16922507530E+03  0.69997092250E+03  0.74060441920E+03  0.17222594571E+03 0.  0.
        -24    2    5    5    0    0 -0.13429588500E+01  0.11093053945E+02  0.19518103513E+03  0.21134031219E+03  0.80275972112E+02 0.  0.
          5    1    3    3  501    0 -0.23241943460E+02 -0.12531712997E+03 -0.70458453278E+02  0.14570880082E+03  0.47000000000E+01 0. -1.
        -13    1    4    4    0    0  0.28619624475E+02 -0.53047003462E+02  0.20475699591E+02  0.63657849125E+02  0.00000000000E+00 0.  1.
         14    1    4    4    0    0 -0.20763093381E+02  0.91390581325E+01 -0.16627948716E+02  0.28126804098E+02  0.00000000000E+00 0. -1.
         -5    1    5    5    0  502  0.16728371216E+02  0.15813202135E+03  0.50478988737E+03  0.52926410701E+03  0.47000000000E+01 0.  1.
         13    1    6    6    0    0 -0.36091993703E+02  0.75065526207E+01  0.50635582307E+02  0.62633397938E+02  0.00000000000E+00 0. -1.
        -14    1    6    6    0    0  0.34749034853E+02  0.35865013244E+01  0.14454545282E+03  0.14870691425E+03  0.00000000000E+00 0.  1.
<mgrwt>
<rscale>  2 0.23836783E+03</rscale>
<asrwt>0</asrwt>
<pdfrwt beam="1">  1       21 0.12395831E+00 0.24194134E+03</pdfrwt>
<pdfrwt beam="2">  1       21 0.26518281E-01 0.24194134E+03</pdfrwt>
<totfact> 0.63613883E+03</totfact>
</mgrwt>
</event>
<event>
12    1  0.1026879E-001  0.1978685E+03  0.7546771E-02  0.1151848E+00
         21   -1    0    0  501  502  0.00000000000E+00  0.00000000000E+00  0.21861161102E+03  0.21861161102E+03  0.00000000000E+00 0.  1.
         21   -1    0    0  502  503 -0.00000000000E+00 -0.00000000000E+00 -0.38311800123E+03  0.38311800123E+03  0.00000000000E+00 0.  1.
         -6    2    1    2    0  503 -0.39805792755E+02  0.88098793833E+02 -0.30261689219E+03  0.36156457732E+03  0.17264432085E+03 0.  0.
        -24    2    3    3    0    0 -0.91952738380E+01 -0.18062258115E+02 -0.13512694161E+03  0.16086045090E+03  0.84888138651E+02 0.  0.
          6    2    1    2  501    0  0.39805792755E+02 -0.88098793833E+02  0.13811050198E+03  0.24016503493E+03  0.17105214010E+03 0.  0.
         24    2    5    5    0    0 -0.25464608379E+02 -0.45172146217E+02  0.13046632384E+03  0.16153014573E+03  0.79884649652E+02 0.  0.
          5    1    5    5  501    0  0.65270401134E+02 -0.42926647617E+02  0.76441781443E+01  0.78634889199E+02  0.47000000000E+01 0. -1.
        -11    1    6    6    0    0  0.23690852625E+02  0.55536794947E+01  0.38926978300E+02  0.45906529967E+02  0.00000000000E+00 0.  1.
         12    1    6    6    0    0 -0.49155461004E+02 -0.50725825712E+02  0.91539345535E+02  0.11562361576E+03  0.00000000000E+00 0. -1.
         -5    1    3    3    0  503 -0.30610518917E+02  0.10616105195E+03 -0.16748995057E+03  0.20070412642E+03  0.47000000000E+01 0.  1.
         11    1    4    4    0    0  0.34532127224E+02 -0.36076025190E+01 -0.89641937615E+02  0.96130950197E+02  0.00000000000E+00 0. -1.
        -12    1    4    4    0    0 -0.43727401062E+02 -0.14454655596E+02 -0.45485004000E+02  0.64729500700E+02  0.00000000000E+00 0.  1.
<mgrwt>
<rscale>  2 0.19752071E+03</rscale>
<asrwt>0</asrwt>
<pdfrwt beam="1">  1       21 0.33632556E-01 0.19786854E+03</pdfrwt>
<pdfrwt beam="2">  1       21 0.58941230E-01 0.19786854E+03</pdfrwt>
<totfact> 0.22854188E+04</totfact>
</mgrwt>
</event>
<event>
12    1  0.1026879E-001  0.2180424E+03  0.7546771E-02  0.1135907E+00
         21   -1    0    0  503  502  0.00000000000E+00  0.00000000000E+00  0.58055613649E+03  0.58055613649E+03  0.00000000000E+00 0.  1.
         21   -1    0    0  501  503 -0.00000000000E+00 -0.00000000000E+00 -0.83578677579E+02  0.83578677579E+02  0.00000000000E+00 0. -1.
          6    2    1    2  501    0  0.89991370682E+02  0.96177123865E+02  0.30745577290E+03  0.37523869038E+03  0.17007803068E+03 0.  0.
         24    2    3    3    0    0  0.10902316224E+03  0.50439323867E+02  0.28673514919E+03  0.32133516837E+03  0.81296182883E+02 0.  0.
         -6    2    1    2    0  502 -0.89991370682E+02 -0.96177123865E+02  0.18952168601E+03  0.28889612368E+03  0.17376425081E+03 0.  0.
        -24    2    5    5    0    0 -0.90599734092E+02 -0.13662496639E+02  0.59328681016E+02  0.13468411909E+03  0.78898313743E+02 0.  0.
          5    1    3    3  501    0 -0.19031791560E+02  0.45737799998E+02  0.20720623709E+02  0.53903522014E+02  0.47000000000E+01 0. -1.
        -11    1    4    4    0    0  0.78894869938E+02  0.81413846098E+01  0.23503490511E+03  0.24805662512E+03  0.00000000000E+00 0.  1.
         12    1    4    4    0    0  0.30128292304E+02  0.42297939257E+02  0.51700244081E+02  0.73278543248E+02  0.00000000000E+00 0. -1.
         -5    1    5    5    0  502  0.60836341045E+00 -0.82514627227E+02  0.13019300499E+03  0.15421200460E+03  0.47000000000E+01 0.  1.
         11    1    6    6    0    0 -0.80853065075E+01 -0.33246566150E+02  0.66726632400E+01  0.34860160309E+02  0.00000000000E+00 0. -1.
        -12    1    6    6    0    0 -0.82514427585E+02  0.19584069511E+02  0.52656017776E+02  0.99823958779E+02  0.00000000000E+00 0.  1.
<mgrwt>
<rscale>  2 0.21730719E+03</rscale>
<asrwt>0</asrwt>
<pdfrwt beam="1">  1       21 0.89316326E-01 0.21804243E+03</pdfrwt>
<pdfrwt beam="2">  1       21 0.12858258E-01 0.21804243E+03</pdfrwt>
<totfact> 0.54760247E+04</totfact>
</mgrwt>
</event>
<event>
11    1  0.1026879E-001  0.2354027E+03  0.7546771E-02  0.1123230E+00
         21   -1    0    0  501  502  0.00000000000E+00  0.00000000000E+00  0.30417857715E+03  0.30417857715E+03  0.00000000000E+00 0. -1.
         21   -1    0    0  502  503 -0.00000000000E+00 -0.00000000000E+00 -0.23063942642E+03  0.23063942642E+03  0.00000000000E+00 0. -1.
         -6    2    1    2    0  503 -0.71575824539E+02  0.13869796741E+03 -0.87824570459E+02  0.24941887407E+03  0.17359837195E+03 0.  0.
          6    2    1    2  501    0  0.71575824539E+02 -0.13869796741E+03  0.16136372119E+03  0.28539912950E+03  0.17622198438E+03 0.  0.
         24    2    4    4    0    0 -0.87720974893E+01 -0.46246250107E+02  0.12983770229E+02  0.92936643662E+02  0.79075761788E+02 0.  0.
          5    1    4    4  501    0  0.80347922028E+02 -0.92451717304E+02  0.14837995096E+03  0.19246248584E+03  0.47000000000E+01 0. -1.
        -13    1    5    5    0    0  0.24608127449E+02 -0.37298884194E+02 -0.16374904184E+02  0.47591009505E+02  0.00000000000E+00 0.  1.
         14    1    5    5    0    0 -0.33380224938E+02 -0.89473659131E+01  0.29358674414E+02  0.45345634157E+02  0.00000000000E+00 0. -1.
         -5    1    3    3    0  503  0.18218858013E+02  0.11309002475E+03  0.17159765091E+01  0.11465738118E+03  0.47000000000E+01 0.  1.
         11    1    3    3    0    0 -0.49652189556E+02  0.97567298515E+01 -0.23316529539E+02  0.55715296418E+02  0.00000000000E+00 0. -1.
        -12    1    3    3    0    0 -0.40142492996E+02  0.15851212813E+02 -0.66224017429E+02  0.79046196468E+02  0.00000000000E+00 0.  1.
<mgrwt>
<rscale>  2 0.23491174E+03</rscale>
<asrwt>0</asrwt>
<pdfrwt beam="1">  1       21 0.46796705E-01 0.23540266E+03</pdfrwt>
<pdfrwt beam="2">  1       21 0.35482988E-01 0.23540266E+03</pdfrwt>
<totfact> 0.32760689E+04</totfact>
</mgrwt>
</event>
<event>
12    1  0.1026879E-001  0.2007744E+03  0.7546771E-02  0.1149591E+00
         21   -1    0    0  503  502  0.00000000000E+00  0.00000000000E+00  0.41360478572E+03  0.41360478572E+03  0.00000000000E+00 0.  1.
         21   -1    0    0  501  503 -0.00000000000E+00 -0.00000000000E+00 -0.98684365704E+02  0.98684365704E+02  0.00000000000E+00 0.  1.
          6    2    1    2  501    0  0.10013299790E+03 -0.18234927888E+02  0.11677848051E+03  0.23020653048E+03  0.17029005638E+03 0.  0.
         24    2    3    3    0    0  0.95652137173E+02 -0.74478915018E+01  0.13019276012E+02  0.12568619377E+03  0.80141845024E+02 0.  0.
         -6    2    1    2    0  502 -0.10013299790E+03  0.18234927888E+02  0.19814193951E+03  0.28208262095E+03  0.17306428570E+03 0.  0.
        -24    2    5    5    0    0 -0.31731757936E+02  0.39838472825E+02  0.27790092974E+02  0.97184583101E+02  0.77965027712E+02 0.  0.
          5    1    3    3  501    0  0.44808607245E+01 -0.10787036386E+02  0.10375920450E+03  0.10452033671E+03  0.47000000000E+01 0. -1.
        -13    1    4    4    0    0  0.10230284315E+03 -0.23274998637E+02  0.20598258296E+02  0.10691999590E+03  0.00000000000E+00 0.  1.
         14    1    4    4    0    0 -0.66507059759E+01  0.15827107135E+02 -0.75789822848E+01  0.18766197876E+02  0.00000000000E+00 0. -1.
         -5    1    5    5    0  502 -0.68401239962E+02 -0.21603544938E+02  0.17035184653E+03  0.18489803785E+03  0.47000000000E+01 0.  1.
         13    1    6    6    0    0  0.18429445191E+02  0.79598226226E+01  0.31809954345E+02  0.37614843103E+02  0.00000000000E+00 0. -1.
        -14    1    6    6    0    0 -0.50161203127E+02  0.31878650203E+02 -0.40198613719E+01  0.59569739997E+02  0.00000000000E+00 0.  1.
<mgrwt>
<rscale>  2 0.20017518E+03</rscale>
<asrwt>0</asrwt>
<pdfrwt beam="1">  1       21 0.63631504E-01 0.20077444E+03</pdfrwt>
<pdfrwt beam="2">  1       21 0.15182210E-01 0.20077444E+03</pdfrwt>
<totfact> 0.87291932E+04</totfact>
</mgrwt>
</event>
<event>
12    1  0.1026879E-001  0.2195267E+03  0.7546771E-02  0.1134341E+00
         21   -1    0    0  503  502  0.00000000000E+00  0.00000000000E+00  0.26621051674E+03  0.26621051674E+03  0.00000000000E+00 0.  1.
         21   -1    0    0  501  503 -0.00000000000E+00 -0.00000000000E+00 -0.18317295702E+03  0.18317295702E+03  0.00000000000E+00 0. -1.
          6    2    1    2  501    0 -0.55394759483E+02 -0.12250391227E+03  0.68359424026E+02  0.22992389842E+03  0.17354019797E+03 0.  0.
         24    2    3    3    0    0  0.36531526514E+02 -0.76735471844E+02  0.35156419047E+02  0.12189741215E+03  0.80000751374E+02 0.  0.
         -6    2    1    2    0  502  0.55394759483E+02  0.12250391227E+03  0.14678135699E+02  0.21945957534E+03  0.17283306871E+03 0.  0.
        -24    2    5    5    0    0  0.39283740636E+02 -0.66983480671E+01 -0.19111441983E+02  0.84861601487E+02  0.72444213345E+02 0.  0.
          5    1    3    3  501    0 -0.91926285996E+02 -0.45768440427E+02  0.33203004979E+02  0.10802648627E+03  0.47000000000E+01 0. -1.
        -13    1    4    4    0    0  0.15538469929E+02 -0.72337524579E+02  0.55379815635E+02  0.92417993323E+02  0.00000000000E+00 0.  1.
         14    1    4    4    0    0  0.20993056585E+02 -0.43979472643E+01 -0.20223396588E+02  0.29479418828E+02  0.00000000000E+00 0. -1.
         -5    1    5    5    0  502  0.16111018846E+02  0.12920226034E+03  0.33789577682E+02  0.13459797385E+03  0.47000000000E+01 0.  1.
         13    1    6    6    0    0  0.26924787791E+02  0.29771008597E+02 -0.22825331923E+02  0.46176324322E+02  0.00000000000E+00 0. -1.
        -14    1    6    6    0    0  0.12358952845E+02 -0.36469356664E+02  0.37138899402E+01  0.38685277166E+02  0.00000000000E+00 0.  1.
<mgrwt>
<rscale>  2 0.21938696E+03</rscale>
<asrwt>0</asrwt>
<pdfrwt beam="1">  1       21 0.40955464E-01 0.21952674E+03</pdfrwt>
<pdfrwt beam="2">  1       21 0.28180455E-01 0.21952674E+03</pdfrwt>
<totfact> 0.68293137E+04</totfact>
</mgrwt>
</event>
<event>
12    1  0.1026879E-001  0.1875647E+03  0.7546771E-02  0.1163395E+00
         21   -1    0    0  503  502  0.00000000000E+00  0.00000000000E+00  0.77911754633E+03  0.77911754633E+03  0.00000000000E+00 0.  1.
         21   -1    0    0  501  503 -0.00000000000E+00 -0.00000000000E+00 -0.53608714315E+02  0.53608714315E+02  0.00000000000E+00 0.  1.
          6    2    1    2  501    0 -0.37289650625E+02 -0.62271131506E+02  0.16370458079E+03  0.24043871983E+03  0.16044742553E+03 0.  0.
         24    2    3    3    0    0 -0.82506632530E+02 -0.62767225374E+02  0.92810630884E+02  0.15621957892E+03  0.71018833000E+02 0.  0.
         -6    2    1    2    0  502  0.37289650625E+02  0.62271131506E+02  0.56180425122E+03  0.59228754081E+03  0.17295173445E+03 0.  0.
        -24    2    5    5    0    0  0.45433697592E+02  0.10297225895E+03  0.49045759388E+03  0.50961140888E+03  0.80545823501E+02 0.  0.
          5    1    3    3  501    0  0.45216981905E+02  0.49609386768E+00  0.70893949910E+02  0.84219140910E+02  0.47000000000E+01 0. -1.
        -13    1    4    4    0    0 -0.47792602360E+02 -0.51570602254E+02  0.17371636334E+02  0.72425365764E+02  0.00000000000E+00 0.  1.
         14    1    4    4    0    0 -0.34714030170E+02 -0.11196623120E+02  0.75438994550E+02  0.83794213157E+02  0.00000000000E+00 0. -1.
         -5    1    5    5    0  502 -0.81440469674E+01 -0.40701127448E+02  0.71346657343E+02  0.82676131928E+02  0.47000000000E+01 0.  1.
         13    1    6    6    0    0  0.23391388258E+02  0.49416693432E-01  0.34635966807E+02  0.41794852354E+02  0.00000000000E+00 0. -1.
        -14    1    6    6    0    0  0.22042309334E+02  0.10292284226E+03  0.45582162707E+03  0.46781655653E+03  0.00000000000E+00 0.  1.
<mgrwt>
<rscale>  2 0.18463066E+03</rscale>
<asrwt>0</asrwt>
<pdfrwt beam="1">  1       21 0.11986423E+00 0.18756469E+03</pdfrwt>
<pdfrwt beam="2">  1       21 0.82474951E-02 0.18756469E+03</pdfrwt>
<totfact> 0.60416886E+04</totfact>
</mgrwt>
</event>
<event>
12    1  0.1026879E-001  0.1985284E+03  0.7546771E-02  0.1151006E+00
         21   -1    0    0  501  502  0.00000000000E+00  0.00000000000E+00  0.74173312770E+03  0.74173312770E+03  0.00000000000E+00 0. -1.
         21   -1    0    0  502  503 -0.00000000000E+00 -0.00000000000E+00 -0.13188032594E+03  0.13188032594E+03  0.00000000000E+00 0.  1.
         -6    2    1    2    0  503 -0.64953688460E+02 -0.74976069403E+02 -0.32678753507E+02  0.20111043146E+03  0.17186364387E+03 0.  0.
        -24    2    3    3    0    0 -0.16213698633E+02 -0.99202758575E+02 -0.55353068487E+02  0.14196033733E+03  0.83574540684E+02 0.  0.
          6    2    1    2  501    0  0.64953688460E+02  0.74976069403E+02  0.64253155526E+03  0.67250302217E+03  0.17196837702E+03 0.  0.
         24    2    5    5    0    0 -0.31356162804E+02  0.53487376650E+02  0.32059958573E+03  0.33575440024E+03  0.78120512692E+02 0.  0.
          5    1    5    5  501    0  0.96309851263E+02  0.21488692752E+02  0.32193196953E+03  0.33674862193E+03  0.47000000000E+01 0. -1.
        -13    1    6    6    0    0  0.24525773671E+02  0.27730475355E+02  0.96391269304E+02  0.10325584553E+03  0.00000000000E+00 0.  1.
         14    1    6    6    0    0 -0.55881936475E+02  0.25756901295E+02  0.22420831643E+03  0.23249855472E+03  0.00000000000E+00 0. -1.
         -5    1    3    3    0  503 -0.48739989827E+02  0.24226689173E+02  0.22674314980E+02  0.59150094137E+02  0.47000000000E+01 0.  1.
         13    1    4    4    0    0 -0.59620807792E+01 -0.34873738839E+02  0.21355054458E+02  0.41325082199E+02  0.00000000000E+00 0. -1.
        -14    1    4    4    0    0 -0.10251617853E+02 -0.64329019736E+02 -0.76708122945E+02  0.10063525513E+03  0.00000000000E+00 0.  1.
<mgrwt>
<rscale>  2 0.19850569E+03</rscale>
<asrwt>0</asrwt>
<pdfrwt beam="1">  1       21 0.11411279E+00 0.19852837E+03</pdfrwt>
<pdfrwt beam="2">  1       21 0.20289281E-01 0.19852837E+03</pdfrwt>
<totfact> 0.13371497E+04</totfact>
</mgrwt>
</event>
<event>
12    1  0.1026879E-001  0.2767299E+03  0.7546771E-02  0.1097863E+00
         21   -1    0    0  503  502  0.00000000000E+00  0.00000000000E+00  0.10923612640E+03  0.10923612640E+03  0.00000000000E+00 0. -1.
         21   -1    0    0  501  503 -0.00000000000E+00 -0.00000000000E+00 -0.90548823798E+03  0.90548823798E+03  0.00000000000E+00 0. -1.
          6    2    1    2  501    0  0.58666842790E+02  0.20439589946E+03 -0.64466183232E+03  0.70154706778E+03  0.17708734596E+03 0.  0.
         24    2    3    3    0    0  0.29774895309E+02  0.21755939354E+03 -0.47315578598E+03  0.52706372721E+03  0.75505897954E+02 0.  0.
         -6    2    1    2    0  502 -0.58666842790E+02 -0.20439589946E+03 -0.15159027925E+03  0.31317729660E+03  0.17286099671E+03 0.  0.
        -24    2    5    5    0    0  0.93592856445E+01 -0.89954615260E+02 -0.12876944701E+02  0.12085506476E+03  0.79124597555E+02 0.  0.
          5    1    3    3  501    0  0.28891947481E+02 -0.13163494077E+02 -0.17150604634E+03  0.17448334057E+03  0.47000000000E+01 0. -1.
        -13    1    4    4    0    0 -0.28562349804E+01  0.29345390716E+02 -0.20955832882E+02  0.36172599662E+02  0.00000000000E+00 0.  1.
         14    1    4    4    0    0  0.32631130290E+02  0.18821400282E+03 -0.45219995310E+03  0.49089112755E+03  0.00000000000E+00 0. -1.
         -5    1    5    5    0  502 -0.68026128434E+02 -0.11444128420E+03 -0.13871333455E+03  0.19232223185E+03  0.47000000000E+01 0.  1.
         13    1    6    6    0    0  0.40283279064E+02 -0.63419133655E+02 -0.23543344911E+02  0.78733843901E+02  0.00000000000E+00 0. -1.
        -14    1    6    6    0    0 -0.30923993420E+02 -0.26535481605E+02  0.10666400210E+02  0.42121220857E+02  0.00000000000E+00 0.  1.
<mgrwt>
<rscale>  2 0.27605606E+03</rscale>
<asrwt>0</asrwt>
<pdfrwt beam="1">  1       21 0.16805559E-01 0.27672985E+03</pdfrwt>
<pdfrwt beam="2">  1       21 0.13930588E+00 0.27672985E+03</pdfrwt>
<totfact> 0.10957038E+04</totfact>
</mgrwt>
</event>
<event>
12    1  0.1026879E-001  0.1815416E+03  0.7546771E-02  0.1166397E+00
         21   -1    0    0  503  502  0.00000000000E+00  0.00000000000E+00  0.43038690677E+03  0.43038690677E+03  0.00000000000E+00 0. -1.
         21   -1    0    0  501  503 -0.00000000000E+00 -0.00000000000E+00 -0.37130233185E+03  0.37130233185E+03  0.00000000000E+00 0. -1.
          6    2    1    2  501    0 -0.52272900115E+02  0.14846842755E+02 -0.32766130468E+03  0.37459217182E+03  0.17321801227E+03 0.  0.
         24    2    3    3    0    0  0.19977832749E+02  0.49938194508E+02 -0.22663210224E+03  0.24543892520E+03  0.77364198196E+02 0.  0.
         -6    2    1    2    0  502  0.52272900115E+02 -0.14846842755E+02  0.38674587960E+03  0.42709706680E+03  0.17287754122E+03 0.  0.
        -24    2    5    5    0    0 -0.56210040881E+01 -0.51418136225E+02  0.32433083665E+03  0.33432373423E+03  0.62501577968E+02 0.  0.
          5    1    3    3  501    0 -0.72250732864E+02 -0.35091351753E+02 -0.10102920244E+03  0.12915324662E+03  0.47000000000E+01 0. -1.
        -13    1    4    4    0    0  0.41448657154E+02  0.50468246082E+02 -0.11955720637E+03  0.13623127629E+03  0.00000000000E+00 0.  1.
         14    1    4    4    0    0 -0.21470824405E+02 -0.53005157382E+00 -0.10707489587E+03  0.10920764891E+03  0.00000000000E+00 0. -1.
         -5    1    5    5    0  502  0.57893904204E+02  0.36571293470E+02  0.62415042951E+02  0.92773332572E+02  0.47000000000E+01 0.  1.
         13    1    6    6    0    0  0.10168297727E+02 -0.41785958853E+02  0.95379176501E+02  0.10462622972E+03  0.00000000000E+00 0. -1.
        -14    1    6    6    0    0 -0.15789301815E+02 -0.96321773723E+01  0.22895166015E+03  0.22969750451E+03  0.00000000000E+00 0.  1.
<mgrwt>
<rscale>  2 0.18146037E+03</rscale>
<asrwt>0</asrwt>
<pdfrwt beam="1">  1       21 0.66213370E-01 0.18154163E+03</pdfrwt>
<pdfrwt beam="2">  1       21 0.57123436E-01 0.18154163E+03</pdfrwt>
<totfact> 0.60765213E+03</totfact>
</mgrwt>
</event>
<event>
12    1  0.1026879E-001  0.1745126E+03  0.7546771E-02  0.1173554E+00
         21   -1    0    0  501  502  0.00000000000E+00  0.00000000000E+00  0.93542777275E+03  0.93542777275E+03  0.00000000000E+00 0. -1.
         21   -1    0    0  502  503 -0.00000000000E+00 -0.00000000000E+00 -0.33101021786E+02  0.33101021786E+02  0.00000000000E+00 0. -1.
         -6    2    1    2    0  503  0.18597742080E+02 -0.29146604979E+01  0.37808671645E+03  0.41641831266E+03  0.17349430742E+03 0.  0.
        -24    2    3    3    0    0  0.69669304863E+02  0.34225429394E+02  0.20701479904E+03  0.23400290287E+03  0.76661851481E+02 0.  0.
          6    2    1    2  501    0 -0.18597742080E+02  0.29146604979E+01  0.52424003452E+03  0.55211048188E+03  0.17217432780E+03 0.  0.
         24    2    5    5    0    0  0.45039887327E+02  0.27406016517E+02  0.38768229831E+03  0.39940265722E+03  0.80282233240E+02 0.  0.
          5    1    5    5  501    0 -0.63637629407E+02 -0.24491356019E+02  0.13655773620E+03  0.15270782466E+03  0.47000000000E+01 0. -1.
        -13    1    6    6    0    0  0.21770467569E+01  0.42845018830E+02  0.11113422215E+03  0.11912703515E+03  0.00000000000E+00 0.  1.
         14    1    6    6    0    0  0.42862840570E+02 -0.15439002313E+02  0.27654807616E+03  0.28027562206E+03  0.00000000000E+00 0. -1.
         -5    1    3    3    0  503 -0.51071562783E+02 -0.37140089892E+02  0.17107191741E+03  0.18241540979E+03  0.47000000000E+01 0.  1.
         13    1    4    4    0    0  0.37744992094E+01  0.26369336477E+02  0.12835166928E+03  0.13108676423E+03  0.00000000000E+00 0. -1.
        -14    1    4    4    0    0  0.65894805653E+02  0.78560929177E+01  0.78663129761E+02  0.10291613864E+03  0.00000000000E+00 0.  1.
<mgrwt>
<rscale>  2 0.17418361E+03</rscale>
<asrwt>0</asrwt>
<pdfrwt beam="1">  1       21 0.14391195E+00 0.17451260E+03</pdfrwt>
<pdfrwt beam="2">  1       21 0.50924656E-02 0.17451260E+03</pdfrwt>
<totfact> 0.87642162E+04</totfact>
</mgrwt>
</event>
<event>
12    1  0.1026879E-001  0.2021064E+03  0.7546771E-02  0.1148417E+00
         21   -1    0    0  503  502  0.00000000000E+00  0.00000000000E+00  0.13963974248E+03  0.13963974248E+03  0.00000000000E+00 0. -1.
         21   -1    0    0  501  503 -0.00000000000E+00 -0.00000000000E+00 -0.30289927122E+03  0.30289927122E+03  0.00000000000E+00 0. -1.
          6    2    1    2  501    0 -0.44413207317E+02 -0.90711911650E+02 -0.35437074754E+02  0.20518967579E+03  0.17505951240E+03 0.  0.
         24    2    3    3    0    0  0.55467053519E+01  0.17457994344E+02 -0.62910050428E+01  0.82436652131E+02  0.80129129306E+02 0.  0.
         -6    2    1    2    0  502  0.44413207317E+02  0.90711911650E+02 -0.12782245398E+03  0.23734933792E+03  0.17261212173E+03 0.  0.
        -24    2    5    5    0    0  0.23043688619E+02  0.11080763788E+03 -0.14376129360E+03  0.20363537715E+03  0.89390788614E+02 0.  0.
          5    1    3    3  501    0 -0.49959912669E+02 -0.10816990599E+03 -0.29146069711E+02  0.12275302365E+03  0.47000000000E+01 0. -1.
        -13    1    4    4    0    0  0.30991146075E+02 -0.74234250847E+01 -0.26556925294E+02  0.41482871840E+02  0.00000000000E+00 0.  1.
         14    1    4    4    0    0 -0.25444440723E+02  0.24881419429E+02  0.20265920251E+02  0.40953780291E+02  0.00000000000E+00 0. -1.
         -5    1    5    5    0  502  0.21369518698E+02 -0.20095726235E+02  0.15938839620E+02  0.33713960769E+02  0.47000000000E+01 0.  1.
         13    1    6    6    0    0  0.42456942421E+02  0.46465770090E+02 -0.26111830820E+02  0.68143139483E+02  0.00000000000E+00 0. -1.
        -14    1    6    6    0    0 -0.19413253802E+02  0.64341867795E+02 -0.11764946278E+03  0.13549223766E+03  0.00000000000E+00 0.  1.
<mgrwt>
<rscale>  2 0.20157533E+03</rscale>
<asrwt>0</asrwt>
<pdfrwt beam="1">  1       21 0.21483037E-01 0.20210645E+03</pdfrwt>
<pdfrwt beam="2">  1       21 0.46599888E-01 0.20210645E+03</pdfrwt>
<totfact> 0.88668327E+04</totfact>
</mgrwt>
</event>
<event>
12    1  0.1026879E-001  0.2036627E+03  0.7546771E-02  0.1146766E+00
         21   -1    0    0  503  502  0.00000000000E+00  0.00000000000E+00  0.12621864676E+03  0.12621864676E+03  0.00000000000E+00 0.  1.
         21   -1    0    0  501  503 -0.00000000000E+00 -0.00000000000E+00 -0.34436562922E+03  0.34436562922E+03  0.00000000000E+00 0.  1.
          6    2    1    2  501    0 -0.49727523866E+02  0.94678442854E+02 -0.57865860739E+02  0.21172379278E+03  0.17332533693E+03 0.  0.
         24    2    3    3    0    0 -0.53175104620E+02  0.35194827192E+02 -0.96356527182E+02  0.14063365459E+03  0.80168428074E+02 0.  0.
         -6    2    1    2    0  502  0.49727523866E+02 -0.94678442854E+02 -0.16028112172E+03  0.25886048319E+03  0.17286375446E+03 0.  0.
        -24    2    5    5    0    0  0.34571151584E+01 -0.59286521460E+02 -0.17215008412E+02  0.10431747429E+03  0.84017472323E+02 0.  0.
          5    1    3    3  501    0  0.34475807546E+01  0.59483615662E+02  0.38490666443E+02  0.71090138194E+02  0.47000000000E+01 0. -1.
        -13    1    4    4    0    0  0.80569713005E+01  0.15170975246E+02  0.72387395552E+01  0.18640617662E+02  0.00000000000E+00 0.  1.
         14    1    4    4    0    0 -0.61232075921E+02  0.20023851946E+02 -0.10359526674E+03  0.12199303693E+03  0.00000000000E+00 0. -1.
         -5    1    5    5    0  502  0.46270408707E+02 -0.35391921394E+02 -0.14306611331E+03  0.15454300890E+03  0.47000000000E+01 0.  1.
         11    1    6    6    0    0  0.37036931130E+02 -0.19550266524E+02  0.13377176000E+02  0.43964713424E+02  0.00000000000E+00 0. -1.
        -12    1    6    6    0    0 -0.33579815972E+02 -0.39736254937E+02 -0.30592184412E+02  0.60352760867E+02  0.00000000000E+00 0.  1.
<mgrwt>
<rscale>  2 0.20356449E+03</rscale>
<asrwt>0</asrwt>
<pdfrwt beam="1">  1       21 0.19418253E-01 0.20366273E+03</pdfrwt>
<pdfrwt beam="2">  1       21 0.52979327E-01 0.20366273E+03</pdfrwt>
<totfact> 0.81937689E+04</totfact>
</mgrwt>
</event>
<event>
12    1  0.1026879E-001  0.1949006E+03  0.7546771E-02  0.1154410E+00
         21   -1    0    0  503  502  0.00000000000E+00  0.00000000000E+00  0.15484801776E+03  0.15484801776E+03  0.00000000000E+00 0. -1.
         21   -1    0    0  501  503 -0.00000000000E+00 -0.00000000000E+00 -0.38993932234E+03  0.38993932234E+03  0.00000000000E+00 0. -1.
          6    2    1    2  501    0  0.73314834162E+02  0.49702434755E+02  0.49568966920E+02  0.19979792649E+03  0.17209512491E+03 0.  0.
         24    2    3    3    0    0  0.15184933730E+02 -0.29736732814E+02  0.99621645499E+00  0.89929510845E+02  0.83495323119E+02 0.  0.
         -6    2    1    2    0  502 -0.73314834162E+02 -0.49702434755E+02 -0.28466027150E+03  0.34498941360E+03  0.17361114135E+03 0.  0.
        -24    2    5    5    0    0 -0.60129605778E+02  0.80481047387E+01 -0.26232904701E+03  0.28150911236E+03  0.82161487040E+02 0.  0.
          5    1    3    3  501    0  0.58129900432E+02  0.79439167569E+02  0.48572750465E+02  0.10986841564E+03  0.47000000000E+01 0. -1.
        -11    1    4    4    0    0  0.42347231223E+02 -0.42228817864E+02 -0.23174127529E+01  0.59849239362E+02  0.00000000000E+00 0.  1.
         12    1    4    4    0    0 -0.27162297492E+02  0.12492085050E+02  0.33136292079E+01  0.30080271483E+02  0.00000000000E+00 0. -1.
         -5    1    5    5    0  502 -0.13185228384E+02 -0.57750539494E+02 -0.22331224489E+02  0.63480301248E+02  0.47000000000E+01 0.  1.
         13    1    6    6    0    0 -0.27885644546E+02 -0.33494471443E+02 -0.16747324893E+03  0.17305137358E+03  0.00000000000E+00 0. -1.
        -14    1    6    6    0    0 -0.32243961232E+02  0.41542576182E+02 -0.94855798078E+02  0.10845773878E+03  0.00000000000E+00 0.  1.
<mgrwt>
<rscale>  2 0.19456238E+03</rscale>
<asrwt>0</asrwt>
<pdfrwt beam="1">  1       21 0.23822772E-01 0.19490055E+03</pdfrwt>
<pdfrwt beam="2">  1       21 0.59990665E-01 0.19490055E+03</pdfrwt>
<totfact> 0.42991376E+04</totfact>
</mgrwt>
</event>
<event>
12    1  0.1026879E-001  0.1788821E+03  0.7546771E-02  0.1168932E+00
         21   -1    0    0  503  502  0.00000000000E+00  0.00000000000E+00  0.67656289617E+02  0.67656289617E+02  0.00000000000E+00 0.  1.
         21   -1    0    0  501  503 -0.00000000000E+00 -0.00000000000E+00 -0.47865311126E+03  0.47865311126E+03  0.00000000000E+00 0.  1.
          6    2    1    2  501    0 -0.43128917319E+02  0.11228800746E+02 -0.17443721017E+03  0.24973012889E+03  0.17306243818E+03 0.  0.
         24    2    3    3    0    0 -0.35311285123E+02  0.50934711662E+02 -0.40044409275E+02  0.10929797564E+03  0.80630397838E+02 0.  0.
         -6    2    1    2    0  502  0.43128917319E+02 -0.11228800746E+02 -0.23655961147E+03  0.29657927198E+03  0.17324152307E+03 0.  0.
        -24    2    5    5    0    0 -0.13240472370E+02 -0.20533533936E+02 -0.42044708639E+02  0.93793119650E+02  0.80202591259E+02 0.  0.
          5    1    3    3  501    0 -0.78176321967E+01 -0.39705910917E+02 -0.13439280089E+03  0.14043215325E+03  0.47000000000E+01 0. -1.
        -11    1    4    4    0    0  0.39537321614E+01  0.55712026093E+02 -0.41710761839E+02  0.69708317313E+02  0.00000000000E+00 0.  1.
         12    1    4    4    0    0 -0.39265017284E+02 -0.47773144307E+01  0.16663525648E+01  0.39589658326E+02  0.00000000000E+00 0. -1.
         -5    1    5    5    0  502  0.56369389690E+02  0.93047331908E+01 -0.19451490283E+03  0.20278615233E+03  0.47000000000E+01 0.  1.
         11    1    6    6    0    0 -0.33882351734E+02 -0.36372936133E+02 -0.45693706075E+02  0.67519767600E+02  0.00000000000E+00 0. -1.
        -12    1    6    6    0    0  0.20641879364E+02  0.15839402196E+02  0.36489974357E+01  0.26273352049E+02  0.00000000000E+00 0.  1.
<mgrwt>
<rscale>  2 0.17883875E+03</rscale>
<asrwt>0</asrwt>
<pdfrwt beam="1">  1       21 0.10408660E-01 0.17888213E+03</pdfrwt>
<pdfrwt beam="2">  1       21 0.73638939E-01 0.17888213E+03</pdfrwt>
<totfact> 0.12582178E+05</totfact>
</mgrwt>
</event>
<event>
12    1  0.1026879E-001  0.2126992E+03  0.7546771E-02  0.1139760E+00
         21   -1    0    0  501  502  0.00000000000E+00  0.00000000000E+00  0.25415668520E+03  0.25415668520E+03  0.00000000000E+00 0. -1.
         21   -1    0    0  502  503 -0.00000000000E+00 -0.00000000000E+00 -0.84809899900E+03  0.84809899900E+03  0.00000000000E+00 0.  1.
         -6    2    1    2    0  503 -0.11638101075E+03 -0.37675337628E+02 -0.78758370597E+03  0.81579962570E+03  0.17400277200E+03 0.  0.
        -24    2    3    3    0    0 -0.35039712437E+02 -0.10158318472E+02 -0.16604773404E+03  0.18834233827E+03  0.81055619933E+02 0.  0.
          6    2    1    2  501    0  0.11638101075E+03  0.37675337628E+02  0.19364139217E+03  0.28645605850E+03  0.17203521140E+03 0.  0.
         24    2    5    5    0    0 -0.14746196527E+01 -0.10950103706E+02  0.85251655521E+02  0.11904994101E+03  0.82358754307E+02 0.  0.
          5    1    5    5  501    0  0.11785563040E+03  0.48625441335E+02  0.10838973665E+03  0.16740611749E+03  0.47000000000E+01 0. -1.
        -13    1    6    6    0    0 -0.41512532662E+01 -0.97231611194E+01 -0.15221934975E+02  0.18533215323E+02  0.00000000000E+00 0.  1.
         14    1    6    6    0    0  0.26766336135E+01 -0.12269425869E+01  0.10047359050E+03  0.10051672569E+03  0.00000000000E+00 0. -1.
         -5    1    3    3    0  503 -0.81341298312E+02 -0.27517019156E+02 -0.62153597193E+03  0.62745728743E+03  0.47000000000E+01 0.  1.
         13    1    4    4    0    0 -0.58712210812E+02 -0.83966402800E+01 -0.14483160845E+03  0.15650502251E+03  0.00000000000E+00 0. -1.
        -14    1    4    4    0    0  0.23672498375E+02 -0.17616781920E+01 -0.21216125594E+02  0.31837315756E+02  0.00000000000E+00 0.  1.
<mgrwt>
<rscale>  2 0.21229638E+03</rscale>
<asrwt>0</asrwt>
<pdfrwt beam="1">  1       21 0.39101029E-01 0.21269917E+03</pdfrwt>
<pdfrwt beam="2">  1       21 0.13047677E+00 0.21269917E+03</pdfrwt>
<totfact> 0.26537512E+03</totfact>
</mgrwt>
</event>
<event>
12    1  0.1026879E-001  0.2042573E+03  0.7546771E-02  0.1146510E+00
         21   -1    0    0  501  502  0.00000000000E+00  0.00000000000E+00  0.76534642684E+03  0.76534642684E+03  0.00000000000E+00 0. -1.
         21   -1    0    0  502  503 -0.00000000000E+00 -0.00000000000E+00 -0.61596802081E+02  0.61596802081E+02  0.00000000000E+00 0. -1.
         -6    2    1    2    0  503 -0.11874429078E+02 -0.10755246382E+03  0.20654455100E+03  0.28941748018E+03  0.17144471920E+03 0.  0.
        -24    2    3    3    0    0 -0.11904000960E+02 -0.90931106599E+02  0.22882988215E+03  0.26122180011E+03  0.86391796493E+02 0.  0.
          6    2    1    2  501    0  0.11874429078E+02  0.10755246382E+03  0.49720507376E+03  0.53752574875E+03  0.17324119215E+03 0.  0.
         24    2    5    5    0    0  0.38730261976E+02  0.33451565734E+02  0.39764087860E+03  0.41045373052E+03  0.87948599331E+02 0.  0.
          5    1    5    5  501    0 -0.26855832899E+02  0.74100898088E+02  0.99564195160E+02  0.12707201823E+03  0.47000000000E+01 0. -1.
        -11    1    6    6    0    0  0.23214756288E+02  0.93713381746E+01  0.36933332971E+03  0.37018084138E+03  0.00000000000E+00 0.  1.
         12    1    6    6    0    0  0.15515505688E+02  0.24080227559E+02  0.28307548894E+02  0.40272889149E+02  0.00000000000E+00 0. -1.
         -5    1    3    3    0  503  0.29571882110E-01 -0.16621357222E+02 -0.22285331143E+02  0.28195680069E+02  0.47000000000E+01 0.  1.
         11    1    4    4    0    0 -0.25876990401E+02  0.63181107957E+01  0.35747700677E+02  0.44580660156E+02  0.00000000000E+00 0. -1.
        -12    1    4    4    0    0  0.13972989441E+02 -0.97249217395E+02  0.19308218147E+03  0.21664113995E+03  0.00000000000E+00 0.  1.
<mgrwt>
<rscale>  2 0.20387587E+03</rscale>
<asrwt>0</asrwt>
<pdfrwt beam="1">  1       21 0.11774560E+00 0.20425730E+03</pdfrwt>
<pdfrwt beam="2">  1       21 0.94764316E-02 0.20425730E+03</pdfrwt>
<totfact> 0.49071318E+04</totfact>
</mgrwt>
</event>
<event>
12    1  0.1026879E-001  0.1743467E+03  0.7546771E-02  0.1173469E+00
         21   -1    0    0  503  502  0.00000000000E+00  0.00000000000E+00  0.92274324042E+02  0.92274324042E+02  0.00000000000E+00 0.  1.
         21   -1    0    0  501  503 -0.00000000000E+00 -0.00000000000E+00 -0.45976339272E+03  0.45976339272E+03  0.00000000000E+00 0.  1.
          6    2    1    2  501    0 -0.17504170914E+02 -0.32936395951E+00 -0.36561978744E+02  0.17813910968E+03  0.17346544217E+03 0.  0.
         24    2    3    3    0    0  0.33028263331E+02  0.36204797716E+02  0.16833950385E+02  0.95910847339E+02  0.80708458016E+02 0.  0.
         -6    2    1    2    0  502  0.17504170914E+02  0.32936395951E+00 -0.33092708993E+03  0.37389860708E+03  0.17315000735E+03 0.  0.
        -24    2    5    5    0    0  0.53828257966E+02 -0.50501614308E+02 -0.23498977175E+03  0.25931550766E+03  0.81095285219E+02 0.  0.
          5    1    3    3  501    0 -0.50532434245E+02 -0.36534161675E+02 -0.53395929129E+02  0.82228262341E+02  0.47000000000E+01 0. -1.
        -11    1    4    4    0    0  0.49011653628E+01 -0.56376184229E+01  0.39810050542E+02  0.40504867455E+02  0.00000000000E+00 0.  1.
         12    1    4    4    0    0  0.28127097969E+02  0.41842416139E+02 -0.22976100157E+02  0.55405979884E+02  0.00000000000E+00 0. -1.
         -5    1    5    5    0  502 -0.36324087052E+02  0.50830978267E+02 -0.95937318183E+02  0.11458309942E+03  0.47000000000E+01 0.  1.
         13    1    6    6    0    0  0.41153950472E+02 -0.63410541103E+02 -0.11276366536E+03  0.13575783067E+03  0.00000000000E+00 0. -1.
        -14    1    6    6    0    0  0.12674307494E+02  0.12908926796E+02 -0.12222610639E+03  0.12355767699E+03  0.00000000000E+00 0.  1.
<mgrwt>
<rscale>  2 0.17426817E+03</rscale>
<asrwt>0</asrwt>
<pdfrwt beam="1">  1       21 0.14196050E-01 0.17434668E+03</pdfrwt>
<pdfrwt beam="2">  1       21 0.70732830E-01 0.17434668E+03</pdfrwt>
<totfact> 0.79123774E+04</totfact>
</mgrwt>
</event>
<event>
12    1  0.1026879E-001  0.2193005E+03  0.7546771E-02  0.1134683E+00
         21   -1    0    0  503  502  0.00000000000E+00  0.00000000000E+00  0.27702912638E+03  0.27702912638E+03  0.00000000000E+00 0. -1.
         21   -1    0    0  501  503 -0.00000000000E+00 -0.00000000000E+00 -0.23756244209E+03  0.23756244209E+03  0.00000000000E+00 0.  1.
          6    2    1    2  501    0  0.81475040836E+02  0.10658992206E+03  0.15450154157E+03  0.26826000428E+03  0.17347365733E+03 0.  0.
         24    2    3    3    0    0  0.65438367647E+02  0.14187690981E+03  0.10453599643E+03  0.20484871119E+03  0.81387851833E+02 0.  0.
         -6    2    1    2    0  502 -0.81475040836E+02 -0.10658992206E+03 -0.11503485728E+03  0.24633156419E+03  0.17160019628E+03 0.  0.
        -24    2    5    5    0    0  0.18994867525E+02 -0.35443367494E+02 -0.74838424101E+02  0.11674036869E+03  0.80065514846E+02 0.  0.
          5    1    3    3  501    0  0.16036673189E+02 -0.35286987755E+02  0.49965545131E+02  0.63411293096E+02  0.47000000000E+01 0. -1.
        -13    1    4    4    0    0 -0.76479701793E+01 -0.17191060578E+01 -0.56392219196E+01  0.96564795531E+01  0.00000000000E+00 0.  1.
         14    1    4    4    0    0  0.73086337826E+02  0.14359601587E+03  0.11017521835E+03  0.19519223163E+03  0.00000000000E+00 0. -1.
         -5    1    5    5    0  502 -0.10046990836E+03 -0.71146554563E+02 -0.40196433179E+02  0.12959119551E+03  0.47000000000E+01 0.  1.
         13    1    6    6    0    0  0.22403348829E+02 -0.21771397395E+02 -0.90460414731E+02  0.95702614471E+02  0.00000000000E+00 0. -1.
        -14    1    6    6    0    0 -0.34084813035E+01 -0.13671970099E+02  0.15621990630E+02  0.21037754216E+02  0.00000000000E+00 0.  1.
<mgrwt>
<rscale>  2 0.21892981E+03</rscale>
<asrwt>0</asrwt>
<pdfrwt beam="1">  1       21 0.42619866E-01 0.21930049E+03</pdfrwt>
<pdfrwt beam="2">  1       21 0.36548068E-01 0.21930049E+03</pdfrwt>
<totfact> 0.37722497E+04</totfact>
</mgrwt>
</event>
<event>
12    1  0.1026879E-001  0.1757467E+03  0.7546771E-02  0.1172102E+00
         21   -1    0    0  503  502  0.00000000000E+00  0.00000000000E+00  0.22914116045E+03  0.22914116045E+03  0.00000000000E+00 0.  1.
         21   -1    0    0  501  503 -0.00000000000E+00 -0.00000000000E+00 -0.19353840098E+03  0.19353840098E+03  0.00000000000E+00 0.  1.
          6    2    1    2  501    0 -0.40501131918E+01  0.25208935165E+02 -0.99007287599E+02  0.20130482668E+03  0.17340500690E+03 0.  0.
         24    2    3    3    0    0  0.57916288894E+02 -0.10349260078E+02 -0.79236796657E+02  0.12702708743E+03  0.79975041681E+02 0.  0.
         -6    2    1    2    0  502  0.40501131918E+01 -0.25208935165E+02  0.13461004707E+03  0.22137473475E+03  0.17388218593E+03 0.  0.
        -24    2    5    5    0    0 -0.43366104110E+02 -0.64260464761E+02  0.75176604467E+02  0.13577249339E+03  0.82295940266E+02 0.  0.
          5    1    3    3  501    0 -0.61966402085E+02  0.35558195244E+02 -0.19770490942E+02  0.74277739253E+02  0.47000000000E+01 0. -1.
        -11    1    4    4    0    0  0.12160140971E+02 -0.41665430997E+02 -0.28943976364E+02  0.52169252787E+02  0.00000000000E+00 0.  1.
         12    1    4    4    0    0  0.45756147923E+02  0.31316170918E+02 -0.50292820293E+02  0.74857834639E+02  0.00000000000E+00 0. -1.
         -5    1    5    5    0  502  0.47416217302E+02  0.39051529596E+02  0.59433442607E+02  0.85602241367E+02  0.47000000000E+01 0.  1.
         13    1    6    6    0    0 -0.86825667959E+01  0.35883468728E+01 -0.15008051139E+02  0.17706066713E+02  0.00000000000E+00 0. -1.
        -14    1    6    6    0    0 -0.34683537314E+02 -0.67848811634E+02  0.90184655606E+02  0.11806642667E+03  0.00000000000E+00 0.  1.
<mgrwt>
<rscale>  2 0.17562857E+03</rscale>
<asrwt>0</asrwt>
<pdfrwt beam="1">  1       21 0.35252486E-01 0.17574672E+03</pdfrwt>
<pdfrwt beam="2">  1       21 0.29775139E-01 0.17574672E+03</pdfrwt>
<totfact> 0.84461584E+04</totfact>
</mgrwt>
</event>
<event>
12    1  0.1026879E-001  0.2353377E+03  0.7546771E-02  0.1122990E+00
         21   -1    0    0  501  502  0.00000000000E+00  0.00000000000E+00  0.14079016070E+04  0.14079016070E+04  0.00000000000E+00 0. -1.
         21   -1    0    0  502  503 -0.00000000000E+00 -0.00000000000E+00 -0.42510416649E+02  0.42510416649E+02  0.00000000000E+00 0. -1.
         -6    2    1    2    0  503 -0.15972247381E+03 -0.11890097181E+02  0.48261468751E+03  0.53680478326E+03  0.17201684708E+03 0.  0.
        -24    2    3    3    0    0 -0.12740159232E+03  0.44422221320E+01  0.47725465327E+03  0.49989673533E+03  0.76640999911E+02 0.  0.
          6    2    1    2  501    0  0.15972247381E+03  0.11890097181E+02  0.88277650285E+03  0.91360724039E+03  0.17242735476E+03 0.  0.
         24    2    5    5    0    0  0.56087302024E+02 -0.30516375869E+02  0.24032711488E+03  0.26145552194E+03  0.80776439389E+02 0.  0.
          5    1    5    5  501    0  0.10363517179E+03  0.42406473051E+02  0.64244938796E+03  0.65215171845E+03  0.47000000000E+01 0. -1.
        -13    1    6    6    0    0 -0.36284120095E+01 -0.28828474513E+02  0.15245786026E+03  0.15520195060E+03  0.00000000000E+00 0.  1.
         14    1    6    6    0    0  0.59715714034E+02 -0.16879013560E+01  0.87869254624E+02  0.10625357134E+03  0.00000000000E+00 0. -1.
         -5    1    3    3    0  503 -0.32320881496E+02 -0.16332319314E+02  0.53600342422E+01  0.36908047929E+02  0.47000000000E+01 0.  1.
         11    1    4    4    0    0 -0.66422298298E+02 -0.34105581402E+02  0.20243943384E+03  0.21577033339E+03  0.00000000000E+00 0. -1.
        -12    1    4    4    0    0 -0.60979294020E+02  0.38547803534E+02  0.27481521942E+03  0.28412640195E+03  0.00000000000E+00 0.  1.
<mgrwt>
<rscale>  2 0.23526252E+03</rscale>
<asrwt>0</asrwt>
<pdfrwt beam="1">  1       21 0.21660021E+00 0.23533771E+03</pdfrwt>
<pdfrwt beam="2">  1       21 0.65400652E-02 0.23533771E+03</pdfrwt>
<totfact> 0.17382506E+04</totfact>
</mgrwt>
</event>
<event>
12    1  0.1026879E-001  0.2058869E+03  0.7546771E-02  0.1144936E+00
         21   -1    0    0  503  502  0.00000000000E+00  0.00000000000E+00  0.23583752876E+03  0.23583752876E+03  0.00000000000E+00 0. -1.
         21   -1    0    0  501  503 -0.00000000000E+00 -0.00000000000E+00 -0.18324728331E+03  0.18324728331E+03  0.00000000000E+00 0. -1.
          6    2    1    2  501    0  0.47743912834E+02  0.10001050014E+03 -0.38995207400E+01  0.20592387139E+03  0.17351614678E+03 0.  0.
         24    2    3    3    0    0  0.50821124848E+02  0.13009936653E+03 -0.32584033642E+02  0.16397508839E+03  0.79482567031E+02 0.  0.
         -6    2    1    2    0  502 -0.47743912834E+02 -0.10001050014E+03  0.56489766193E+02  0.21316094069E+03  0.17310375963E+03 0.  0.
        -24    2    5    5    0    0 -0.74239379191E+02 -0.10358155829E+03  0.64229156553E-01  0.15054549991E+03  0.80145609840E+02 0.  0.
          5    1    3    3  501    0 -0.30772120134E+01 -0.30088866391E+02  0.28684512902E+02  0.41948782997E+02  0.47000000000E+01 0. -1.
        -13    1    4    4    0    0 -0.21107473032E+02  0.19556100190E+02 -0.43360777293E+01  0.29099279072E+02  0.00000000000E+00 0.  1.
         14    1    4    4    0    0  0.71928597879E+02  0.11054326634E+03 -0.28247955913E+02  0.13487580932E+03  0.00000000000E+00 0. -1.
         -5    1    5    5    0  502  0.26495466356E+02  0.35710581495E+01  0.56425537036E+02  0.62615440776E+02  0.47000000000E+01 0.  1.
         11    1    6    6    0    0 -0.71854712625E+02 -0.90161583491E+02  0.28718307423E+02  0.11881478042E+03  0.00000000000E+00 0. -1.
        -12    1    6    6    0    0 -0.23846665659E+01 -0.13419974803E+02 -0.28654078266E+02  0.31730719494E+02  0.00000000000E+00 0.  1.
<mgrwt>
<rscale>  2 0.20580003E+03</rscale>
<asrwt>0</asrwt>
<pdfrwt beam="1">  1       21 0.36282697E-01 0.20588695E+03</pdfrwt>
<pdfrwt beam="2">  1       21 0.28191890E-01 0.20588695E+03</pdfrwt>
<totfact> 0.87594947E+04</totfact>
</mgrwt>
</event>
<event>
12    1  0.1026879E-001  0.1875059E+03  0.7546771E-02  0.1160892E+00
         21   -1    0    0  501  502  0.00000000000E+00  0.00000000000E+00  0.10382023225E+04  0.10382023225E+04  0.00000000000E+00 0.  1.
         21   -1    0    0  502  503 -0.00000000000E+00 -0.00000000000E+00 -0.61518277156E+02  0.61518277156E+02  0.00000000000E+00 0.  1.
         -6    2    1    2    0  503  0.67079412813E+02  0.26825091040E+02  0.11934153889E+03  0.22226309517E+03  0.17302961434E+03 0.  0.
        -24    2    3    3    0    0 -0.14116495706E+02 -0.18730198123E+02  0.22242829339E+02  0.87658825819E+02  0.81481473442E+02 0.  0.
          6    2    1    2  501    0 -0.67079412813E+02 -0.26825091040E+02  0.85734250643E+03  0.87745750446E+03  0.17226800536E+03 0.  0.
         24    2    5    5    0    0 -0.27060417160E+02  0.45218529170E+02  0.34430903898E+03  0.35782568101E+03  0.81936085489E+02 0.  0.
          5    1    5    5  501    0 -0.40018995653E+02 -0.72043620210E+02  0.51303346745E+03  0.51963182345E+03  0.47000000000E+01 0. -1.
        -11    1    6    6    0    0 -0.35722578635E+02 -0.16281295069E+01  0.62405875964E+02  0.71925286130E+02  0.00000000000E+00 0.  1.
         12    1    6    6    0    0  0.86621614752E+01  0.46846658677E+02  0.28190316302E+03  0.28590039488E+03  0.00000000000E+00 0. -1.
         -5    1    3    3    0  503  0.81195908519E+02  0.45555289163E+02  0.97098709549E+02  0.13460426935E+03  0.47000000000E+01 0.  1.
         11    1    4    4    0    0  0.17366407638E+02 -0.74747668538E+01  0.43916932034E+02  0.47813817804E+02  0.00000000000E+00 0. -1.
        -12    1    4    4    0    0 -0.31482903345E+02 -0.11255431269E+02 -0.21674102695E+02  0.39845008015E+02  0.00000000000E+00 0.  1.
<mgrwt>
<rscale>  2 0.18733006E+03</rscale>
<asrwt>0</asrwt>
<pdfrwt beam="1">  1       21 0.15972342E+00 0.18750595E+03</pdfrwt>
<pdfrwt beam="2">  1       21 0.94643511E-02 0.18750595E+03</pdfrwt>
<totfact> 0.22689398E+04</totfact>
</mgrwt>
</event>
<event>
12    1  0.1026879E-001  0.1941025E+03  0.7546771E-02  0.1155244E+00
         21   -1    0    0  501  502  0.00000000000E+00  0.00000000000E+00  0.10992860108E+04  0.10992860108E+04  0.00000000000E+00 0. -1.
         21   -1    0    0  502  503 -0.00000000000E+00 -0.00000000000E+00 -0.45956311967E+02  0.45956311967E+02  0.00000000000E+00 0.  1.
         -6    2    1    2    0  503 -0.20530883700E+02  0.85397765460E+02  0.23173949830E+03  0.30103486078E+03  0.17089323217E+03 0.  0.
        -24    2    3    3    0    0  0.17518497174E+02  0.10785746152E+03  0.21375631558E+03  0.25310075817E+03  0.80175442532E+02 0.  0.
          6    2    1    2  501    0  0.20530883700E+02 -0.85397765460E+02  0.82159020049E+03  0.84420746194E+03  0.17309386394E+03 0.  0.
         24    2    5    5    0    0  0.56135514124E+02  0.92701545151E+00  0.34941810486E+03  0.36286742060E+03  0.80172923288E+02 0.  0.
          5    1    5    5  501    0 -0.35604630424E+02 -0.86324780911E+02  0.47217209563E+03  0.48134004134E+03  0.47000000000E+01 0. -1.
        -13    1    6    6    0    0  0.27902755391E+02 -0.18927614413E+02  0.43640908185E+02  0.55148410793E+02  0.00000000000E+00 0.  1.
         14    1    6    6    0    0  0.28232758732E+02  0.19854629865E+02  0.30577719667E+03  0.30771900981E+03  0.00000000000E+00 0. -1.
         -5    1    3    3    0  503 -0.38049380874E+02 -0.22459696065E+02  0.17983182718E+02  0.47934102608E+02  0.47000000000E+01 0.  1.
         13    1    4    4    0    0 -0.22175301274E+02  0.15879461793E+02  0.89092222858E+02  0.93173630751E+02  0.00000000000E+00 0. -1.
        -14    1    4    4    0    0  0.39693798448E+02  0.91977999732E+02  0.12466409272E+03  0.15992712742E+03  0.00000000000E+00 0.  1.
<mgrwt>
<rscale>  2 0.19361067E+03</rscale>
<asrwt>0</asrwt>
<pdfrwt beam="1">  1       21 0.16912090E+00 0.19410250E+03</pdfrwt>
<pdfrwt beam="2">  1       21 0.70702027E-02 0.19410250E+03</pdfrwt>
<totfact> 0.32151600E+04</totfact>
</mgrwt>
</event>
<event>
12    1  0.1026879E-001  0.1818170E+03  0.7546771E-02  0.1166101E+00
         21   -1    0    0  503  502  0.00000000000E+00  0.00000000000E+00  0.10860451069E+03  0.10860451069E+03  0.00000000000E+00 0. -1.
         21   -1    0    0  501  503 -0.00000000000E+00 -0.00000000000E+00 -0.40040759699E+03  0.40040759699E+03  0.00000000000E+00 0. -1.
          6    2    1    2  501    0  0.52828346618E+02  0.14945757814E+02 -0.27068140570E+03  0.32597238026E+03  0.17313393492E+03 0.  0.
         24    2    3    3    0    0 -0.11334726430E+01 -0.20399783574E+01 -0.35567859785E+02  0.84102864524E+02  0.76175933861E+02 0.  0.
         -6    2    1    2    0  502 -0.52828346618E+02 -0.14945757814E+02 -0.21121680600E+02  0.18303972742E+03  0.17332976242E+03 0.  0.
        -24    2    5    5    0    0 -0.63770157701E+02 -0.50936393588E+02  0.30479997482E+02  0.11900948242E+03  0.81074517917E+02 0.  0.
          5    1    3    3  501    0  0.53961819261E+02  0.16985736171E+02 -0.23511354592E+03  0.24186951574E+03  0.47000000000E+01 0. -1.
        -11    1    4    4    0    0  0.35503563914E+02  0.34478560728E+01 -0.48908059896E+01  0.36004315649E+02  0.00000000000E+00 0.  1.
         12    1    4    4    0    0 -0.36637036557E+02 -0.54878344302E+01 -0.30677053795E+02  0.48098548876E+02  0.00000000000E+00 0. -1.
         -5    1    5    5    0  502  0.10941811083E+02  0.35990635774E+02 -0.51601678082E+02  0.64030244995E+02  0.47000000000E+01 0.  1.
         11    1    6    6    0    0 -0.54861174887E+02 -0.72941325911E+02  0.23078638530E+02  0.94142493551E+02  0.00000000000E+00 0. -1.
        -12    1    6    6    0    0 -0.89089828147E+01  0.22004932323E+02  0.74013589524E+01  0.24866988874E+02  0.00000000000E+00 0.  1.
<mgrwt>
<rscale>  2 0.18177030E+03</rscale>
<asrwt>0</asrwt>
<pdfrwt beam="1">  1       21 0.16708386E-01 0.18181699E+03</pdfrwt>
<pdfrwt beam="2">  1       21 0.61601170E-01 0.18181699E+03</pdfrwt>
<totfact> 0.79206067E+04</totfact>
</mgrwt>
</event>
<event>
12    1  0.1026879E-001  0.2231430E+03  0.7546771E-02  0.1134415E+00
         21   -1    0    0  503  502  0.00000000000E+00  0.00000000000E+00  0.44438579696E+03  0.44438579696E+03  0.00000000000E+00 0. -1.
         21   -1    0    0  501  503 -0.00000000000E+00 -0.00000000000E+00 -0.17158533600E+03  0.17158533600E+03  0.00000000000E+00 0. -1.
          6    2    1    2  501    0 -0.85631603756E+02 -0.80913816581E+02 -0.58816623564E+02  0.21626786153E+03  0.17155924764E+03 0.  0.
         24    2    3    3    0    0 -0.31306189105E+02 -0.74479779992E+01  0.27442100188E+02  0.90525515688E+02  0.80039054687E+02 0.  0.
         -6    2    1    2    0  502  0.85631603756E+02  0.80913816581E+02  0.33161708452E+03  0.39970327143E+03  0.18950724833E+03 0.  0.
        -24    2    5    5    0    0  0.23639475665E+02  0.10506289579E+02  0.40013636140E+02  0.93345792475E+02  0.80269165719E+02 0.  0.
          5    1    3    3  501    0 -0.54325414650E+02 -0.73465838582E+02 -0.86258723751E+02  0.12574234585E+03  0.47000000000E+01 0. -1.
        -13    1    4    4    0    0 -0.55211246790E+02 -0.48012405813E+01  0.19147284672E+01  0.55452681345E+02  0.00000000000E+00 0.  1.
         14    1    4    4    0    0  0.23905057685E+02 -0.26467374179E+01  0.25527371720E+02  0.35072834343E+02  0.00000000000E+00 0. -1.
         -5    1    5    5    0  502  0.61992128090E+02  0.70407527002E+02  0.29160344838E+03  0.30635747896E+03  0.47000000000E+01 0.  1.
         13    1    6    6    0    0  0.53170259036E+02  0.12105195034E+02  0.29200508037E+02  0.61856946759E+02  0.00000000000E+00 0. -1.
        -14    1    6    6    0    0 -0.29530783371E+02 -0.15989054551E+01  0.10813128103E+02  0.31488845716E+02  0.00000000000E+00 0.  1.
<mgrwt>
<rscale>  2 0.21928758E+03</rscale>
<asrwt>0</asrwt>
<pdfrwt beam="1">  1       21 0.68367045E-01 0.22314304E+03</pdfrwt>
<pdfrwt beam="2">  1       21 0.26397744E-01 0.22314304E+03</pdfrwt>
<totfact> 0.26193865E+04</totfact>
</mgrwt>
</event>
<event>
12    1  0.1026879E-001  0.2044149E+03  0.7546771E-02  0.1146094E+00
         21   -1    0    0  503  502  0.00000000000E+00  0.00000000000E+00  0.65943255101E+02  0.65943255101E+02  0.00000000000E+00 0.  1.
         21   -1    0    0  501  503 -0.00000000000E+00 -0.00000000000E+00 -0.76263027234E+03  0.76263027234E+03  0.00000000000E+00 0.  1.
          6    2    1    2  501    0 -0.11086969505E+03 -0.19233681035E+01 -0.51908512214E+03  0.55788423796E+03  0.17172556688E+03 0.  0.
         24    2    3    3    0    0 -0.11582141232E+03  0.40071516240E+02 -0.47422458695E+03  0.49605667589E+03  0.78504400248E+02 0.  0.
         -6    2    1    2    0  502  0.11086969505E+03  0.19233681035E+01 -0.17760189510E+03  0.27068928948E+03  0.17156476815E+03 0.  0.
        -24    2    5    5    0    0  0.61839503205E+02  0.12276305338E+02 -0.19307205445E+03  0.21803419616E+03  0.79292248416E+02 0.  0.
          5    1    3    3  501    0  0.49517172758E+01 -0.41994884344E+02 -0.44860535189E+02  0.61827562078E+02  0.47000000000E+01 0. -1.
        -11    1    4    4    0    0 -0.79529500580E+02 -0.13331327631E+02 -0.24644188949E+03  0.25929957704E+03  0.00000000000E+00 0.  1.
         12    1    4    4    0    0 -0.36291911744E+02  0.53402843871E+02 -0.22778269746E+03  0.23675709885E+03  0.00000000000E+00 0. -1.
         -5    1    5    5    0  502  0.49030191843E+02 -0.10352937235E+02  0.15470159347E+02  0.52655093313E+02  0.47000000000E+01 0.  1.
         13    1    6    6    0    0  0.20274383754E+02 -0.33642756295E+02 -0.79319028254E+02  0.88512111775E+02  0.00000000000E+00 0. -1.
        -14    1    6    6    0    0  0.41565119451E+02  0.45919061633E+02 -0.11375302619E+03  0.12952208439E+03  0.00000000000E+00 0.  1.
<mgrwt>
<rscale>  2 0.20438114E+03</rscale>
<asrwt>0</asrwt>
<pdfrwt beam="1">  1       21 0.10145116E-01 0.20441492E+03</pdfrwt>
<pdfrwt beam="2">  1       21 0.11732774E+00 0.20441492E+03</pdfrwt>
<totfact> 0.43879609E+04</totfact>
</mgrwt>
</event>
<event>
12    1  0.1026879E-001  0.2021982E+03  0.7546771E-02  0.1148065E+00
         21   -1    0    0  501  502  0.00000000000E+00  0.00000000000E+00  0.21496266276E+03  0.21496266276E+03  0.00000000000E+00 0. -1.
         21   -1    0    0  502  503 -0.00000000000E+00 -0.00000000000E+00 -0.39064248204E+03  0.39064248204E+03  0.00000000000E+00 0. -1.
         -6    2    1    2    0  503 -0.50082434026E+01  0.10140048952E+03 -0.30523964852E+03  0.36613570792E+03  0.17486272274E+03 0.  0.
        -24    2    3    3    0    0  0.49340015069E+02  0.74708018482E+02 -0.27024581565E+03  0.29604377151E+03  0.81199683900E+02 0.  0.
          6    2    1    2  501    0  0.50082434026E+01 -0.10140048952E+03  0.12955982925E+03  0.23946943688E+03  0.17393309078E+03 0.  0.
         24    2    5    5    0    0  0.51778383745E+02 -0.12565692726E+02  0.38154057854E+02  0.10361594155E+03  0.80259787915E+02 0.  0.
          5    1    5    5  501    0 -0.46770140342E+02 -0.88834796793E+02  0.91405771393E+02  0.13585349533E+03  0.47000000000E+01 0. -1.
        -13    1    6    6    0    0  0.38801438798E+02 -0.43972406784E+02  0.37536198507E+02  0.69628229976E+02  0.00000000000E+00 0.  1.
         14    1    6    6    0    0  0.12976944946E+02  0.31406714058E+02  0.61785934665E+00  0.33987711577E+02  0.00000000000E+00 0. -1.
         -5    1    3    3    0  503 -0.54348258472E+02  0.26692471038E+02 -0.34993832877E+02  0.70091936401E+02  0.47000000000E+01 0.  1.
         11    1    4    4    0    0  0.44100468437E+02  0.90160491013E+02 -0.25357844196E+03  0.27271925433E+03  0.00000000000E+00 0. -1.
        -12    1    4    4    0    0  0.52395466319E+01 -0.15452472532E+02 -0.16667373690E+02  0.23324517187E+02  0.00000000000E+00 0.  1.
<mgrwt>
<rscale>  2 0.20199705E+03</rscale>
<asrwt>0</asrwt>
<pdfrwt beam="1">  1       21 0.33071179E-01 0.20219820E+03</pdfrwt>
<pdfrwt beam="2">  1       21 0.60098842E-01 0.20219820E+03</pdfrwt>
<totfact> 0.22602950E+04</totfact>
</mgrwt>
</event>
<event>
12    1  0.1026879E-001  0.2147118E+03  0.7546771E-02  0.1137936E+00
         21   -1    0    0  501  502  0.00000000000E+00  0.00000000000E+00  0.11368252185E+03  0.11368252185E+03  0.00000000000E+00 0. -1.
         21   -1    0    0  502  503 -0.00000000000E+00 -0.00000000000E+00 -0.97556066401E+03  0.97556066401E+03  0.00000000000E+00 0. -1.
         -6    2    1    2    0  503  0.12098525671E+03  0.42267712931E+02 -0.84731809368E+03  0.87403823524E+03  0.17196189369E+03 0.  0.
        -24    2    3    3    0    0  0.42030108482E+02  0.82497999687E+02 -0.57363964310E+03  0.58633287255E+03  0.78430525502E+02 0.  0.
          6    2    1    2  501    0 -0.12098525671E+03 -0.42267712931E+02 -0.14560048480E+02  0.21520495062E+03  0.17227067035E+03 0.  0.
         24    2    5    5    0    0 -0.70726410904E+02 -0.60572013670E+02  0.49521446457E+02  0.13160155953E+03  0.78710880908E+02 0.  0.
          5    1    5    5  501    0 -0.50258845809E+02  0.18304300739E+02 -0.64081494937E+02  0.83603391085E+02  0.47000000000E+01 0. -1.
        -11    1    6    6    0    0  0.16306653095E+02 -0.45123497742E+01  0.18264878740E+00  0.16920449055E+02  0.00000000000E+00 0.  1.
         12    1    6    6    0    0 -0.87033063999E+02 -0.56059663896E+02  0.49338797669E+02  0.11468111048E+03  0.00000000000E+00 0. -1.
         -5    1    3    3    0  503  0.78955148231E+02 -0.40230286756E+02 -0.27367845058E+03  0.28770536269E+03  0.47000000000E+01 0.  1.
         13    1    4    4    0    0  0.32897074678E+02  0.46940566106E+02 -0.50717058131E+03  0.51039948356E+03  0.00000000000E+00 0. -1.
        -14    1    4    4    0    0  0.91330338040E+01  0.35557433581E+02 -0.66469061786E+02  0.75933388994E+02  0.00000000000E+00 0.  1.
<mgrwt>
<rscale>  2 0.21464990E+03</rscale>
<asrwt>0</asrwt>
<pdfrwt beam="1">  1       21 0.17489618E-01 0.21471184E+03</pdfrwt>
<pdfrwt beam="2">  1       21 0.15008626E+00 0.21471184E+03</pdfrwt>
<totfact> 0.86902959E+03</totfact>
</mgrwt>
</event>
<event>
12    1  0.1026879E-001  0.1784179E+03  0.7546771E-02  0.1169562E+00
         21   -1    0    0  503  502  0.00000000000E+00  0.00000000000E+00  0.87476461548E+03  0.87476461548E+03  0.00000000000E+00 0. -1.
         21   -1    0    0  501  503 -0.00000000000E+00 -0.00000000000E+00 -0.46202527329E+02  0.46202527329E+02  0.00000000000E+00 0. -1.
          6    2    1    2  501    0 -0.17724813730E+02 -0.42396872784E+02  0.62926100724E+03  0.65406601306E+03  0.17239857992E+03 0.  0.
         24    2    3    3    0    0  0.37931946840E+00 -0.52337597164E+02  0.62514540949E+03  0.63248811267E+03  0.80591945665E+02 0.  0.
         -6    2    1    2    0  502  0.17724813730E+02  0.42396872784E+02  0.19930108091E+03  0.26690112975E+03  0.17147486220E+03 0.  0.
        -24    2    5    5    0    0  0.35776181725E+02 -0.34715568279E+02  0.12766547347E+03  0.16000898454E+03  0.82579029779E+02 0.  0.
          5    1    3    3  501    0 -0.18104133199E+02  0.99407243801E+01  0.41155977498E+01  0.21577900382E+02  0.47000000000E+01 0. -1.
        -11    1    4    4    0    0 -0.16575279267E+01 -0.36158156996E+02  0.88784113933E+02  0.95878978943E+02  0.00000000000E+00 0.  1.
         12    1    4    4    0    0  0.20368473951E+01 -0.16179440168E+02  0.53636129556E+03  0.53660913373E+03  0.00000000000E+00 0. -1.
         -5    1    5    5    0  502 -0.18051367995E+02  0.77112441063E+02  0.71635607438E+02  0.10689214520E+03  0.47000000000E+01 0.  1.
         11    1    6    6    0    0  0.11794636519E+02  0.24158520777E+02  0.15368289386E+02  0.30966625509E+02  0.00000000000E+00 0. -1.
        -12    1    6    6    0    0  0.23981545206E+02 -0.58874089056E+02  0.11229718408E+03  0.12904235904E+03  0.00000000000E+00 0.  1.
<mgrwt>
<rscale>  2 0.17819435E+03</rscale>
<asrwt>0</asrwt>
<pdfrwt beam="1">  1       21 0.13457916E+00 0.17841786E+03</pdfrwt>
<pdfrwt beam="2">  1       21 0.71080818E-02 0.17841786E+03</pdfrwt>
<totfact> 0.58764958E+04</totfact>
</mgrwt>
</event>
<event>
12    1  0.1026879E-001  0.1822103E+03  0.7546771E-02  0.1167454E+00
         21   -1    0    0  503  502  0.00000000000E+00  0.00000000000E+00  0.10062234233E+03  0.10062234233E+03  0.00000000000E+00 0.  1.
         21   -1    0    0  501  503 -0.00000000000E+00 -0.00000000000E+00 -0.98353588341E+03  0.98353588341E+03  0.00000000000E+00 0. -1.
          6    2    1    2  501    0  0.38146511623E+02 -0.91214047671E+01 -0.88481280130E+03  0.90193805378E+03  0.17047053455E+03 0.  0.
         24    2    3    3    0    0  0.14364407530E+02 -0.68167911106E+02 -0.64504149123E+03  0.65381620968E+03  0.80894439456E+02 0.  0.
         -6    2    1    2    0  502 -0.38146511623E+02  0.91214047671E+01  0.18992602112E+01  0.18222017195E+03  0.17793883079E+03 0.  0.
        -24    2    5    5    0    0 -0.94826844086E+01  0.53216885952E+02 -0.50152843034E+02  0.10807478839E+03  0.79011986225E+02 0.  0.
          5    1    3    3  501    0  0.23782104092E+02  0.59046506339E+02 -0.23977131007E+03  0.24812184410E+03  0.47000000000E+01 0. -1.
        -11    1    4    4    0    0  0.18233424907E+02 -0.75147247572E+02 -0.34049990977E+03  0.34917009487E+03  0.00000000000E+00 0.  1.
         12    1    4    4    0    0 -0.38690173773E+01  0.69793364655E+01 -0.30454158146E+03  0.30464611481E+03  0.00000000000E+00 0. -1.
         -5    1    5    5    0  502 -0.28663827214E+02 -0.44095481185E+02  0.52052103245E+02  0.74145383563E+02  0.47000000000E+01 0.  1.
         11    1    6    6    0    0 -0.22009494947E+02  0.58689881447E+02 -0.63318001904E+02  0.89095956234E+02  0.00000000000E+00 0. -1.
        -12    1    6    6    0    0  0.12526810539E+02 -0.54729954944E+01  0.13165158870E+02  0.18978832157E+02  0.00000000000E+00 0.  1.
<mgrwt>
<rscale>  2 0.18036085E+03</rscale>
<asrwt>0</asrwt>
<pdfrwt beam="1">  1       21 0.15480361E-01 0.18221027E+03</pdfrwt>
<pdfrwt beam="2">  1       21 0.15131321E+00 0.18221027E+03</pdfrwt>
<totfact> 0.10904818E+04</totfact>
</mgrwt>
</event>
<event>
12    1  0.1026879E-001  0.1998910E+03  0.7546771E-02  0.1149842E+00
         21   -1    0    0  501  502  0.00000000000E+00  0.00000000000E+00  0.52435818651E+03  0.52435818651E+03  0.00000000000E+00 0.  1.
         21   -1    0    0  502  503 -0.00000000000E+00 -0.00000000000E+00 -0.19373863100E+03  0.19373863100E+03  0.00000000000E+00 0. -1.
         -6    2    1    2    0  503  0.33267883260E+02  0.90510493090E+02 -0.11436819550E+03  0.23029656355E+03  0.17509289427E+03 0.  0.
        -24    2    3    3    0    0 -0.18249275479E+02  0.11474829670E+03 -0.66409383667E+02  0.15570684307E+03  0.79587732019E+02 0.  0.
          6    2    1    2  501    0 -0.33267883260E+02 -0.90510493090E+02  0.44498775101E+03  0.48780025396E+03  0.17503167655E+03 0.  0.
         24    2    5    5    0    0 -0.96568526214E+01 -0.11894148945E+03  0.41713863157E+03  0.44128718294E+03  0.80556856696E+02 0.  0.
          5    1    5    5  501    0 -0.23611030639E+02  0.28430996363E+02  0.27849119441E+02  0.46513071019E+02  0.47000000000E+01 0. -1.
        -13    1    6    6    0    0  0.34547353021E+02 -0.69711091617E+02  0.22832119158E+03  0.24121302291E+03  0.00000000000E+00 0.  1.
         14    1    6    6    0    0 -0.44204205643E+02 -0.49230397836E+02  0.18881743999E+03  0.20007416003E+03  0.00000000000E+00 0. -1.
         -5    1    3    3    0  503  0.51517158739E+02 -0.24237803610E+02 -0.47958811837E+02  0.74589720480E+02  0.47000000000E+01 0.  1.
         11    1    4    4    0    0 -0.25095757416E+02  0.11385878929E+03 -0.32408528837E+02  0.12101212204E+03  0.00000000000E+00 0. -1.
        -12    1    4    4    0    0  0.68464819371E+01  0.88950741380E+00 -0.34000854830E+02  0.34694721033E+02  0.00000000000E+00 0.  1.
<mgrwt>
<rscale>  2 0.19987762E+03</rscale>
<asrwt>0</asrwt>
<pdfrwt beam="1">  1       21 0.80670490E-01 0.19989103E+03</pdfrwt>
<pdfrwt beam="2">  1       21 0.29805943E-01 0.19989103E+03</pdfrwt>
<totfact> 0.14496565E+04</totfact>
</mgrwt>
</event>
<event>
12    1  0.1026879E-001  0.2657140E+03  0.7546771E-02  0.1104325E+00
         21   -1    0    0  503  502  0.00000000000E+00  0.00000000000E+00  0.54409454180E+03  0.54409454180E+03  0.00000000000E+00 0.  1.
         21   -1    0    0  501  503 -0.00000000000E+00 -0.00000000000E+00 -0.15337234674E+03  0.15337234674E+03  0.00000000000E+00 0.  1.
          6    2    1    2  501    0  0.11997084053E+03 -0.15795189706E+03  0.33869531469E+03  0.43048627632E+03  0.17681095428E+03 0.  0.
         24    2    3    3    0    0  0.11679296159E+03 -0.45476078791E+02  0.23035396137E+03  0.27421456600E+03  0.80137451109E+02 0.  0.
         -6    2    1    2    0  502 -0.11997084053E+03  0.15795189706E+03  0.52026880373E+02  0.26698061221E+03  0.17096796968E+03 0.  0.
        -24    2    5    5    0    0 -0.14263796237E+03  0.15511385211E+03  0.70873733314E+02  0.23699483596E+03  0.82082706921E+02 0.  0.
          5    1    3    3  501    0  0.31778789420E+01 -0.11247581827E+03  0.10834135331E+03  0.15627171032E+03  0.47000000000E+01 0. -1.
        -11    1    4    4    0    0  0.26772611733E+02 -0.12539976899E+02  0.58971438892E+01  0.30146310980E+02  0.00000000000E+00 0.  1.
         12    1    4    4    0    0  0.90020349853E+02 -0.32936101892E+02  0.22445681748E+03  0.24406825502E+03  0.00000000000E+00 0. -1.
         -5    1    5    5    0  502  0.22667121839E+02  0.28380449488E+01 -0.18846852941E+02  0.29985776251E+02  0.47000000000E+01 0.  1.
         13    1    6    6    0    0 -0.58481981595E+02  0.48271723352E+02  0.66595661810E+02  0.10092216614E+03  0.00000000000E+00 0. -1.
        -14    1    6    6    0    0 -0.84155980773E+02  0.10684212876E+03  0.42780715040E+01  0.13607266982E+03  0.00000000000E+00 0.  1.
<mgrwt>
<rscale>  2 0.26474577E+03</rscale>
<asrwt>0</asrwt>
<pdfrwt beam="1">  1       21 0.83706852E-01 0.26571398E+03</pdfrwt>
<pdfrwt beam="2">  1       21 0.23595746E-01 0.26571398E+03</pdfrwt>
<totfact> 0.20178023E+04</totfact>
</mgrwt>
</event>
<event>
12    1  0.1026879E-001  0.1909140E+03  0.7546771E-02  0.1157948E+00
         21   -1    0    0  503  502  0.00000000000E+00  0.00000000000E+00  0.34539715340E+03  0.34539715340E+03  0.00000000000E+00 0. -1.
         21   -1    0    0  501  503 -0.00000000000E+00 -0.00000000000E+00 -0.18292641433E+03  0.18292641433E+03  0.00000000000E+00 0. -1.
          6    2    1    2  501    0 -0.65948605535E+02 -0.46265606827E+02 -0.91603363574E+02  0.21051574350E+03  0.17156916127E+03 0.  0.
         24    2    3    3    0    0  0.22477040236E+02  0.77262126022E+01 -0.22893885713E+02  0.86107971466E+02  0.79533270069E+02 0.  0.
         -6    2    1    2    0  502  0.65948605535E+02  0.46265606827E+02  0.25407410264E+03  0.31780782423E+03  0.17308506163E+03 0.  0.
        -24    2    5    5    0    0 -0.31210614805E+02  0.20273636524E+02  0.14565227131E+03  0.16984539614E+03  0.79042720322E+02 0.  0.
          5    1    3    3  501    0 -0.88425645772E+02 -0.53991819430E+02 -0.68709477861E+02  0.12440777204E+03  0.47000000000E+01 0. -1.
        -11    1    4    4    0    0 -0.18394988947E+01 -0.11502993109E+02  0.25842838585E+02  0.28347044163E+02  0.00000000000E+00 0.  1.
         12    1    4    4    0    0  0.24316539131E+02  0.19229205711E+02 -0.48736724298E+02  0.57760927303E+02  0.00000000000E+00 0. -1.
         -5    1    5    5    0  502  0.97159220341E+02  0.25991970303E+02  0.10842183133E+03  0.14796242809E+03  0.47000000000E+01 0.  1.
         13    1    6    6    0    0  0.26720228831E+02  0.73155468660E+01  0.39969421973E+02  0.48631703112E+02  0.00000000000E+00 0. -1.
        -14    1    6    6    0    0 -0.57930843637E+02  0.12958089658E+02  0.10568284934E+03  0.12121369302E+03  0.00000000000E+00 0.  1.
<mgrwt>
<rscale>  2 0.19056978E+03</rscale>
<asrwt>0</asrwt>
<pdfrwt beam="1">  1       21 0.53138024E-01 0.19091402E+03</pdfrwt>
<pdfrwt beam="2">  1       21 0.28142525E-01 0.19091402E+03</pdfrwt>
<totfact> 0.40504040E+04</totfact>
</mgrwt>
</event>
<event>
12    1  0.1026879E-001  0.2001311E+03  0.7546771E-02  0.1150920E+00
         21   -1    0    0  503  502  0.00000000000E+00  0.00000000000E+00  0.35353833146E+02  0.35353833146E+02  0.00000000000E+00 0. -1.
         21   -1    0    0  501  503 -0.00000000000E+00 -0.00000000000E+00 -0.15786531963E+04  0.15786531963E+04  0.00000000000E+00 0.  1.
          6    2    1    2  501    0 -0.17380714310E+02 -0.10518058901E+03 -0.12082124875E+04  0.12237049791E+04  0.16220793895E+03 0.  0.
         24    2    3    3    0    0 -0.45347273290E+02 -0.66367753541E+02 -0.10935285286E+04  0.10993544060E+04  0.79463281721E+02 0.  0.
         -6    2    1    2    0  502  0.17380714310E+02  0.10518058901E+03 -0.33508687565E+03  0.39030205031E+03  0.16937364232E+03 0.  0.
        -24    2    5    5    0    0 -0.14140329948E+02  0.11115625947E+03 -0.33013056125E+03  0.35750052716E+03  0.79150341108E+02 0.  0.
          5    1    3    3  501    0  0.27966558980E+02 -0.38812835467E+02 -0.11468395893E+03  0.12435057320E+03  0.47000000000E+01 0. -1.
        -13    1    4    4    0    0  0.19432147028E+02 -0.37218451570E+02 -0.40031390950E+03  0.40250968636E+03  0.00000000000E+00 0.  1.
         14    1    4    4    0    0 -0.64779420318E+02 -0.29149301971E+02 -0.69321461909E+03  0.69684471959E+03  0.00000000000E+00 0. -1.
         -5    1    5    5    0  502  0.31521044257E+02 -0.59756704657E+01 -0.49563143970E+01  0.32801523151E+02  0.47000000000E+01 0.  1.
         13    1    6    6    0    0 -0.32621623303E+02  0.80756961417E+02 -0.14633319925E+03  0.17029169776E+03  0.00000000000E+00 0. -1.
        -14    1    6    6    0    0  0.18481293355E+02  0.30399298057E+02 -0.18379736200E+03  0.18720882939E+03  0.00000000000E+00 0.  1.
<mgrwt>
<rscale>  2 0.19860710E+03</rscale>
<asrwt>0</asrwt>
<pdfrwt beam="1">  1       21 0.54390516E-02 0.20013115E+03</pdfrwt>
<pdfrwt beam="2">  1       21 0.24286971E+00 0.20013115E+03</pdfrwt>
<totfact> 0.16969199E+04</totfact>
</mgrwt>
</event>
<event>
12    1  0.1026879E-001  0.2060771E+03  0.7546771E-02  0.1145096E+00
         21   -1    0    0  503  502  0.00000000000E+00  0.00000000000E+00  0.11706856399E+03  0.11706856399E+03  0.00000000000E+00 0. -1.
         21   -1    0    0  501  503 -0.00000000000E+00 -0.00000000000E+00 -0.53018578858E+03  0.53018578858E+03  0.00000000000E+00 0. -1.
          6    2    1    2  501    0 -0.39751708211E+02 -0.10421879191E+03 -0.38956672078E+03  0.43983597594E+03  0.17103128631E+03 0.  0.
         24    2    3    3    0    0  0.41719965369E+01 -0.95164571780E+02 -0.12457672783E+03  0.17103668817E+03  0.68267754516E+02 0.  0.
         -6    2    1    2    0  502  0.39751708211E+02  0.10421879191E+03 -0.23550503805E+02  0.20741837663E+03  0.17328012535E+03 0.  0.
        -24    2    5    5    0    0 -0.46907686649E+02  0.74770353893E+02  0.17337242626E+01  0.11234764818E+03  0.69484180677E+02 0.  0.
          5    1    3    3  501    0 -0.43923704748E+02 -0.90542201307E+01 -0.26498999295E+03  0.26879928777E+03  0.47000000000E+01 0. -1.
        -11    1    4    4    0    0  0.11009242173E+02  0.45494622299E+01 -0.79230272985E+00  0.11938541093E+02  0.00000000000E+00 0.  1.
         12    1    4    4    0    0 -0.68372456365E+01 -0.99714034010E+02 -0.12378442510E+03  0.15909814708E+03  0.00000000000E+00 0. -1.
         -5    1    5    5    0  502  0.86659394860E+02  0.29448438017E+02 -0.25284228067E+02  0.95070728450E+02  0.47000000000E+01 0.  1.
         11    1    6    6    0    0  0.27269870433E+01  0.55358901576E+02 -0.13246370482E+02  0.56986935108E+02  0.00000000000E+00 0. -1.
        -12    1    6    6    0    0 -0.49634673692E+02  0.19411452317E+02  0.14980094744E+02  0.55360713075E+02  0.00000000000E+00 0.  1.
<mgrwt>
<rscale>  2 0.20560361E+03</rscale>
<asrwt>0</asrwt>
<pdfrwt beam="1">  1       21 0.18010548E-01 0.20607707E+03</pdfrwt>
<pdfrwt beam="2">  1       21 0.81567046E-01 0.20607707E+03</pdfrwt>
<totfact> 0.36650221E+04</totfact>
</mgrwt>
</event>
<event>
12    1  0.1026879E-001  0.3470792E+03  0.7546771E-02  0.1063895E+00
         21   -1    0    0  501  502  0.00000000000E+00  0.00000000000E+00  0.22012897967E+04  0.22012897967E+04  0.00000000000E+00 0.  1.
         21   -1    0    0  502  503 -0.00000000000E+00 -0.00000000000E+00 -0.58450794208E+02  0.58450794208E+02  0.00000000000E+00 0. -1.
         -6    2    1    2    0  503 -0.28498790626E+03  0.96183070365E+02  0.78078464914E+03  0.85416027736E+03  0.17174347540E+03 0.  0.
        -24    2    3    3    0    0 -0.13102275160E+03  0.78117957666E+02  0.26903506937E+03  0.31942544631E+03  0.79895997703E+02 0.  0.
          6    2    1    2  501    0  0.28498790626E+03 -0.96183070365E+02  0.13620543534E+04  0.14055803136E+04  0.17318968392E+03 0.  0.
         24    2    5    5    0    0  0.12705891317E+03 -0.11281044566E+03  0.75720087330E+03  0.78021013614E+03  0.80650666076E+02 0.  0.
          5    1    5    5  501    0  0.15792899309E+03  0.16627375297E+02  0.60485348007E+03  0.62537017743E+03  0.47000000000E+01 0. -1.
        -11    1    6    6    0    0  0.79770107611E+02 -0.21805402942E+02  0.40622583104E+03  0.41455780233E+03  0.00000000000E+00 0.  1.
         12    1    6    6    0    0  0.47288805561E+02 -0.91005042720E+02  0.35097504226E+03  0.36565233381E+03  0.00000000000E+00 0. -1.
         -5    1    3    3    0  503 -0.15396515466E+03  0.18065112698E+02  0.51174957977E+03  0.53473483105E+03  0.47000000000E+01 0.  1.
         13    1    4    4    0    0 -0.14035957377E+03  0.62101016227E+02  0.24430968092E+03  0.28852134471E+03  0.00000000000E+00 0. -1.
        -14    1    4    4    0    0  0.93368221637E+01  0.16016941440E+02  0.24725388456E+02  0.30904101597E+02  0.00000000000E+00 0.  1.
<mgrwt>
<rscale>  2 0.34689919E+03</rscale>
<asrwt>0</asrwt>
<pdfrwt beam="1">  1       21 0.33865991E+00 0.34707918E+03</pdfrwt>
<pdfrwt beam="2">  1       21 0.89924316E-02 0.34707918E+03</pdfrwt>
<totfact> 0.17113003E+03</totfact>
</mgrwt>
</event>
<event>
12    1  0.1026879E-001  0.2032389E+03  0.7546771E-02  0.1147201E+00
         21   -1    0    0  503  502  0.00000000000E+00  0.00000000000E+00  0.20069410428E+03  0.20069410428E+03  0.00000000000E+00 0. -1.
         21   -1    0    0  501  503 -0.00000000000E+00 -0.00000000000E+00 -0.47900117484E+03  0.47900117484E+03  0.00000000000E+00 0.  1.
          6    2    1    2  501    0 -0.47602793681E+01 -0.10543847056E+03 -0.39606868768E+03  0.44480417148E+03  0.17274378217E+03 0.  0.
         24    2    3    3    0    0  0.59635026196E+02 -0.88504353410E+02 -0.23984870626E+03  0.27492099899E+03  0.81638207166E+02 0.  0.
         -6    2    1    2    0  502  0.47602793681E+01  0.10543847056E+03  0.11776161712E+03  0.23489110763E+03  0.17368391591E+03 0.  0.
        -24    2    5    5    0    0  0.35439009503E+02  0.31899869093E+02  0.13089381269E+01  0.93708860757E+02  0.80660474972E+02 0.  0.
          5    1    3    3  501    0 -0.64395305564E+02 -0.16934117149E+02 -0.15621998142E+03  0.16988317250E+03  0.47000000000E+01 0. -1.
        -11    1    4    4    0    0  0.49799090621E+01  0.90418595130E+01 -0.75133241062E+02  0.75839031048E+02  0.00000000000E+00 0.  1.
         12    1    4    4    0    0  0.54655117133E+02 -0.97546212923E+02 -0.16471546519E+03  0.19908196794E+03  0.00000000000E+00 0. -1.
         -5    1    5    5    0  502 -0.30678730135E+02  0.73538601465E+02  0.11645267899E+03  0.14118224687E+03  0.47000000000E+01 0.  1.
         13    1    6    6    0    0 -0.85810338920E+01  0.30275653455E+02  0.28068870359E+02  0.42167651322E+02  0.00000000000E+00 0. -1.
        -14    1    6    6    0    0  0.44020043395E+02  0.16242156374E+01 -0.26759932232E+02  0.51541209435E+02  0.00000000000E+00 0.  1.
<mgrwt>
<rscale>  2 0.20303785E+03</rscale>
<asrwt>0</asrwt>
<pdfrwt beam="1">  1       21 0.30876016E-01 0.20323886E+03</pdfrwt>
<pdfrwt beam="2">  1       21 0.73692488E-01 0.20323886E+03</pdfrwt>
<totfact> 0.16546531E+04</totfact>
</mgrwt>
</event>
<event>
12    1  0.1026879E-001  0.2220876E+03  0.7546771E-02  0.1132704E+00
         21   -1    0    0  501  502  0.00000000000E+00  0.00000000000E+00  0.11404037458E+03  0.11404037458E+03  0.00000000000E+00 0. -1.
         21   -1    0    0  502  503 -0.00000000000E+00 -0.00000000000E+00 -0.99464834697E+03  0.99464834697E+03  0.00000000000E+00 0.  1.
         -6    2    1    2    0  503  0.32744460969E+02 -0.13467632011E+03 -0.85932812067E+03  0.88756279716E+03  0.17353094535E+03 0.  0.
        -24    2    3    3    0    0 -0.44666346106E+02 -0.73508938285E+02 -0.51497662002E+03  0.52932554664E+03  0.87097466567E+02 0.  0.
          6    2    1    2  501    0 -0.32744460969E+02  0.13467632011E+03 -0.21279851715E+02  0.22112592440E+03  0.17097933042E+03 0.  0.
         24    2    5    5    0    0  0.68333209287E+01  0.12740427933E+03  0.32379080235E+02  0.15389011270E+03  0.79719616679E+02 0.  0.
          5    1    5    5  501    0 -0.39577781898E+02  0.72720407829E+01 -0.53658931950E+02  0.67235811701E+02  0.47000000000E+01 0. -1.
        -11    1    6    6    0    0  0.41713145826E+01 -0.11096394925E+02  0.37789200057E+01  0.12442269973E+02  0.00000000000E+00 0.  1.
         12    1    6    6    0    0  0.26620063462E+01  0.13850067425E+03  0.28600160229E+02  0.14144784273E+03  0.00000000000E+00 0. -1.
         -5    1    3    3    0  503  0.77410807075E+02 -0.61167381828E+02 -0.34435150066E+03  0.35823725051E+03  0.47000000000E+01 0.  1.
         11    1    4    4    0    0 -0.25411079678E+02  0.12699981907E+02 -0.67850122338E+02  0.73557131619E+02  0.00000000000E+00 0. -1.
        -12    1    4    4    0    0 -0.19255266427E+02 -0.86208920192E+02 -0.44712649768E+03  0.45576841502E+03  0.00000000000E+00 0.  1.
<mgrwt>
<rscale>  2 0.22158892E+03</rscale>
<asrwt>0</asrwt>
<pdfrwt beam="1">  1       21 0.17544673E-01 0.22208760E+03</pdfrwt>
<pdfrwt beam="2">  1       21 0.15302282E+00 0.22208760E+03</pdfrwt>
<totfact> 0.81637275E+03</totfact>
</mgrwt>
</event>
<event>
12    1  0.1026879E-001  0.7660959E+03  0.7546771E-02  0.9610542E-01
         21   -1    0    0  503  502  0.00000000000E+00  0.00000000000E+00  0.40585272771E+03  0.40585272771E+03  0.00000000000E+00 0. -1.
         21   -1    0    0  501  503 -0.00000000000E+00 -0.00000000000E+00 -0.20115855671E+04  0.20115855671E+04  0.00000000000E+00 0.  1.
          6    2    1    2  501    0 -0.42086459738E+02  0.74499266985E+03 -0.14441533660E+04  0.16347727413E+04  0.17354429707E+03 0.  0.
         24    2    3    3    0    0 -0.78956105444E+02  0.55637950386E+03 -0.98116068097E+03  0.11334558620E+04  0.79080276991E+02 0.  0.
         -6    2    1    2    0  502  0.42086459738E+02 -0.74499266985E+03 -0.16157947340E+03  0.78266555349E+03  0.17225589734E+03 0.  0.
        -24    2    5    5    0    0  0.84291084223E+02 -0.36224343941E+03 -0.83823180364E+02  0.38979619245E+03  0.81175426159E+02 0.  0.
          5    1    3    3  501    0  0.36869645707E+02  0.18861316599E+03 -0.46299268504E+03  0.50131687939E+03  0.47000000000E+01 0. -1.
        -13    1    4    4    0    0 -0.24216248675E+02  0.41417744489E+03 -0.73178560264E+03  0.84121314230E+03  0.00000000000E+00 0.  1.
         14    1    4    4    0    0 -0.54739856770E+02  0.14220205897E+03 -0.24937507833E+03  0.29224271965E+03  0.00000000000E+00 0. -1.
         -5    1    5    5    0  502 -0.42204624485E+02 -0.38274923045E+03 -0.77756293035E+02  0.39286936104E+03  0.47000000000E+01 0.  1.
         11    1    6    6    0    0  0.29450043318E+02 -0.25659942888E+03 -0.81163697815E+02  0.27073625135E+03  0.00000000000E+00 0. -1.
        -12    1    6    6    0    0  0.54841040904E+02 -0.10564401052E+03 -0.26594825491E+01  0.11905994110E+03  0.00000000000E+00 0.  1.
<mgrwt>
<rscale>  2 0.76602321E+03</rscale>
<asrwt>0</asrwt>
<pdfrwt beam="1">  1       21 0.62438882E-01 0.76609593E+03</pdfrwt>
<pdfrwt beam="2">  1       21 0.30947470E+00 0.76609593E+03</pdfrwt>
<totfact> 0.46489086E+01</totfact>
</mgrwt>
</event>
<event>
12    1  0.1026879E-001  0.1878705E+03  0.7546771E-02  0.1160774E+00
         21   -1    0    0  501  502  0.00000000000E+00  0.00000000000E+00  0.98541829490E+02  0.98541829490E+02  0.00000000000E+00 0.  1.
         21   -1    0    0  502  503 -0.00000000000E+00 -0.00000000000E+00 -0.47520448728E+03  0.47520448728E+03  0.00000000000E+00 0.  1.
         -6    2    1    2    0  503  0.56652742396E+02  0.46812699718E+02 -0.33319891878E+03  0.38251383817E+03  0.17289984047E+03 0.  0.
        -24    2    3    3    0    0  0.45624600682E+02 -0.38446811294E+02 -0.15826217876E+03  0.18753753925E+03  0.81016355866E+02 0.  0.
          6    2    1    2  501    0 -0.56652742396E+02 -0.46812699718E+02 -0.43463739008E+02  0.19123247860E+03  0.17111341908E+03 0.  0.
         24    2    5    5    0    0 -0.55634897655E+02 -0.13856954722E+02  0.36613571957E+02  0.10450541900E+03  0.79332035885E+02 0.  0.
          5    1    5    5  501    0 -0.10178447405E+01 -0.32955744996E+02 -0.80077310965E+02  0.86727059604E+02  0.47000000000E+01 0. -1.
        -11    1    6    6    0    0 -0.32195961239E+02 -0.45546083609E+02  0.92888237341E+01  0.56544742448E+02  0.00000000000E+00 0.  1.
         12    1    6    6    0    0 -0.23438936417E+02  0.31689128886E+02  0.27324748223E+02  0.47960676552E+02  0.00000000000E+00 0. -1.
         -5    1    3    3    0  503  0.11028141714E+02  0.85259511012E+02 -0.17493674003E+03  0.19497629892E+03  0.47000000000E+01 0.  1.
         13    1    4    4    0    0  0.42542069664E+02 -0.29187587896E+02 -0.31600975047E+02  0.60500947120E+02  0.00000000000E+00 0. -1.
        -14    1    4    4    0    0  0.30825310179E+01 -0.92592233976E+01 -0.12666120371E+03  0.12703659213E+03  0.00000000000E+00 0.  1.
<mgrwt>
<rscale>  2 0.18745844E+03</rscale>
<asrwt>0</asrwt>
<pdfrwt beam="1">  1       21 0.15160281E-01 0.18787048E+03</pdfrwt>
<pdfrwt beam="2">  1       21 0.73108384E-01 0.18787048E+03</pdfrwt>
<totfact> 0.64893678E+04</totfact>
</mgrwt>
</event>
<event>
12    1  0.1026879E-001  0.2106043E+03  0.7546771E-02  0.1141287E+00
         21   -1    0    0  501  502  0.00000000000E+00  0.00000000000E+00  0.41074482600E+03  0.41074482600E+03  0.00000000000E+00 0.  1.
         21   -1    0    0  502  503 -0.00000000000E+00 -0.00000000000E+00 -0.12233765621E+03  0.12233765621E+03  0.00000000000E+00 0. -1.
         -6    2    1    2    0  503 -0.11065318610E+03  0.18994752945E+02  0.50979698627E+02  0.21570890122E+03  0.17699285907E+03 0.  0.
        -24    2    3    3    0    0 -0.39227724137E+02  0.42910904449E+02 -0.31110472222E+02  0.10419896862E+03  0.80680874545E+02 0.  0.
          6    2    1    2  501    0  0.11065318610E+03 -0.18994752945E+02  0.23742747116E+03  0.31737358099E+03  0.17818321361E+03 0.  0.
         24    2    5    5    0    0  0.56041105100E+02 -0.25138760655E+02  0.35487614982E+02  0.10803647549E+03  0.81485866701E+02 0.  0.
          5    1    5    5  501    0  0.54612081001E+02  0.61440077102E+01  0.20193985618E+03  0.20933710549E+03  0.47000000000E+01 0. -1.
        -13    1    6    6    0    0  0.58468333223E+02  0.17239288529E+01  0.50403989420E+02  0.77214506863E+02  0.00000000000E+00 0.  1.
         14    1    6    6    0    0 -0.24272281239E+01 -0.26862689508E+02 -0.14916374437E+02  0.30821968631E+02  0.00000000000E+00 0. -1.
         -5    1    3    3    0  503 -0.71425461963E+02 -0.23916151504E+02  0.82090170848E+02  0.11150993260E+03  0.47000000000E+01 0.  1.
         11    1    4    4    0    0 -0.36423856162E+02 -0.13260742502E+02 -0.28100789036E+02  0.47876914414E+02  0.00000000000E+00 0. -1.
        -12    1    4    4    0    0 -0.28038679754E+01  0.56171646950E+02 -0.30096831856E+01  0.56322054202E+02  0.00000000000E+00 0.  1.
<mgrwt>
<rscale>  2 0.21035235E+03</rscale>
<asrwt>0</asrwt>
<pdfrwt beam="1">  1       21 0.63191511E-01 0.21060433E+03</pdfrwt>
<pdfrwt beam="2">  1       21 0.18821178E-01 0.21060433E+03</pdfrwt>
<totfact> 0.59396409E+04</totfact>
</mgrwt>
</event>
<event>
12    1  0.1026879E-001  0.2005047E+03  0.7546771E-02  0.1150049E+00
         21   -1    0    0  501  502  0.00000000000E+00  0.00000000000E+00  0.39192001868E+02  0.39192001868E+02  0.00000000000E+00 0.  1.
         21   -1    0    0  502  503 -0.00000000000E+00 -0.00000000000E+00 -0.10635518764E+04  0.10635518764E+04  0.00000000000E+00 0. -1.
         -6    2    1    2    0  503  0.93873081789E+02  0.22854926873E+02 -0.64226552020E+03  0.67283514603E+03  0.17569186701E+03 0.  0.
        -24    2    3    3    0    0  0.12301346954E+03 -0.18876803465E+02 -0.50478625775E+03  0.52616089090E+03  0.80916436531E+02 0.  0.
          6    2    1    2  501    0 -0.93873081789E+02 -0.22854926873E+02 -0.38209435430E+03  0.42990873220E+03  0.17172920331E+03 0.  0.
         24    2    5    5    0    0 -0.95374777832E+02  0.12017914195E+02 -0.14938670088E+03  0.19455089381E+03  0.79327708731E+02 0.  0.
          5    1    5    5  501    0  0.15016960430E+01 -0.34872841068E+02 -0.23270765342E+03  0.23535783839E+03  0.47000000000E+01 0. -1.
        -13    1    6    6    0    0 -0.91008504488E+02  0.35975534517E+02 -0.13329905852E+03  0.16536452454E+03  0.00000000000E+00 0.  1.
         14    1    6    6    0    0 -0.43662733440E+01 -0.23957620322E+02 -0.16087642361E+02  0.29186369269E+02  0.00000000000E+00 0. -1.
         -5    1    3    3    0  503 -0.29140387755E+02  0.41731730337E+02 -0.13747926244E+03  0.14667425513E+03  0.47000000000E+01 0.  1.
         13    1    4    4    0    0  0.79578746503E+02 -0.10150802199E+02 -0.44257481518E+03  0.44978693035E+03  0.00000000000E+00 0. -1.
        -14    1    4    4    0    0  0.43434723040E+02 -0.87260012654E+01 -0.62211442569E+02  0.76373960550E+02  0.00000000000E+00 0.  1.
<mgrwt>
<rscale>  2 0.19963328E+03</rscale>
<asrwt>0</asrwt>
<pdfrwt beam="1">  1       21 0.60295396E-02 0.20050470E+03</pdfrwt>
<pdfrwt beam="2">  1       21 0.16362334E+00 0.20050470E+03</pdfrwt>
<totfact> 0.46101131E+04</totfact>
</mgrwt>
</event>
<event>
12    1  0.1026879E-001  0.2153516E+03  0.7546771E-02  0.1137655E+00
         21   -1    0    0  501  502  0.00000000000E+00  0.00000000000E+00  0.38819676087E+03  0.38819676087E+03  0.00000000000E+00 0. -1.
         21   -1    0    0  502  503 -0.00000000000E+00 -0.00000000000E+00 -0.17417996464E+03  0.17417996464E+03  0.00000000000E+00 0. -1.
         -6    2    1    2    0  503 -0.39752461988E+02  0.12045488189E+03 -0.51885363971E+02  0.22020678408E+03  0.17236385919E+03 0.  0.
        -24    2    3    3    0    0 -0.59448145152E+02  0.38200294064E+02  0.40310516045E+01  0.11870568712E+03  0.95296622964E+02 0.  0.
          6    2    1    2  501    0  0.39752461988E+02 -0.12045488189E+03  0.26590216020E+03  0.34216994143E+03  0.17403066746E+03 0.  0.
         24    2    5    5    0    0  0.30131996840E+01  0.50161536465E+01  0.74248705159E+02  0.11012276739E+03  0.81116659879E+02 0.  0.
          5    1    5    5  501    0  0.36739262304E+02 -0.12547103553E+03  0.19165345504E+03  0.23204717405E+03  0.47000000000E+01 0. -1.
        -13    1    6    6    0    0 -0.11150281232E+02 -0.91100359806E+01 -0.13731790016E+02  0.19896823469E+02  0.00000000000E+00 0.  1.
         14    1    6    6    0    0  0.14163480916E+02  0.14126189627E+02  0.87980495175E+02  0.90225943920E+02  0.00000000000E+00 0. -1.
         -5    1    3    3    0  503  0.19695683163E+02  0.82254587823E+02 -0.55916415575E+02  0.10150109696E+03  0.47000000000E+01 0.  1.
         11    1    4    4    0    0 -0.14894094946E+02  0.67487251714E+01 -0.43431676644E+02  0.46407864547E+02  0.00000000000E+00 0. -1.
        -12    1    4    4    0    0 -0.44554050206E+02  0.31451568893E+02  0.47462728249E+02  0.72297822570E+02  0.00000000000E+00 0.  1.
<mgrwt>
<rscale>  2 0.21501462E+03</rscale>
<asrwt>0</asrwt>
<pdfrwt beam="1">  1       21 0.59722579E-01 0.21535160E+03</pdfrwt>
<pdfrwt beam="2">  1       21 0.26796918E-01 0.21535160E+03</pdfrwt>
<totfact> 0.34292622E+04</totfact>
</mgrwt>
</event>
<event>
12    1  0.1026879E-001  0.1920430E+03  0.7546771E-02  0.1157484E+00
         21   -1    0    0  501  502  0.00000000000E+00  0.00000000000E+00  0.49299568852E+02  0.49299568852E+02  0.00000000000E+00 0.  1.
         21   -1    0    0  502  503 -0.00000000000E+00 -0.00000000000E+00 -0.12372683980E+04  0.12372683980E+04  0.00000000000E+00 0.  1.
         -6    2    1    2    0  503  0.33799730714E+02  0.65075622514E+02 -0.17996415982E+03  0.26043252783E+03  0.17338034575E+03 0.  0.
        -24    2    3    3    0    0  0.28011710389E+02 -0.18161369819E+02 -0.35867589565E+02  0.93855789866E+02  0.80049572376E+02 0.  0.
          6    2    1    2  501    0 -0.33799730714E+02 -0.65075622514E+02 -0.10080046693E+04  0.10261354390E+04  0.17749159806E+03 0.  0.
         24    2    5    5    0    0 -0.71551253431E+02  0.13413805638E+01 -0.73394716179E+03  0.74159018216E+03  0.78461333148E+02 0.  0.
          5    1    5    5  501    0  0.37751522717E+02 -0.66417003078E+02 -0.27405750750E+03  0.28454525683E+03  0.47000000000E+01 0. -1.
        -11    1    6    6    0    0  0.16705611079E+02  0.61232386788E+01 -0.12803710164E+03  0.12926743940E+03  0.00000000000E+00 0.  1.
         12    1    6    6    0    0 -0.88256864510E+02 -0.47818581150E+01 -0.60591006015E+03  0.61232274275E+03  0.00000000000E+00 0. -1.
         -5    1    3    3    0  503  0.57880203249E+01  0.83236992333E+02 -0.14409657025E+03  0.16657673796E+03  0.47000000000E+01 0.  1.
         11    1    4    4    0    0  0.54330523448E+02 -0.19087732686E+02 -0.35240409152E+02  0.67513211703E+02  0.00000000000E+00 0. -1.
        -12    1    4    4    0    0 -0.26318813059E+02  0.92636286760E+00 -0.62718041297E+00  0.26342578163E+02  0.00000000000E+00 0.  1.
<mgrwt>
<rscale>  2 0.19108763E+03</rscale>
<asrwt>0</asrwt>
<pdfrwt beam="1">  1       21 0.75845497E-02 0.19204303E+03</pdfrwt>
<pdfrwt beam="2">  1       21 0.19034897E+00 0.19204303E+03</pdfrwt>
<totfact> 0.20435757E+04</totfact>
</mgrwt>
</event>
<event>
12    1  0.1026879E-001  0.1926318E+03  0.7546771E-02  0.1156127E+00
         21   -1    0    0  503  502  0.00000000000E+00  0.00000000000E+00  0.67214462048E+02  0.67214462048E+02  0.00000000000E+00 0. -1.
         21   -1    0    0  501  503 -0.00000000000E+00 -0.00000000000E+00 -0.68550054589E+03  0.68550054589E+03  0.00000000000E+00 0. -1.
          6    2    1    2  501    0 -0.38055448049E+02 -0.75159740495E+02 -0.47527906084E+03  0.51280244431E+03  0.17314432563E+03 0.  0.
         24    2    3    3    0    0  0.49761626641E+02 -0.46629406189E+02 -0.21114609802E+03  0.23295582448E+03  0.70959287212E+02 0.  0.
         -6    2    1    2    0  502  0.38055448049E+02  0.75159740495E+02 -0.14300702301E+03  0.23991256363E+03  0.17323344320E+03 0.  0.
        -24    2    5    5    0    0  0.17657686458E+02  0.25738481511E+02  0.10663287774E+01  0.86166831297E+02  0.80307673588E+02 0.  0.
          5    1    3    3  501    0 -0.87817074691E+02 -0.28530334306E+02 -0.26413296282E+03  0.27984661983E+03  0.47000000000E+01 0. -1.
        -13    1    4    4    0    0 -0.78235318448E+01  0.11579914979E+01  0.10253117757E+01  0.79749519793E+01  0.00000000000E+00 0.  1.
         14    1    4    4    0    0  0.57585158486E+02 -0.47787397686E+02 -0.21217140980E+03  0.22498087250E+03  0.00000000000E+00 0. -1.
         -5    1    5    5    0  502  0.20397761591E+02  0.49421258984E+02 -0.14407335178E+03  0.15374573234E+03  0.47000000000E+01 0.  1.
         13    1    6    6    0    0  0.14920451031E+02  0.45748760034E+02  0.25505822757E+02  0.54462059253E+02  0.00000000000E+00 0. -1.
        -14    1    6    6    0    0  0.27372354267E+01 -0.20010278523E+02 -0.24439493979E+02  0.31704772043E+02  0.00000000000E+00 0.  1.
<mgrwt>
<rscale>  2 0.19261181E+03</rscale>
<asrwt>0</asrwt>
<pdfrwt beam="1">  1       21 0.10340687E-01 0.19263185E+03</pdfrwt>
<pdfrwt beam="2">  1       21 0.10546162E+00 0.19263185E+03</pdfrwt>
<totfact> 0.55292852E+04</totfact>
</mgrwt>
</event>
<event>
12    1  0.1026879E-001  0.1817056E+03  0.7546771E-02  0.1166450E+00
         21   -1    0    0  503  502  0.00000000000E+00  0.00000000000E+00  0.25058309511E+03  0.25058309511E+03  0.00000000000E+00 0.  1.
         21   -1    0    0  501  503 -0.00000000000E+00 -0.00000000000E+00 -0.20592793241E+03  0.20592793241E+03  0.00000000000E+00 0.  1.
          6    2    1    2  501    0  0.63339117645E+01  0.39732223608E+02 -0.11550096918E+03  0.21429849848E+03  0.17596762355E+03 0.  0.
         24    2    3    3    0    0  0.63360840552E+02  0.61220077648E+02 -0.72608521685E+02  0.13962821972E+03  0.80383756432E+02 0.  0.
         -6    2    1    2    0  502 -0.63339117645E+01 -0.39732223608E+02  0.16015613188E+03  0.24221252904E+03  0.17719524433E+03 0.  0.
        -24    2    5    5    0    0 -0.31088772547E+02 -0.89575202591E+02  0.12383395756E+03  0.17559034029E+03  0.80665295264E+02 0.  0.
          5    1    3    3  501    0 -0.57026928788E+02 -0.21487854040E+02 -0.42892447493E+02  0.74670278760E+02  0.47000000000E+01 0. -1.
        -11    1    4    4    0    0 -0.36666456734E+01  0.48817770906E+02 -0.43568119216E+02  0.65534724069E+02  0.00000000000E+00 0.  1.
         12    1    4    4    0    0  0.67027486226E+02  0.12402306741E+02 -0.29040402469E+02  0.74093495651E+02  0.00000000000E+00 0. -1.
         -5    1    5    5    0  502  0.24754860783E+02  0.49842978983E+02  0.36322174318E+02  0.66622188747E+02  0.47000000000E+01 0.  1.
         13    1    6    6    0    0 -0.41521707595E+02 -0.28391733912E+02  0.19016736533E+02  0.53775264058E+02  0.00000000000E+00 0. -1.
        -14    1    6    6    0    0  0.10432935047E+02 -0.61183468678E+02  0.10481722103E+03  0.12181507623E+03  0.00000000000E+00 0.  1.
<mgrwt>
<rscale>  2 0.18140562E+03</rscale>
<asrwt>0</asrwt>
<pdfrwt beam="1">  1       21 0.38551245E-01 0.18170559E+03</pdfrwt>
<pdfrwt beam="2">  1       21 0.31681220E-01 0.18170559E+03</pdfrwt>
<totfact> 0.62447714E+04</totfact>
</mgrwt>
</event>
<event>
12    1  0.1026879E-001  0.2172773E+03  0.7546771E-02  0.1135946E+00
         21   -1    0    0  503  502  0.00000000000E+00  0.00000000000E+00  0.32329787613E+03  0.32329787613E+03  0.00000000000E+00 0. -1.
         21   -1    0    0  501  503 -0.00000000000E+00 -0.00000000000E+00 -0.28917363833E+03  0.28917363833E+03  0.00000000000E+00 0. -1.
          6    2    1    2  501    0  0.90465828052E+02  0.94693408560E+02 -0.19844705697E+03  0.29419674528E+03  0.17326160233E+03 0.  0.
         24    2    3    3    0    0  0.31004790869E+02  0.10538678467E+03 -0.18952552866E+03  0.23294605628E+03  0.79222898724E+02 0.  0.
         -6    2    1    2    0  502 -0.90465828052E+02 -0.94693408560E+02  0.23257129478E+03  0.31827476918E+03  0.17337391347E+03 0.  0.
        -24    2    5    5    0    0 -0.10164232861E+03 -0.81785759478E+02  0.96970952628E+02  0.18152293423E+03  0.80790696133E+02 0.  0.
          5    1    3    3  501    0  0.59461037184E+02 -0.10693376106E+02 -0.89215283131E+01  0.61250689000E+02  0.47000000000E+01 0. -1.
        -13    1    4    4    0    0  0.23524945366E+02  0.53490813941E+02 -0.31364553180E+02  0.66320625952E+02  0.00000000000E+00 0.  1.
         14    1    4    4    0    0  0.74798455030E+01  0.51895970726E+02 -0.15816097548E+03  0.16662543033E+03  0.00000000000E+00 0. -1.
         -5    1    5    5    0  502  0.11176500554E+02 -0.12907649082E+02  0.13560034215E+03  0.13675183495E+03  0.47000000000E+01 0.  1.
         11    1    6    6    0    0 -0.55788063167E+02 -0.22593713136E+02  0.87282125712E+02  0.10602336221E+03  0.00000000000E+00 0. -1.
        -12    1    6    6    0    0 -0.45854265439E+02 -0.59192046342E+02  0.96888269162E+01  0.75499572026E+02  0.00000000000E+00 0.  1.
<mgrwt>
<rscale>  2 0.21725489E+03</rscale>
<asrwt>0</asrwt>
<pdfrwt beam="1">  1       21 0.49738135E-01 0.21727729E+03</pdfrwt>
<pdfrwt beam="2">  1       21 0.44488252E-01 0.21727729E+03</pdfrwt>
<totfact> 0.18416373E+04</totfact>
</mgrwt>
</event>
<event>
12    1  0.1026879E-001  0.1898779E+03  0.7546771E-02  0.1162438E+00
         21   -1    0    0  503  502  0.00000000000E+00  0.00000000000E+00  0.45244394528E+02  0.45244394528E+02  0.00000000000E+00 0.  1.
         21   -1    0    0  501  503 -0.00000000000E+00 -0.00000000000E+00 -0.75558127651E+03  0.75558127651E+03  0.00000000000E+00 0.  1.
          6    2    1    2  501    0  0.12337849534E+02  0.44706760317E+01 -0.29669181718E+03  0.35224941658E+03  0.18942388345E+03 0.  0.
         24    2    3    3    0    0  0.50209492883E+02  0.66798349733E+02 -0.18024786353E+03  0.21477111058E+03  0.81574045686E+02 0.  0.
         -6    2    1    2    0  502 -0.12337849534E+02 -0.44706760317E+01 -0.41364506481E+03  0.44857625447E+03  0.17304972394E+03 0.  0.
        -24    2    5    5    0    0  0.59122841084E+02  0.45034021634E+01 -0.21420138155E+03  0.23647477598E+03  0.80760738291E+02 0.  0.
          5    1    3    3  501    0 -0.37871643349E+02 -0.62327673701E+02 -0.11644395364E+03  0.13747830600E+03  0.47000000000E+01 0. -1.
        -13    1    4    4    0    0  0.15022370943E+02  0.73778165512E+02 -0.88118038806E+02  0.11590374497E+03  0.00000000000E+00 0.  1.
         14    1    4    4    0    0  0.35187121940E+02 -0.69798157785E+01 -0.92129824728E+02  0.98867365612E+02  0.00000000000E+00 0. -1.
         -5    1    5    5    0  502 -0.71460690617E+02 -0.89740781951E+01 -0.19944368326E+03  0.21210147848E+03  0.47000000000E+01 0.  1.
         11    1    6    6    0    0  0.63532999800E+02 -0.15535173495E+02 -0.20261802274E+03  0.21291276810E+03  0.00000000000E+00 0. -1.
        -12    1    6    6    0    0 -0.44101587166E+01  0.20038575658E+02 -0.11583358809E+02  0.23562007886E+02  0.00000000000E+00 0.  1.
<mgrwt>
<rscale>  2 0.18565636E+03</rscale>
<asrwt>0</asrwt>
<pdfrwt beam="1">  1       21 0.69606757E-02 0.18987790E+03</pdfrwt>
<pdfrwt beam="2">  1       21 0.11624328E+00 0.18987790E+03</pdfrwt>
<totfact> 0.87337707E+04</totfact>
</mgrwt>
</event>
<event>
12    1  0.1026879E-001  0.2247344E+03  0.7546771E-02  0.1130472E+00
         21   -1    0    0  503  502  0.00000000000E+00  0.00000000000E+00  0.93776688024E+02  0.93776688024E+02  0.00000000000E+00 0.  1.
         21   -1    0    0  501  503 -0.00000000000E+00 -0.00000000000E+00 -0.58425569315E+03  0.58425569315E+03  0.00000000000E+00 0. -1.
          6    2    1    2  501    0  0.12681667785E+02 -0.14247363620E+03 -0.34118667614E+03  0.40855098338E+03  0.17333780989E+03 0.  0.
         24    2    3    3    0    0 -0.39102697878E+02 -0.14635028787E+03 -0.27169437894E+03  0.32167222692E+03  0.81900905240E+02 0.  0.
         -6    2    1    2    0  502 -0.12681667785E+02  0.14247363620E+03 -0.14929232898E+03  0.26948139779E+03  0.17283651973E+03 0.  0.
        -24    2    5    5    0    0  0.34965901492E+02  0.16263719897E+02 -0.58548991813E+02  0.10682938559E+03  0.80606515440E+02 0.  0.
          5    1    3    3  501    0  0.51784365663E+02  0.38766516750E+01 -0.69492297198E+02  0.86878756467E+02  0.47000000000E+01 0. -1.
        -13    1    4    4    0    0 -0.28659887330E+02 -0.10212167329E+03 -0.10637096119E+03  0.15021653265E+03  0.00000000000E+00 0.  1.
         14    1    4    4    0    0 -0.10442810549E+02 -0.44228614588E+02 -0.16532341775E+03  0.17145569426E+03  0.00000000000E+00 0. -1.
         -5    1    5    5    0  502 -0.47647569277E+02  0.12620991630E+03 -0.90743337172E+02  0.16265201220E+03  0.47000000000E+01 0.  1.
         13    1    6    6    0    0 -0.17669082716E+01 -0.29584998942E+02 -0.27261067424E+02  0.40268597248E+02  0.00000000000E+00 0. -1.
        -14    1    6    6    0    0  0.36732809764E+02  0.45848718839E+02 -0.31287924389E+02  0.66560788343E+02  0.00000000000E+00 0.  1.
<mgrwt>
<rscale>  2 0.22463775E+03</rscale>
<asrwt>0</asrwt>
<pdfrwt beam="1">  1       21 0.14427183E-01 0.22473442E+03</pdfrwt>
<pdfrwt beam="2">  1       21 0.89885492E-01 0.22473442E+03</pdfrwt>
<totfact> 0.43657805E+04</totfact>
</mgrwt>
</event>
<event>
12    1  0.1026879E-001  0.3173440E+03  0.7546771E-02  0.1076989E+00
         21   -1    0    0  503  502  0.00000000000E+00  0.00000000000E+00  0.16431857838E+03  0.16431857838E+03  0.00000000000E+00 0.  1.
         21   -1    0    0  501  503 -0.00000000000E+00 -0.00000000000E+00 -0.10528667869E+04  0.10528667869E+04  0.00000000000E+00 0. -1.
          6    2    1    2  501    0 -0.40370413585E+02  0.26172050844E+03 -0.83813214412E+03  0.89586155847E+03  0.17313303009E+03 0.  0.
         24    2    3    3    0    0 -0.27509798870E+02  0.83675280265E+02 -0.49132872233E+03  0.50578438398E+03  0.81581788036E+02 0.  0.
         -6    2    1    2    0  502  0.40370413585E+02 -0.26172050844E+03 -0.50416064396E+02  0.32132380680E+03  0.17487085073E+03 0.  0.
        -24    2    5    5    0    0 -0.39214524594E+02 -0.13117247693E+03  0.14191445740E+02  0.15527329857E+03  0.71863777208E+02 0.  0.
          5    1    3    3  501    0 -0.12860614715E+02  0.17804522817E+03 -0.34680342179E+03  0.39007717448E+03  0.47000000000E+01 0. -1.
        -11    1    4    4    0    0 -0.53157504700E+02  0.76683703021E+02 -0.37088780962E+03  0.38244460768E+03  0.00000000000E+00 0.  1.
         12    1    4    4    0    0  0.25647705831E+02  0.69915772444E+01 -0.12044091270E+03  0.12333977631E+03  0.00000000000E+00 0. -1.
         -5    1    5    5    0  502  0.79584938178E+02 -0.13054803151E+03 -0.64607510136E+02  0.16605050823E+03  0.47000000000E+01 0.  1.
         13    1    6    6    0    0 -0.83613282575E+01 -0.69940441957E+02 -0.26827549899E+02  0.75374363446E+02  0.00000000000E+00 0. -1.
        -14    1    6    6    0    0 -0.30853196336E+02 -0.61232034968E+02  0.41018995640E+02  0.79898935123E+02  0.00000000000E+00 0.  1.
<mgrwt>
<rscale>  2 0.31710515E+03</rscale>
<asrwt>0</asrwt>
<pdfrwt beam="1">  1       21 0.25279780E-01 0.31734399E+03</pdfrwt>
<pdfrwt beam="2">  1       21 0.16197951E+00 0.31734399E+03</pdfrwt>
<totfact> 0.33035507E+03</totfact>
</mgrwt>
</event>
<event>
12    1  0.1026879E-001  0.3129911E+03  0.7546771E-02  0.1080114E+00
         21   -1    0    0  501  502  0.00000000000E+00  0.00000000000E+00  0.10760359607E+04  0.10760359607E+04  0.00000000000E+00 0.  1.
         21   -1    0    0  502  503 -0.00000000000E+00 -0.00000000000E+00 -0.10022578194E+03  0.10022578194E+03  0.00000000000E+00 0.  1.
         -6    2    1    2    0  503 -0.24560198043E+03  0.37409898644E+02  0.29095200162E+03  0.42733653621E+03  0.19037755810E+03 0.  0.
        -24    2    3    3    0    0 -0.18125114318E+03  0.82248894950E+02  0.14227717903E+03  0.25917631881E+03  0.85514390219E+02 0.  0.
          6    2    1    2  501    0  0.24560198043E+03 -0.37409898644E+02  0.68485817714E+03  0.74892520643E+03  0.17360417251E+03 0.  0.
         24    2    5    5    0    0  0.28343928317E+02 -0.14670937731E+02  0.17385276700E+03  0.19316739880E+03  0.77911774951E+02 0.  0.
          5    1    5    5  501    0  0.21725805212E+03 -0.22738960913E+02  0.51100541014E+03  0.55575780763E+03  0.47000000000E+01 0. -1.
        -11    1    6    6    0    0  0.51132716121E+02  0.82094981125E+01  0.10212233459E+03  0.11450293333E+03  0.00000000000E+00 0.  1.
         12    1    6    6    0    0 -0.22788787804E+02 -0.22880435843E+02  0.71730432409E+02  0.78664465469E+02  0.00000000000E+00 0. -1.
         -5    1    3    3    0  503 -0.64350837249E+02 -0.44838996306E+02  0.14867482259E+03  0.16816021740E+03  0.47000000000E+01 0.  1.
         11    1    4    4    0    0 -0.72269098264E+02  0.72081181872E+01  0.92956207047E+02  0.11796455383E+03  0.00000000000E+00 0. -1.
        -12    1    4    4    0    0 -0.10898204492E+03  0.75040776763E+02  0.49320971981E+02  0.14121176498E+03  0.00000000000E+00 0.  1.
<mgrwt>
<rscale>  2 0.31048369E+03</rscale>
<asrwt>0</asrwt>
<pdfrwt beam="1">  1       21 0.16554399E+00 0.31299113E+03</pdfrwt>
<pdfrwt beam="2">  1       21 0.15419352E-01 0.31299113E+03</pdfrwt>
<totfact> 0.79253493E+03</totfact>
</mgrwt>
</event>
<event>
12    1  0.1026879E-001  0.1899303E+03  0.7546771E-02  0.1159657E+00
         21   -1    0    0  501  502  0.00000000000E+00  0.00000000000E+00  0.26914710128E+03  0.26914710128E+03  0.00000000000E+00 0.  1.
         21   -1    0    0  502  503 -0.00000000000E+00 -0.00000000000E+00 -0.16637663535E+03  0.16637663535E+03  0.00000000000E+00 0. -1.
         -6    2    1    2    0  503  0.20605344351E+02 -0.72447831845E+02 -0.50177970314E+02  0.19166568187E+03  0.16895157989E+03 0.  0.
        -24    2    3    3    0    0 -0.95670237478E+00 -0.63770536689E+01 -0.81703678298E+02  0.11520503937E+03  0.80963744703E+02 0.  0.
          6    2    1    2  501    0 -0.20605344351E+02  0.72447831845E+02  0.15294843624E+03  0.24385805475E+03  0.17435669807E+03 0.  0.
         24    2    5    5    0    0 -0.53173395725E+02  0.91946010208E+02  0.15424995307E+03  0.20558742795E+03  0.84803677411E+02 0.  0.
          5    1    5    5  501    0  0.32568051374E+02 -0.19498178364E+02 -0.13015168267E+01  0.38270626803E+02  0.47000000000E+01 0. -1.
        -13    1    6    6    0    0 -0.27278547701E+01  0.34246994422E+02  0.11390925514E+03  0.11897737695E+03  0.00000000000E+00 0.  1.
         14    1    6    6    0    0 -0.50445540955E+02  0.57699015786E+02  0.40340697928E+02  0.86610051000E+02  0.00000000000E+00 0. -1.
         -5    1    3    3    0  503  0.21562046725E+02 -0.66070778176E+02  0.31525707985E+02  0.76460642501E+02  0.47000000000E+01 0.  1.
         11    1    4    4    0    0  0.34323254374E+02 -0.68460742735E+01 -0.69598450807E+02  0.77903137796E+02  0.00000000000E+00 0. -1.
        -12    1    4    4    0    0 -0.35279956749E+02  0.46902060457E+00 -0.12105227491E+02  0.37301901576E+02  0.00000000000E+00 0.  1.
<mgrwt>
<rscale>  2 0.18868067E+03</rscale>
<asrwt>0</asrwt>
<pdfrwt beam="1">  1       21 0.41407246E-01 0.18993032E+03</pdfrwt>
<pdfrwt beam="2">  1       21 0.25596405E-01 0.18993032E+03</pdfrwt>
<totfact> 0.81408973E+04</totfact>
</mgrwt>
</event>
<event>
12    1  0.1026879E-001  0.1796033E+03  0.7546771E-02  0.1168310E+00
         21   -1    0    0  501  502  0.00000000000E+00  0.00000000000E+00  0.10404784214E+03  0.10404784214E+03  0.00000000000E+00 0. -1.
         21   -1    0    0  502  503 -0.00000000000E+00 -0.00000000000E+00 -0.93646853711E+03  0.93646853711E+03  0.00000000000E+00 0. -1.
         -6    2    1    2    0  503  0.98074472851E+01  0.45560609195E+02 -0.84221165465E+03  0.86114913268E+03  0.17345144087E+03 0.  0.
        -24    2    3    3    0    0  0.55812723917E+02  0.73053962018E+02 -0.65619934179E+03  0.66751277126E+03  0.80769933175E+02 0.  0.
          6    2    1    2  501    0 -0.98074472851E+01 -0.45560609195E+02  0.97909596816E+01  0.17936724657E+03  0.17293001798E+03 0.  0.
         24    2    5    5    0    0 -0.64082609657E+02 -0.19038946201E+02 -0.29928001197E+02  0.10691810778E+03  0.77889243043E+02 0.  0.
          5    1    5    5  501    0  0.54275162372E+02 -0.26521662994E+02  0.39718960878E+02  0.72449138792E+02  0.47000000000E+01 0. -1.
        -13    1    6    6    0    0 -0.21044974315E+02  0.20032169313E+01 -0.50526805095E+02  0.54770994651E+02  0.00000000000E+00 0.  1.
         14    1    6    6    0    0 -0.43037635342E+02 -0.21042163133E+02  0.20598803898E+02  0.52147113124E+02  0.00000000000E+00 0. -1.
         -5    1    3    3    0  503 -0.46005276632E+02 -0.27493352823E+02 -0.18601231286E+03  0.19363636142E+03  0.47000000000E+01 0.  1.
         13    1    4    4    0    0  0.33335585373E+02 -0.72055904165E+01 -0.28717303777E+03  0.28919117449E+03  0.00000000000E+00 0. -1.
        -14    1    4    4    0    0  0.22477138544E+02  0.80259552434E+02 -0.36902630403E+03  0.37832159676E+03  0.00000000000E+00 0.  1.
<mgrwt>
<rscale>  2 0.17947732E+03</rscale>
<asrwt>0</asrwt>
<pdfrwt beam="1">  1       21 0.16007361E-01 0.17960333E+03</pdfrwt>
<pdfrwt beam="2">  1       21 0.14407208E+00 0.17960333E+03</pdfrwt>
<totfact> 0.11684952E+04</totfact>
</mgrwt>
</event>
<event>
12    1  0.1026879E-001  0.1844561E+03  0.7546771E-02  0.1163589E+00
         21   -1    0    0  503  502  0.00000000000E+00  0.00000000000E+00  0.52409590164E+03  0.52409590164E+03  0.00000000000E+00 0.  1.
         21   -1    0    0  501  503 -0.00000000000E+00 -0.00000000000E+00 -0.69882112371E+02  0.69882112371E+02  0.00000000000E+00 0.  1.
          6    2    1    2  501    0 -0.58544186675E+02  0.27960614373E+02  0.14752987137E+03  0.23609664296E+03  0.17253215388E+03 0.  0.
         24    2    3    3    0    0 -0.83040157450E+02  0.37176798657E+02  0.44729973517E+02  0.12991331265E+03  0.81233713233E+02 0.  0.
         -6    2    1    2    0  502  0.58544186675E+02 -0.27960614373E+02  0.30668391790E+03  0.35788137105E+03  0.17266972085E+03 0.  0.
        -24    2    5    5    0    0  0.17023030050E+02  0.39285931332E+02  0.95525900931E+02  0.13236883817E+03  0.81013231123E+02 0.  0.
          5    1    3    3  501    0  0.24495970775E+02 -0.92161842843E+01  0.10279989785E+03  0.10618333031E+03  0.47000000000E+01 0. -1.
        -11    1    4    4    0    0  0.93387540527E+01 -0.81216415776E+01 -0.75580732583E+01  0.14501650270E+02  0.00000000000E+00 0.  1.
         12    1    4    4    0    0 -0.92378911503E+02  0.45298440235E+02  0.52288046776E+02  0.11541166238E+03  0.00000000000E+00 0. -1.
         -5    1    5    5    0  502  0.41521156625E+02 -0.67246545705E+02  0.21115801697E+03  0.22551253288E+03  0.47000000000E+01 0.  1.
         11    1    6    6    0    0  0.46848954245E+02  0.11700581695E+02  0.35697654141E+02  0.60050400806E+02  0.00000000000E+00 0. -1.
        -12    1    6    6    0    0 -0.29825924195E+02  0.27585349637E+02  0.59828246790E+02  0.72318437363E+02  0.00000000000E+00 0.  1.
<mgrwt>
<rscale>  2 0.18442389E+03</rscale>
<asrwt>0</asrwt>
<pdfrwt beam="1">  1       21 0.80630136E-01 0.18445609E+03</pdfrwt>
<pdfrwt beam="2">  1       21 0.10751095E-01 0.18445609E+03</pdfrwt>
<totfact> 0.96756972E+04</totfact>
</mgrwt>
</event>
<event>
12    1  0.1026879E-001  0.2136219E+03  0.7546771E-02  0.1138755E+00
         21   -1    0    0  501  502  0.00000000000E+00  0.00000000000E+00  0.26581733456E+03  0.26581733456E+03  0.00000000000E+00 0. -1.
         21   -1    0    0  502  503 -0.00000000000E+00 -0.00000000000E+00 -0.17341680805E+03  0.17341680805E+03  0.00000000000E+00 0. -1.
         -6    2    1    2    0  503 -0.12631602715E+03 -0.11623491931E+02  0.23532393767E+02  0.21478564508E+03  0.17172144740E+03 0.  0.
        -24    2    3    3    0    0 -0.81172012858E+02 -0.10163899560E+02 -0.52761764378E+02  0.12599937924E+03  0.79998995381E+02 0.  0.
          6    2    1    2  501    0  0.12631602715E+03  0.11623491931E+02  0.68868132739E+02  0.22444849753E+03  0.17188212256E+03 0.  0.
         24    2    5    5    0    0  0.82030757222E+02  0.13099592837E+02 -0.26544528821E+02  0.11914403422E+03  0.81179088544E+02 0.  0.
          5    1    5    5  501    0  0.44285269924E+02 -0.14761009057E+01  0.95412661560E+02  0.10530446331E+03  0.47000000000E+01 0. -1.
        -13    1    6    6    0    0  0.26286312322E+02 -0.27686610049E+02 -0.32058133883E+02  0.49852206968E+02  0.00000000000E+00 0.  1.
         14    1    6    6    0    0  0.55744444900E+02  0.40786202886E+02  0.55136050621E+01  0.69291827251E+02  0.00000000000E+00 0. -1.
         -5    1    3    3    0  503 -0.45144014287E+02 -0.14595923708E+01  0.76294158145E+02  0.88786265846E+02  0.47000000000E+01 0.  1.
         13    1    4    4    0    0 -0.75178398748E+02 -0.16873252988E+02 -0.47966564657E+01  0.77197838169E+02  0.00000000000E+00 0. -1.
        -14    1    4    4    0    0 -0.59936141101E+01  0.67093534275E+01 -0.47965107913E+02  0.48801541068E+02  0.00000000000E+00 0.  1.
<mgrwt>
<rscale>  2 0.21358956E+03</rscale>
<asrwt>0</asrwt>
<pdfrwt beam="1">  1       21 0.40894974E-01 0.21362188E+03</pdfrwt>
<pdfrwt beam="2">  1       21 0.26679509E-01 0.21362188E+03</pdfrwt>
<totfact> 0.76334767E+04</totfact>
</mgrwt>
</event>
<event>
12    1  0.1026879E-001  0.1797363E+03  0.7546771E-02  0.1168151E+00
         21   -1    0    0  501  502  0.00000000000E+00  0.00000000000E+00  0.85055772226E+03  0.85055772226E+03  0.00000000000E+00 0. -1.
         21   -1    0    0  502  503 -0.00000000000E+00 -0.00000000000E+00 -0.42973157927E+02  0.42973157927E+02  0.00000000000E+00 0.  1.
         -6    2    1    2    0  503  0.31689121497E+02  0.35757570477E+02  0.25067713107E+03  0.30845447293E+03  0.17326954021E+03 0.  0.
        -24    2    3    3    0    0  0.69863640054E+02  0.44814526783E+02  0.24149586396E+03  0.26788714630E+03  0.80956783722E+02 0.  0.
          6    2    1    2  501    0 -0.31689121497E+02 -0.35757570477E+02  0.55690743327E+03  0.58507640726E+03  0.17287483574E+03 0.  0.
         24    2    5    5    0    0 -0.57126402577E+02 -0.24852603788E+00  0.51401597958E+03  0.52367840806E+03  0.82238434876E+02 0.  0.
          5    1    5    5  501    0  0.25437281080E+02 -0.35509044439E+02  0.42891453690E+02  0.61397999197E+02  0.47000000000E+01 0. -1.
        -13    1    6    6    0    0 -0.25067181196E+02  0.57183902598E+00  0.32269969316E+02  0.40866141152E+02  0.00000000000E+00 0.  1.
         14    1    6    6    0    0 -0.32059221382E+02 -0.82036506386E+00  0.48174601026E+03  0.48281226691E+03  0.00000000000E+00 0. -1.
         -5    1    3    3    0  503 -0.38174518557E+02 -0.90569563058E+01  0.91812671112E+01  0.40567326635E+02  0.47000000000E+01 0.  1.
         11    1    4    4    0    0 -0.81099861605E+01  0.31138650238E+02  0.10792149958E+03  0.11261632868E+03  0.00000000000E+00 0. -1.
        -12    1    4    4    0    0  0.77973626215E+02  0.13675876545E+02  0.13357436438E+03  0.15527081762E+03  0.00000000000E+00 0.  1.
<mgrwt>
<rscale>  2 0.17964111E+03</rscale>
<asrwt>0</asrwt>
<pdfrwt beam="1">  1       21 0.13085502E+00 0.17973630E+03</pdfrwt>
<pdfrwt beam="2">  1       21 0.66112557E-02 0.17973630E+03</pdfrwt>
<totfact> 0.71420543E+04</totfact>
</mgrwt>
</event>
<event>
12    1  0.1026879E-001  0.2206975E+03  0.7546771E-02  0.1133409E+00
         21   -1    0    0  503  502  0.00000000000E+00  0.00000000000E+00  0.49667631120E+02  0.49667631120E+02  0.00000000000E+00 0.  1.
         21   -1    0    0  501  503 -0.00000000000E+00 -0.00000000000E+00 -0.15952645021E+04  0.15952645021E+04  0.00000000000E+00 0.  1.
          6    2    1    2  501    0 -0.12471370399E+03 -0.56482379015E+02 -0.12834845429E+04  0.13022803181E+04  0.17279377263E+03 0.  0.
         24    2    3    3    0    0 -0.61535856007E+01  0.41836151836E+00 -0.30982316341E+03  0.31976682307E+03  0.78882107649E+02 0.  0.
         -6    2    1    2    0  502  0.12471370399E+03  0.56482379015E+02 -0.26211232807E+03  0.34265181515E+03  0.17310004851E+03 0.  0.
        -24    2    5    5    0    0  0.20648906834E+02  0.26429018562E+02 -0.42311286431E+02  0.97565556068E+02  0.81264521138E+02 0.  0.
          5    1    3    3  501    0 -0.11856011839E+03 -0.56900740533E+02 -0.97366137948E+03  0.98251349499E+03  0.47000000000E+01 0. -1.
        -11    1    4    4    0    0 -0.36634642325E+02 -0.16486899593E+02 -0.21543477760E+03  0.21914848454E+03  0.00000000000E+00 0.  1.
         12    1    4    4    0    0  0.30481056724E+02  0.16905261111E+02 -0.94388385812E+02  0.10061833853E+03  0.00000000000E+00 0. -1.
         -5    1    5    5    0  502  0.10406479716E+03  0.30053360452E+02 -0.21980104164E+03  0.24508625908E+03  0.47000000000E+01 0.  1.
         13    1    6    6    0    0 -0.78546059146E+01  0.39453096581E+02 -0.51084984175E+02  0.65022436682E+02  0.00000000000E+00 0. -1.
        -14    1    6    6    0    0  0.28503512748E+02 -0.13024078019E+02  0.87736977443E+01  0.32543119386E+02  0.00000000000E+00 0.  1.
<mgrwt>
<rscale>  2 0.22063746E+03</rscale>
<asrwt>0</asrwt>
<pdfrwt beam="1">  1       21 0.76411754E-02 0.22069752E+03</pdfrwt>
<pdfrwt beam="2">  1       21 0.24542526E+00 0.22069752E+03</pdfrwt>
<totfact> 0.89634081E+03</totfact>
</mgrwt>
</event>
<event>
12    1  0.1026879E-001  0.1964668E+03  0.7546771E-02  0.1155938E+00
         21   -1    0    0  503  502  0.00000000000E+00  0.00000000000E+00  0.41667085264E+02  0.41667085264E+02  0.00000000000E+00 0. -1.
         21   -1    0    0  501  503 -0.00000000000E+00 -0.00000000000E+00 -0.86311787386E+03  0.86311787386E+03  0.00000000000E+00 0. -1.
          6    2    1    2  501    0  0.87507308996E+02  0.29454406317E+02 -0.40248124749E+03  0.44787316328E+03  0.17341892811E+03 0.  0.
         24    2    3    3    0    0 -0.49729221493E+01  0.57148344267E+02 -0.22392119292E+03  0.24483294450E+03  0.80695767357E+02 0.  0.
         -6    2    1    2    0  502 -0.87507308996E+02 -0.29454406317E+02 -0.41896954111E+03  0.45691179584E+03  0.15718721840E+03 0.  0.
        -24    2    5    5    0    0 -0.11149136735E+03 -0.14550952216E+02 -0.19937704994E+03  0.23546134953E+03  0.55215793691E+02 0.  0.
          5    1    3    3  501    0  0.92480231145E+02 -0.27693937950E+02 -0.17856005457E+03  0.20304021878E+03  0.47000000000E+01 0. -1.
        -13    1    4    4    0    0  0.14103599189E+02  0.99811411680E+01 -0.16932595360E+03  0.17020520924E+03  0.00000000000E+00 0.  1.
         14    1    4    4    0    0 -0.19076521338E+02  0.47167203099E+02 -0.54595239312E+02  0.74627735260E+02  0.00000000000E+00 0. -1.
         -5    1    5    5    0  502  0.23984058352E+02 -0.14903454101E+02 -0.21959249116E+03  0.22145044632E+03  0.47000000000E+01 0.  1.
         11    1    6    6    0    0 -0.36652032258E+00 -0.89962483669E-02 -0.43371267867E+02  0.43372817460E+02  0.00000000000E+00 0. -1.
        -12    1    6    6    0    0 -0.11112484703E+03 -0.14541955967E+02 -0.15600578208E+03  0.19208853207E+03  0.00000000000E+00 0.  1.
<mgrwt>
<rscale>  2 0.19282484E+03</rscale>
<asrwt>0</asrwt>
<pdfrwt beam="1">  1       21 0.64103212E-02 0.19646683E+03</pdfrwt>
<pdfrwt beam="2">  1       21 0.13278736E+00 0.19646683E+03</pdfrwt>
<totfact> 0.71977082E+04</totfact>
</mgrwt>
</event>
<event>
12    1  0.1026879E-001  0.1797972E+03  0.7546771E-02  0.1169780E+00
         21   -1    0    0  503  502  0.00000000000E+00  0.00000000000E+00  0.30084739214E+03  0.30084739214E+03  0.00000000000E+00 0. -1.
         21   -1    0    0  501  503 -0.00000000000E+00 -0.00000000000E+00 -0.14201283141E+03  0.14201283141E+03  0.00000000000E+00 0.  1.
          6    2    1    2  501    0  0.14092819652E+02  0.46493073490E+02 -0.37503593123E+02  0.17663529028E+03  0.16562998770E+03 0.  0.
         24    2    3    3    0    0 -0.43371905254E+01  0.43182209855E+02 -0.85495184845E+02  0.12490609186E+03  0.80053673759E+02 0.  0.
         -6    2    1    2    0  502 -0.14092819652E+02 -0.46493073490E+02  0.19633815385E+03  0.26622493328E+03  0.17310930360E+03 0.  0.
        -24    2    5    5    0    0  0.45892198831E+02 -0.23000500490E+02  0.52184731994E+02  0.10826163861E+03  0.79763520514E+02 0.  0.
          5    1    3    3  501    0  0.18430010178E+02  0.33108636348E+01  0.47991591722E+02  0.51729198420E+02  0.47000000000E+01 0. -1.
        -13    1    4    4    0    0 -0.16774442637E+02 -0.17148736276E+02 -0.67322335748E+01  0.24915538336E+02  0.00000000000E+00 0.  1.
         14    1    4    4    0    0  0.12437252111E+02  0.60330946132E+02 -0.78762951270E+02  0.99990553524E+02  0.00000000000E+00 0. -1.
         -5    1    5    5    0  502 -0.59985018483E+02 -0.23492573000E+02  0.14415342186E+03  0.15796329467E+03  0.47000000000E+01 0.  1.
         11    1    6    6    0    0  0.14216946698E+02 -0.40921778829E+02  0.56953355250E+02  0.71556957944E+02  0.00000000000E+00 0. -1.
        -12    1    6    6    0    0  0.31675252133E+02  0.17921278339E+02 -0.47686232561E+01  0.36704680666E+02  0.00000000000E+00 0.  1.
<mgrwt>
<rscale>  2 0.17797232E+03</rscale>
<asrwt>0</asrwt>
<pdfrwt beam="1">  1       21 0.46284214E-01 0.17979723E+03</pdfrwt>
<pdfrwt beam="2">  1       21 0.21848128E-01 0.17979723E+03</pdfrwt>
<totfact> 0.87904377E+04</totfact>
</mgrwt>
</event>
<event>
12    1  0.1026879E-001  0.1803997E+03  0.7546771E-02  0.1167535E+00
         21   -1    0    0  501  502  0.00000000000E+00  0.00000000000E+00  0.49300084021E+03  0.49300084021E+03  0.00000000000E+00 0.  1.
         21   -1    0    0  502  503 -0.00000000000E+00 -0.00000000000E+00 -0.87621467917E+02  0.87621467917E+02  0.00000000000E+00 0.  1.
         -6    2    1    2    0  503 -0.43042879484E+01  0.49166225227E+02  0.57717832342E+02  0.18894310218E+03  0.17300954625E+03 0.  0.
        -24    2    3    3    0    0  0.16490849807E+02 -0.36780172075E+02  0.27265879748E+02  0.95302126211E+02  0.81941063434E+02 0.  0.
          6    2    1    2  501    0  0.43042879484E+01 -0.49166225227E+02  0.34766153995E+03  0.39167920595E+03  0.17351717325E+03 0.  0.
         24    2    5    5    0    0 -0.27515602424E+02 -0.92765939701E+02  0.25437030365E+03  0.28379600384E+03  0.80456773950E+02 0.  0.
          5    1    5    5  501    0  0.31819890372E+02  0.43599714474E+02  0.93291236309E+02  0.10788320211E+03  0.47000000000E+01 0. -1.
        -13    1    6    6    0    0 -0.45773150252E+02 -0.41112625767E+02  0.18757235876E+03  0.19740521537E+03  0.00000000000E+00 0.  1.
         14    1    6    6    0    0  0.18257547828E+02 -0.51653313934E+02  0.66797944881E+02  0.86390788475E+02  0.00000000000E+00 0. -1.
         -5    1    3    3    0  503 -0.20795137755E+02  0.85946397302E+02  0.30451952594E+02  0.93640975968E+02  0.47000000000E+01 0.  1.
         11    1    4    4    0    0  0.37889777663E+02  0.10088254835E+02  0.17148086616E+02  0.42795619069E+02  0.00000000000E+00 0. -1.
        -12    1    4    4    0    0 -0.21398927856E+02 -0.46868426910E+02  0.10117793132E+02  0.52506507142E+02  0.00000000000E+00 0.  1.
<mgrwt>
<rscale>  2 0.18027753E+03</rscale>
<asrwt>0</asrwt>
<pdfrwt beam="1">  1       21 0.75846281E-01 0.18039971E+03</pdfrwt>
<pdfrwt beam="2">  1       21 0.13480226E-01 0.18039971E+03</pdfrwt>
<totfact> 0.74215242E+04</totfact>
</mgrwt>
</event>
<event>
12    1  0.1026879E-001  0.3040940E+03  0.7546771E-02  0.1083221E+00
         21   -1    0    0  503  502  0.00000000000E+00  0.00000000000E+00  0.62155439926E+03  0.62155439926E+03  0.00000000000E+00 0.  1.
         21   -1    0    0  501  503 -0.00000000000E+00 -0.00000000000E+00 -0.18065028594E+03  0.18065028594E+03  0.00000000000E+00 0. -1.
          6    2    1    2  501    0 -0.24602049504E+03  0.42407419385E+02  0.51847228010E+02  0.30840469577E+03  0.17349595995E+03 0.  0.
         24    2    3    3    0    0 -0.42690769067E+02 -0.13402842570E+02  0.20056513160E+02  0.95119669676E+02  0.81506747492E+02 0.  0.
         -6    2    1    2    0  502  0.24602049504E+03 -0.42407419385E+02  0.38905688530E+03  0.49379998943E+03  0.17363379960E+03 0.  0.
        -24    2    5    5    0    0  0.12351810774E+03  0.24722635265E+02  0.12563637876E+03  0.19559581039E+03  0.81272933625E+02 0.  0.
          5    1    3    3  501    0 -0.20332972597E+03  0.55810261955E+02  0.31790714850E+02  0.21328502609E+03  0.47000000000E+01 0. -1.
        -11    1    4    4    0    0 -0.51744844742E+02  0.72657219529E+01  0.39365273854E+02  0.65421284445E+02  0.00000000000E+00 0.  1.
         12    1    4    4    0    0  0.90540756752E+01 -0.20668564523E+02 -0.19308760694E+02  0.29698385231E+02  0.00000000000E+00 0. -1.
         -5    1    5    5    0  502  0.12250238730E+03 -0.67130054650E+02  0.26342050655E+03  0.29820417905E+03  0.47000000000E+01 0.  1.
         13    1    6    6    0    0  0.12539563599E+03  0.38544336439E+02  0.12564220214E+03  0.18164716997E+03  0.00000000000E+00 0. -1.
        -14    1    6    6    0    0 -0.18775282536E+01 -0.13821701174E+02 -0.58233859653E-02  0.13948640421E+02  0.00000000000E+00 0.  1.
<mgrwt>
<rscale>  2 0.30407434E+03</rscale>
<asrwt>0</asrwt>
<pdfrwt beam="1">  1       21 0.95623752E-01 0.30409401E+03</pdfrwt>
<pdfrwt beam="2">  1       21 0.27792352E-01 0.30409401E+03</pdfrwt>
<totfact> 0.10589081E+04</totfact>
</mgrwt>
</event>
<event>
12    1  0.1026879E-001  0.4367345E+03  0.7546771E-02  0.1031802E+00
         21   -1    0    0  501  502  0.00000000000E+00  0.00000000000E+00  0.76494683865E+03  0.76494683865E+03  0.00000000000E+00 0.  1.
         21   -1    0    0  502  503 -0.00000000000E+00 -0.00000000000E+00 -0.24919903155E+03  0.24919903155E+03  0.00000000000E+00 0. -1.
         -6    2    1    2    0  503  0.39710476768E+03  0.46318449203E+02  0.24338023320E+03  0.49997096676E+03  0.17578234961E+03 0.  0.
        -24    2    3    3    0    0  0.40012997639E+03  0.37472029001E+02  0.25616977568E+03  0.48344603302E+03  0.81172420839E+02 0.  0.
          6    2    1    2  501    0 -0.39710476768E+03 -0.46318449203E+02  0.27236757389E+03  0.51417490344E+03  0.17422439775E+03 0.  0.
         24    2    5    5    0    0 -0.77423268166E+02  0.12704126406E+01  0.89170506419E+02  0.14263188247E+03  0.79978111252E+02 0.  0.
          5    1    5    5  501    0 -0.31968149951E+03 -0.47588861843E+02  0.18319706747E+03  0.37154302097E+03  0.47000000000E+01 0. -1.
        -13    1    6    6    0    0 -0.67742551008E+02 -0.31395213933E+02  0.46231337301E+02  0.87818273859E+02  0.00000000000E+00 0.  1.
         14    1    6    6    0    0 -0.96807171583E+01  0.32665626574E+02  0.42939169119E+02  0.54813608609E+02  0.00000000000E+00 0. -1.
         -5    1    3    3    0  503 -0.30252087120E+01  0.88464202019E+01 -0.12789542479E+02  0.16524933735E+02  0.47000000000E+01 0.  1.
         11    1    4    4    0    0  0.19720499380E+03  0.57489012789E+02  0.11471064909E+03  0.23527288238E+03  0.00000000000E+00 0. -1.
        -12    1    4    4    0    0  0.20292498260E+03 -0.20016983788E+02  0.14145912659E+03  0.24817315064E+03  0.00000000000E+00 0.  1.
<mgrwt>
<rscale>  2 0.43657824E+03</rscale>
<asrwt>0</asrwt>
<pdfrwt beam="1">  1       21 0.11768413E+00 0.43673451E+03</pdfrwt>
<pdfrwt beam="2">  1       21 0.38338313E-01 0.43673451E+03</pdfrwt>
<totfact> 0.31730866E+03</totfact>
</mgrwt>
</event>
<event>
12    1  0.1026879E-001  0.1959850E+03  0.7546771E-02  0.1153593E+00
         21   -1    0    0  501  502  0.00000000000E+00  0.00000000000E+00  0.25477649689E+03  0.25477649689E+03  0.00000000000E+00 0.  1.
         21   -1    0    0  502  503 -0.00000000000E+00 -0.00000000000E+00 -0.14934815823E+03  0.14934815823E+03  0.00000000000E+00 0.  1.
         -6    2    1    2    0  503 -0.51916865275E+02  0.73386917316E+02  0.47964508314E+02  0.19988900023E+03  0.17197097959E+03 0.  0.
        -24    2    3    3    0    0 -0.37328746517E+02  0.14251297221E+02 -0.34569011493E+02  0.97206447356E+02  0.81593762402E+02 0.  0.
          6    2    1    2  501    0  0.51916865275E+02 -0.73386917316E+02  0.57463830345E+02  0.20423565488E+03  0.17415254920E+03 0.  0.
         24    2    5    5    0    0  0.96625186881E+02 -0.93925744058E+02  0.35935427424E+02  0.15032610511E+03  0.56108027906E+02 0.  0.
          5    1    5    5  501    0 -0.44708321606E+02  0.20538826742E+02  0.21528402921E+02  0.53909549776E+02  0.47000000000E+01 0. -1.
        -13    1    6    6    0    0  0.83695926355E+02 -0.67278659882E+02  0.50039467428E+01  0.10750100300E+03  0.00000000000E+00 0.  1.
         14    1    6    6    0    0  0.12929260525E+02 -0.26647084176E+02  0.30931480681E+02  0.42825102101E+02  0.00000000000E+00 0. -1.
         -5    1    3    3    0  503 -0.14588118758E+02  0.59135620095E+02  0.82533519807E+02  0.10268255287E+03  0.47000000000E+01 0.  1.
         11    1    4    4    0    0 -0.56603785589E+02 -0.12343327282E+02 -0.23924251363E+02  0.62679470919E+02  0.00000000000E+00 0. -1.
        -12    1    4    4    0    0  0.19275039072E+02  0.26594624503E+02 -0.10644760130E+02  0.34526976437E+02  0.00000000000E+00 0.  1.
<mgrwt>
<rscale>  2 0.19549918E+03</rscale>
<asrwt>0</asrwt>
<pdfrwt beam="1">  1       21 0.39196384E-01 0.19598498E+03</pdfrwt>
<pdfrwt beam="2">  1       21 0.22976640E-01 0.19598498E+03</pdfrwt>
<totfact> 0.11145011E+05</totfact>
</mgrwt>
</event>
<event>
12    1  0.1026879E-001  0.1747915E+03  0.7546771E-02  0.1173010E+00
         21   -1    0    0  501  502  0.00000000000E+00  0.00000000000E+00  0.98636921726E+03  0.98636921726E+03  0.00000000000E+00 0.  1.
         21   -1    0    0  502  503 -0.00000000000E+00 -0.00000000000E+00 -0.39214448860E+02  0.39214448860E+02  0.00000000000E+00 0.  1.
         -6    2    1    2    0  503 -0.15074487081E+02  0.17559868318E+02  0.70903858179E+03  0.73020021297E+03  0.17297702571E+03 0.  0.
        -24    2    3    3    0    0  0.44639278287E+02 -0.25918346903E+02  0.48217052057E+03  0.49156388679E+03  0.80512222767E+02 0.  0.
          6    2    1    2  501    0  0.15074487081E+02 -0.17559868318E+02  0.23811618662E+03  0.29538345315E+03  0.17325263903E+03 0.  0.
         24    2    5    5    0    0  0.13616664344E+02  0.44376209501E+02  0.20350166751E+03  0.22426061634E+03  0.82007523111E+02 0.  0.
          5    1    5    5  501    0  0.14578227367E+01 -0.61936077819E+02  0.34614519109E+02  0.71122836810E+02  0.47000000000E+01 0. -1.
        -13    1    6    6    0    0  0.37304709746E+02  0.60369093987E+01  0.41592263403E+02  0.56196103240E+02  0.00000000000E+00 0.  1.
         14    1    6    6    0    0 -0.23688045402E+02  0.38339300102E+02  0.16190940411E+03  0.16806451310E+03  0.00000000000E+00 0. -1.
         -5    1    3    3    0  503 -0.59713765368E+02  0.43478215221E+02  0.22686806122E+03  0.23863632618E+03  0.47000000000E+01 0.  1.
         11    1    4    4    0    0  0.26979227427E+02  0.27243953496E+02  0.15777621056E+03  0.16236823683E+03  0.00000000000E+00 0. -1.
        -12    1    4    4    0    0  0.17660050860E+02 -0.53162300399E+02  0.32439431001E+03  0.32919564995E+03  0.00000000000E+00 0.  1.
<mgrwt>
<rscale>  2 0.17472316E+03</rscale>
<asrwt>0</asrwt>
<pdfrwt beam="1">  1       21 0.15174909E+00 0.17479149E+03</pdfrwt>
<pdfrwt beam="2">  1       21 0.60329929E-02 0.17479149E+03</pdfrwt>
<totfact> 0.57192099E+04</totfact>
</mgrwt>
</event>
<event>
12    1  0.1026879E-001  0.3302462E+03  0.7546771E-02  0.1071613E+00
         21   -1    0    0  503  502  0.00000000000E+00  0.00000000000E+00  0.10119224501E+04  0.10119224501E+04  0.00000000000E+00 0. -1.
         21   -1    0    0  501  503 -0.00000000000E+00 -0.00000000000E+00 -0.29131760000E+03  0.29131760000E+03  0.00000000000E+00 0.  1.
          6    2    1    2  501    0  0.29771211181E+02 -0.27407500982E+03 -0.15825945730E+03  0.36620842482E+03  0.18182166693E+03 0.  0.
         24    2    3    3    0    0 -0.40306394785E+02 -0.22303766413E+03 -0.94710941771E+02  0.25861574227E+03  0.80879753827E+02 0.  0.
         -6    2    1    2    0  502 -0.29771211181E+02  0.27407500982E+03  0.87886430736E+03  0.93703162524E+03  0.17211147532E+03 0.  0.
        -24    2    5    5    0    0 -0.67198161239E+02  0.11856997382E+03  0.54305121485E+03  0.56504356641E+03  0.76126069313E+02 0.  0.
          5    1    3    3  501    0  0.70077605965E+02 -0.51037345690E+02 -0.63548515527E+02  0.10759268255E+03  0.47000000000E+01 0. -1.
        -11    1    4    4    0    0 -0.53030570439E+02 -0.16548167129E+03 -0.98142050574E+02  0.19957025586E+03  0.00000000000E+00 0.  1.
         12    1    4    4    0    0  0.12724175654E+02 -0.57555992838E+02  0.34311088032E+01  0.59045486409E+02  0.00000000000E+00 0. -1.
         -5    1    5    5    0  502  0.37426950059E+02  0.15550503600E+03  0.33581309250E+03  0.37198805883E+03  0.47000000000E+01 0.  1.
         11    1    6    6    0    0 -0.12704570029E+02  0.93202575215E+02  0.37313242145E+03  0.38480635398E+03  0.00000000000E+00 0. -1.
        -12    1    6    6    0    0 -0.54493591210E+02  0.25367398601E+02  0.16991879340E+03  0.18023721243E+03  0.00000000000E+00 0.  1.
<mgrwt>
<rscale>  2 0.32892708E+03</rscale>
<asrwt>0</asrwt>
<pdfrwt beam="1">  1       21 0.15568037E+00 0.33024620E+03</pdfrwt>
<pdfrwt beam="2">  1       21 0.44818093E-01 0.33024620E+03</pdfrwt>
<totfact> 0.11618852E+03</totfact>
</mgrwt>
</event>
<event>
12    1  0.1026879E-001  0.2983620E+03  0.7546771E-02  0.1086227E+00
         21   -1    0    0  503  502  0.00000000000E+00  0.00000000000E+00  0.58538334727E+03  0.58538334727E+03  0.00000000000E+00 0. -1.
         21   -1    0    0  501  503 -0.00000000000E+00 -0.00000000000E+00 -0.15626958120E+03  0.15626958120E+03  0.00000000000E+00 0.  1.
          6    2    1    2  501    0 -0.23945825691E+03  0.29201090138E+02  0.14868135243E+03  0.33218716609E+03  0.17334707464E+03 0.  0.
         24    2    3    3    0    0 -0.19936829409E+03  0.60154872262E+02  0.16535707476E+03  0.27865669382E+03  0.83308255832E+02 0.  0.
         -6    2    1    2    0  502  0.23945825691E+03 -0.29201090138E+02  0.28043241364E+03  0.40946576237E+03  0.17557594216E+03 0.  0.
        -24    2    5    5    0    0  0.11948224397E+03 -0.53779616857E+00  0.23953021635E+03  0.27942381589E+03  0.80166380052E+02 0.  0.
          5    1    3    3  501    0 -0.40089962823E+02 -0.30953782124E+02 -0.16675722331E+02  0.53530472277E+02  0.47000000000E+01 0. -1.
        -11    1    4    4    0    0 -0.10888104408E+03  0.44802382913E+02  0.42222836094E+02  0.12508038680E+03  0.00000000000E+00 0.  1.
         12    1    4    4    0    0 -0.90487250004E+02  0.15352489349E+02  0.12313423867E+03  0.15357630701E+03  0.00000000000E+00 0. -1.
         -5    1    5    5    0  502  0.11997601294E+03 -0.28663293969E+02  0.40902197283E+02  0.13004194648E+03  0.47000000000E+01 0.  1.
         13    1    6    6    0    0  0.21401017101E+02  0.33741266232E+02  0.63982049977E+02  0.75433277134E+02  0.00000000000E+00 0. -1.
        -14    1    6    6    0    0  0.98081226872E+02 -0.34279062401E+02  0.17554816638E+03  0.20399053876E+03  0.00000000000E+00 0.  1.
<mgrwt>
<rscale>  2 0.29803491E+03</rscale>
<asrwt>0</asrwt>
<pdfrwt beam="1">  1       21 0.90058976E-01 0.29836198E+03</pdfrwt>
<pdfrwt beam="2">  1       21 0.24041474E-01 0.29836198E+03</pdfrwt>
<totfact> 0.16191487E+04</totfact>
</mgrwt>
</event>
<event>
12    1  0.1026879E-001  0.2367535E+03  0.7546771E-02  0.1122166E+00
         21   -1    0    0  501  502  0.00000000000E+00  0.00000000000E+00  0.21068891927E+03  0.21068891927E+03  0.00000000000E+00 0. -1.
         21   -1    0    0  502  503 -0.00000000000E+00 -0.00000000000E+00 -0.52715282621E+03  0.52715282621E+03  0.00000000000E+00 0. -1.
         -6    2    1    2    0  503  0.31329624520E+02 -0.15905226557E+03 -0.41869274208E+03  0.48099463418E+03  0.17254870989E+03 0.  0.
        -24    2    3    3    0    0  0.66891589600E+02 -0.16813582367E+03 -0.32540174834E+03  0.38063296869E+03  0.79063386391E+02 0.  0.
          6    2    1    2  501    0 -0.31329624520E+02  0.15905226557E+03  0.10222883514E+03  0.25684711130E+03  0.17099864120E+03 0.  0.
         24    2    5    5    0    0  0.12385549409E+02  0.26928524854E+02  0.79626141475E+01  0.88692689073E+02  0.83213235642E+02 0.  0.
          5    1    5    5  501    0 -0.43715173930E+02  0.13212374072E+03  0.94266220993E+02  0.16815442222E+03  0.47000000000E+01 0. -1.
        -11    1    6    6    0    0 -0.82190412672E+01  0.50570800741E+02 -0.10502134655E+02  0.52299649705E+02  0.00000000000E+00 0.  1.
         12    1    6    6    0    0  0.20604590677E+02 -0.23642275887E+02  0.18464748803E+02  0.36393039368E+02  0.00000000000E+00 0. -1.
         -5    1    3    3    0  503 -0.35561965080E+02  0.90835580988E+01 -0.93290993736E+02  0.10036166549E+03  0.47000000000E+01 0.  1.
         13    1    4    4    0    0  0.82608992016E+02 -0.11513724363E+03 -0.24572052471E+03  0.28365367386E+03  0.00000000000E+00 0. -1.
        -14    1    4    4    0    0 -0.15717402415E+02 -0.52998580045E+02 -0.79681223628E+02  0.96979294823E+02  0.00000000000E+00 0.  1.
<mgrwt>
<rscale>  2 0.23647118E+03</rscale>
<asrwt>0</asrwt>
<pdfrwt beam="1">  1       21 0.32413681E-01 0.23675351E+03</pdfrwt>
<pdfrwt beam="2">  1       21 0.81100433E-01 0.23675351E+03</pdfrwt>
<totfact> 0.11878502E+04</totfact>
</mgrwt>
</event>
<event>
12    1  0.1026879E-001  0.3134012E+03  0.7546771E-02  0.1079189E+00
         21   -1    0    0  503  502  0.00000000000E+00  0.00000000000E+00  0.21551805014E+04  0.21551805014E+04  0.00000000000E+00 0.  1.
         21   -1    0    0  501  503 -0.00000000000E+00 -0.00000000000E+00 -0.74065444839E+02  0.74065444839E+02  0.00000000000E+00 0.  1.
          6    2    1    2  501    0  0.25510524749E+03 -0.55272989886E+02  0.33851318392E+03  0.45868626243E+03  0.16633737086E+03 0.  0.
         24    2    3    3    0    0  0.83720199464E+02 -0.61969438581E+02  0.19014621515E+03  0.23185477314E+03  0.82169152203E+02 0.  0.
         -6    2    1    2    0  502 -0.25510524749E+03  0.55272989886E+02  0.17426018727E+04  0.17705596838E+04  0.17345465315E+03 0.  0.
        -24    2    5    5    0    0 -0.10345372936E+03  0.61971163224E+02  0.11374559282E+04  0.11466472279E+04  0.80316733206E+02 0.  0.
          5    1    3    3  501    0  0.17138504803E+03  0.66964486950E+01  0.14836696877E+03  0.22683148929E+03  0.47000000000E+01 0. -1.
        -13    1    4    4    0    0  0.46180294251E+02 -0.78766148108E+01  0.14405928046E+03  0.15148510463E+03  0.00000000000E+00 0.  1.
         14    1    4    4    0    0  0.37539905213E+02 -0.54092823770E+02  0.46086934693E+02  0.80369668509E+02  0.00000000000E+00 0. -1.
         -5    1    5    5    0  502 -0.15165151813E+03 -0.66981733374E+01  0.60514594452E+03  0.62391245591E+03  0.47000000000E+01 0.  1.
         13    1    6    6    0    0 -0.75416898990E+02  0.79532909028E+02  0.77990597611E+03  0.78757001203E+03  0.00000000000E+00 0. -1.
        -14    1    6    6    0    0 -0.28036830367E+02 -0.17561745804E+02  0.35754995204E+03  0.35907721590E+03  0.00000000000E+00 0.  1.
<mgrwt>
<rscale>  2 0.31242606E+03</rscale>
<asrwt>0</asrwt>
<pdfrwt beam="1">  1       21 0.33156618E+00 0.31340119E+03</pdfrwt>
<pdfrwt beam="2">  1       21 0.11394685E-01 0.31340119E+03</pdfrwt>
<totfact> 0.12685459E+03</totfact>
</mgrwt>
</event>
<event>
12    1  0.1026879E-001  0.2011442E+03  0.7546771E-02  0.1148846E+00
         21   -1    0    0  501  502  0.00000000000E+00  0.00000000000E+00  0.16500859873E+04  0.16500859873E+04  0.00000000000E+00 0.  1.
         21   -1    0    0  502  503 -0.00000000000E+00 -0.00000000000E+00 -0.24677312080E+02  0.24677312080E+02  0.00000000000E+00 0. -1.
         -6    2    1    2    0  503  0.58769349731E+02  0.83351784740E+02  0.88835304533E+03  0.91084033635E+03  0.17337136063E+03 0.  0.
        -24    2    3    3    0    0  0.15007026241E+02 -0.22717145792E+02  0.43547746411E+03  0.44363145261E+03  0.80168350646E+02 0.  0.
          6    2    1    2  501    0 -0.58769349731E+02 -0.83351784740E+02  0.73705562989E+03  0.76392296303E+03  0.17299114256E+03 0.  0.
         24    2    5    5    0    0 -0.29200482356E+02  0.19298002311E+02  0.43702913102E+03  0.44541191656E+03  0.78563560198E+02 0.  0.
          5    1    5    5  501    0 -0.29568867376E+02 -0.10264978705E+03  0.30002649887E+03  0.31851104647E+03  0.47000000000E+01 0. -1.
        -13    1    6    6    0    0 -0.48523985163E+02  0.14113727400E+01  0.37350969444E+03  0.37665111303E+03  0.00000000000E+00 0.  1.
         14    1    6    6    0    0  0.19323502807E+02  0.17886629571E+02  0.63519436578E+02  0.68760803524E+02  0.00000000000E+00 0. -1.
         -5    1    3    3    0  503  0.43762323491E+02  0.10606893053E+03  0.45287558122E+03  0.46720888374E+03  0.47000000000E+01 0.  1.
         11    1    4    4    0    0  0.25871815962E+02 -0.20651403423E+02  0.64588020893E+02  0.72577157339E+02  0.00000000000E+00 0. -1.
        -12    1    4    4    0    0 -0.10864789722E+02 -0.20657423689E+01  0.37088944322E+03  0.37105429527E+03  0.00000000000E+00 0.  1.
<mgrwt>
<rscale>  2 0.20106223E+03</rscale>
<asrwt>0</asrwt>
<pdfrwt beam="1">  1       21 0.25385930E+00 0.20114419E+03</pdfrwt>
<pdfrwt beam="2">  1       21 0.37965108E-02 0.20114419E+03</pdfrwt>
<totfact> 0.26798081E+04</totfact>
</mgrwt>
</event>
<event>
12    1  0.1026879E-001  0.3280982E+03  0.7546771E-02  0.1072009E+00
         21   -1    0    0  503  502  0.00000000000E+00  0.00000000000E+00  0.81028432905E+03  0.81028432905E+03  0.00000000000E+00 0. -1.
         21   -1    0    0  501  503 -0.00000000000E+00 -0.00000000000E+00 -0.16546274670E+03  0.16546274670E+03  0.00000000000E+00 0. -1.
          6    2    1    2  501    0 -0.68130081247E+02 -0.27026521033E+03  0.10539877255E+03  0.34437918041E+03  0.17263582119E+03 0.  0.
         24    2    3    3    0    0 -0.90165759018E+02 -0.20623737201E+03  0.12998440555E+03  0.27218722431E+03  0.80785033764E+02 0.  0.
         -6    2    1    2    0  502  0.68130081247E+02  0.27026521033E+03  0.53942280981E+03  0.63136789534E+03  0.17309956567E+03 0.  0.
        -24    2    5    5    0    0  0.78081406188E+02  0.27565141769E+03  0.54250222485E+03  0.61873409564E+03  0.80267098337E+02 0.  0.
          5    1    3    3  501    0  0.22035677772E+02 -0.64027838325E+02 -0.24585633001E+02  0.72191956099E+02  0.47000000000E+01 0. -1.
        -11    1    4    4    0    0 -0.14802550163E+01 -0.28272075996E+01 -0.95438778419E+01  0.10063292800E+02  0.00000000000E+00 0.  1.
         12    1    4    4    0    0 -0.88685504002E+02 -0.20341016441E+03  0.13952828339E+03  0.26212393151E+03  0.00000000000E+00 0. -1.
         -5    1    5    5    0  502 -0.99513249411E+01 -0.53862073596E+01 -0.30794150399E+01  0.12633799697E+02  0.47000000000E+01 0.  1.
         11    1    6    6    0    0  0.10499239246E+02  0.15695655386E+03  0.33800447516E+03  0.37281713889E+03  0.00000000000E+00 0. -1.
        -12    1    6    6    0    0  0.67582166942E+02  0.11869486383E+03  0.20449774969E+03  0.24591695675E+03  0.00000000000E+00 0.  1.
<mgrwt>
<rscale>  2 0.32803711E+03</rscale>
<asrwt>0</asrwt>
<pdfrwt beam="1">  1       21 0.12465913E+00 0.32809823E+03</pdfrwt>
<pdfrwt beam="2">  1       21 0.25455808E-01 0.32809823E+03</pdfrwt>
<totfact> 0.64773153E+03</totfact>
</mgrwt>
</event>
<event>
12    1  0.1026879E-001  0.2670425E+03  0.7546771E-02  0.1103219E+00
         21   -1    0    0  501  502  0.00000000000E+00  0.00000000000E+00  0.24508881554E+03  0.24508881554E+03  0.00000000000E+00 0. -1.
         21   -1    0    0  502  503 -0.00000000000E+00 -0.00000000000E+00 -0.29120249513E+03  0.29120249513E+03  0.00000000000E+00 0. -1.
         -6    2    1    2    0  503  0.13746977594E+03 -0.14725375237E+03 -0.45177101126E+02  0.26924714437E+03  0.17283358297E+03 0.  0.
        -24    2    3    3    0    0  0.11199931935E+03 -0.34659855108E+02  0.75343505991E+01  0.14225613287E+03  0.80217752451E+02 0.  0.
          6    2    1    2  501    0 -0.13746977594E+03  0.14725375237E+03 -0.93657846808E+00  0.26704416631E+03  0.17530003621E+03 0.  0.
         24    2    5    5    0    0 -0.28270147454E+02  0.81376088530E+02  0.50990419822E+02  0.12926561716E+03  0.81782075321E+02 0.  0.
          5    1    5    5  501    0 -0.10919962849E+03  0.65877663837E+02 -0.51926998290E+02  0.13777854915E+03  0.47000000000E+01 0. -1.
        -11    1    6    6    0    0 -0.38549198509E+01  0.67290160592E+02 -0.39502731600E+01  0.67516151976E+02  0.00000000000E+00 0.  1.
         12    1    6    6    0    0 -0.24415227603E+02  0.14085927938E+02  0.54940692982E+02  0.61749465181E+02  0.00000000000E+00 0. -1.
         -5    1    3    3    0  503  0.25470456587E+02 -0.11259389726E+03 -0.52711451725E+02  0.12699101150E+03  0.47000000000E+01 0.  1.
         13    1    4    4    0    0  0.70178729913E+02  0.19501084183E+02  0.11374659057E+02  0.73720616419E+02  0.00000000000E+00 0. -1.
        -14    1    4    4    0    0  0.41820589439E+02 -0.54160939291E+02 -0.38403084575E+01  0.68535516450E+02  0.00000000000E+00 0.  1.
<mgrwt>
<rscale>  2 0.26663846E+03</rscale>
<asrwt>0</asrwt>
<pdfrwt beam="1">  1       21 0.37705971E-01 0.26704252E+03</pdfrwt>
<pdfrwt beam="2">  1       21 0.44800384E-01 0.26704252E+03</pdfrwt>
<totfact> 0.31305820E+04</totfact>
</mgrwt>
</event>
<event>
12    1  0.1026879E-001  0.1826897E+03  0.7546771E-02  0.1165304E+00
         21   -1    0    0  503  502  0.00000000000E+00  0.00000000000E+00  0.15793199858E+03  0.15793199858E+03  0.00000000000E+00 0. -1.
         21   -1    0    0  501  503 -0.00000000000E+00 -0.00000000000E+00 -0.27003383025E+03  0.27003383025E+03  0.00000000000E+00 0. -1.
          6    2    1    2  501    0 -0.89371742586E+01 -0.57672381660E+02 -0.15618837583E+03  0.24035456874E+03  0.17311710857E+03 0.  0.
         24    2    3    3    0    0 -0.16450431065E+02 -0.35752241048E+02 -0.79876043235E+00  0.83176439964E+02  0.73272387191E+02 0.  0.
         -6    2    1    2    0  502  0.89371742586E+01  0.57672381660E+02  0.44086544151E+02  0.18761126009E+03  0.17276685113E+03 0.  0.
        -24    2    5    5    0    0 -0.22402849655E+02  0.19705568270E+02 -0.36673278026E+02  0.92912184619E+02  0.79984671257E+02 0.  0.
          5    1    3    3  501    0  0.75132568066E+01 -0.21920140612E+02 -0.15538961539E+03  0.15717812877E+03  0.47000000000E+01 0. -1.
        -11    1    4    4    0    0  0.11815525656E+02  0.14670112417E+02 -0.14498831423E+02  0.23770463973E+02  0.00000000000E+00 0.  1.
         12    1    4    4    0    0 -0.28265956722E+02 -0.50422353465E+02  0.13700070990E+02  0.59405975991E+02  0.00000000000E+00 0. -1.
         -5    1    5    5    0  502  0.31340023913E+02  0.37966813390E+02  0.80759822177E+02  0.94699075476E+02  0.47000000000E+01 0.  1.
         13    1    6    6    0    0  0.24927358019E+02  0.75323335686E+01  0.74337881528E+01  0.27080813007E+02  0.00000000000E+00 0. -1.
        -14    1    6    6    0    0 -0.47330207674E+02  0.12173234701E+02 -0.44107066178E+02  0.65831371613E+02  0.00000000000E+00 0.  1.
<mgrwt>
<rscale>  2 0.18260663E+03</rscale>
<asrwt>0</asrwt>
<pdfrwt beam="1">  1       21 0.24297231E-01 0.18268965E+03</pdfrwt>
<pdfrwt beam="2">  1       21 0.41543666E-01 0.18268965E+03</pdfrwt>
<totfact> 0.89567143E+04</totfact>
</mgrwt>
</event>
<event>
12    1  0.1026879E-001  0.2220431E+03  0.7546771E-02  0.1133316E+00
         21   -1    0    0  501  502  0.00000000000E+00  0.00000000000E+00  0.10099751255E+04  0.10099751255E+04  0.00000000000E+00 0.  1.
         21   -1    0    0  502  503 -0.00000000000E+00 -0.00000000000E+00 -0.63295993424E+02  0.63295993424E+02  0.00000000000E+00 0.  1.
         -6    2    1    2    0  503  0.12658851457E+03 -0.42521410149E+02  0.21115156217E+03  0.30641167673E+03  0.17739901659E+03 0.  0.
        -24    2    3    3    0    0 -0.23669381788E+01 -0.36198249192E+02  0.11445451244E+03  0.14503664587E+03  0.81362630167E+02 0.  0.
          6    2    1    2  501    0 -0.12658851457E+03  0.42521410149E+02  0.73552756986E+03  0.76685944215E+03  0.17099671239E+03 0.  0.
         24    2    5    5    0    0 -0.78837268204E+02 -0.40966062044E+02  0.40934256821E+03  0.42675786197E+03  0.81654157903E+02 0.  0.
          5    1    5    5  501    0 -0.47751246361E+02  0.83487472193E+02  0.32618500165E+03  0.34010158018E+03  0.47000000000E+01 0. -1.
        -13    1    6    6    0    0 -0.95823953413E+02 -0.32190470967E+02  0.35686633722E+03  0.37090704916E+03  0.00000000000E+00 0.  1.
         14    1    6    6    0    0  0.16986685208E+02 -0.87755910764E+01  0.52476230986E+02  0.55850812810E+02  0.00000000000E+00 0. -1.
         -5    1    3    3    0  503  0.12895545274E+03 -0.63231609577E+01  0.96697049731E+02  0.16137503086E+03  0.47000000000E+01 0.  1.
         13    1    4    4    0    0 -0.61591147303E+01  0.26006697517E+02  0.32466184075E+02  0.42051588774E+02  0.00000000000E+00 0. -1.
        -14    1    4    4    0    0  0.37921765514E+01 -0.62204946709E+02  0.81988328362E+02  0.10298505710E+03  0.00000000000E+00 0.  1.
<mgrwt>
<rscale>  2 0.22076182E+03</rscale>
<asrwt>0</asrwt>
<pdfrwt beam="1">  1       21 0.15538078E+00 0.22204309E+03</pdfrwt>
<pdfrwt beam="2">  1       21 0.97378459E-02 0.22204309E+03</pdfrwt>
<totfact> 0.22721674E+04</totfact>
</mgrwt>
</event>
<event>
12    1  0.1026879E-001  0.1978502E+03  0.7546771E-02  0.1153047E+00
         21   -1    0    0  501  502  0.00000000000E+00  0.00000000000E+00  0.14594943823E+04  0.14594943823E+04  0.00000000000E+00 0. -1.
         21   -1    0    0  502  503 -0.00000000000E+00 -0.00000000000E+00 -0.29514521758E+02  0.29514521758E+02  0.00000000000E+00 0. -1.
         -6    2    1    2    0  503  0.17252778484E+02  0.93110897076E+02  0.46571464282E+03  0.50599884399E+03  0.17371644730E+03 0.  0.
        -24    2    3    3    0    0 -0.33129338288E+02  0.10349218957E+03  0.40072029746E+03  0.42297785957E+03  0.80779493299E+02 0.  0.
          6    2    1    2  501    0 -0.17252778484E+02 -0.93110897076E+02  0.96426521768E+03  0.98301006003E+03  0.16593393434E+03 0.  0.
         24    2    5    5    0    0 -0.13054129622E+02 -0.72314101652E+01  0.71158120678E+03  0.71605647925E+03  0.78526199716E+02 0.  0.
          5    1    5    5  501    0 -0.41986488627E+01 -0.85879486911E+02  0.25268401090E+03  0.26695358078E+03  0.47000000000E+01 0. -1.
        -11    1    6    6    0    0  0.16416880643E+02  0.16923979614E+02  0.81983159050E+02  0.85306350431E+02  0.00000000000E+00 0.  1.
         12    1    6    6    0    0 -0.29471010264E+02 -0.24155389779E+02  0.62959804773E+03  0.63075012882E+03  0.00000000000E+00 0. -1.
         -5    1    3    3    0  503  0.50382116772E+02 -0.10381292498E+02  0.64994345367E+02  0.83020984420E+02  0.47000000000E+01 0.  1.
         13    1    4    4    0    0  0.24446432824E+02  0.46126591487E+02  0.19262252309E+03  0.19957135797E+03  0.00000000000E+00 0. -1.
        -14    1    4    4    0    0 -0.57575771111E+02  0.57365598087E+02  0.20809777437E+03  0.22340650160E+03  0.00000000000E+00 0.  1.
<mgrwt>
<rscale>  2 0.19612864E+03</rscale>
<asrwt>0</asrwt>
<pdfrwt beam="1">  1       21 0.22453754E+00 0.19785020E+03</pdfrwt>
<pdfrwt beam="2">  1       21 0.45406968E-02 0.19785020E+03</pdfrwt>
<totfact> 0.29760849E+04</totfact>
</mgrwt>
</event>
<event>
12    1  0.1026879E-001  0.2358566E+03  0.7546771E-02  0.1122773E+00
         21   -1    0    0  501  502  0.00000000000E+00  0.00000000000E+00  0.31483957098E+03  0.31483957098E+03  0.00000000000E+00 0. -1.
         21   -1    0    0  502  503 -0.00000000000E+00 -0.00000000000E+00 -0.24256466828E+03  0.24256466828E+03  0.00000000000E+00 0.  1.
         -6    2    1    2    0  503 -0.36819115734E+02  0.15463107579E+03 -0.11007693082E+03  0.25927588221E+03  0.17274442253E+03 0.  0.
        -24    2    3    3    0    0 -0.27561403068E+02  0.16066529729E+03 -0.37418275258E+02  0.18563155248E+03  0.80535565195E+02 0.  0.
          6    2    1    2  501    0  0.36819115734E+02 -0.15463107579E+03  0.18235183352E+03  0.29812835705E+03  0.17424669066E+03 0.  0.
         24    2    5    5    0    0  0.12661037386E+02 -0.83145574523E+02  0.18938095304E+03  0.22219886237E+03  0.80210352400E+02 0.  0.
          5    1    5    5  501    0  0.24158078348E+02 -0.71485501268E+02 -0.70291195233E+01  0.75929494679E+02  0.47000000000E+01 0. -1.
        -13    1    6    6    0    0  0.24022438848E+02 -0.16529923006E+02  0.10523850626E+02  0.31001086349E+02  0.00000000000E+00 0.  1.
         14    1    6    6    0    0 -0.11361401462E+02 -0.66615651517E+02  0.17885710242E+03  0.19119777602E+03  0.00000000000E+00 0. -1.
         -5    1    3    3    0  503 -0.92577126659E+01 -0.60342215002E+01 -0.72658655565E+02  0.73644329730E+02  0.47000000000E+01 0.  1.
         11    1    4    4    0    0 -0.22050430443E+02  0.23726901594E+02 -0.36201221073E+02  0.48576905512E+02  0.00000000000E+00 0. -1.
        -12    1    4    4    0    0 -0.55109726253E+01  0.13693839570E+03 -0.12170541846E+01  0.13705464697E+03  0.00000000000E+00 0.  1.
<mgrwt>
<rscale>  2 0.23557917E+03</rscale>
<asrwt>0</asrwt>
<pdfrwt beam="1">  1       21 0.48436857E-01 0.23585658E+03</pdfrwt>
<pdfrwt beam="2">  1       21 0.37317641E-01 0.23585658E+03</pdfrwt>
<totfact> 0.27558234E+04</totfact>
</mgrwt>
</event>
<event>
12    1  0.1026879E-001  0.1762908E+03  0.7546771E-02  0.1171519E+00
         21   -1    0    0  501  502  0.00000000000E+00  0.00000000000E+00  0.32230464993E+03  0.32230464993E+03  0.00000000000E+00 0. -1.
         21   -1    0    0  502  503 -0.00000000000E+00 -0.00000000000E+00 -0.11122294359E+03  0.11122294359E+03  0.00000000000E+00 0. -1.
         -6    2    1    2    0  503 -0.91855521453E+01 -0.31322959518E+02  0.26106116974E+02  0.17821333007E+03  0.17324248760E+03 0.  0.
        -24    2    3    3    0    0  0.56685984695E+02 -0.40224795305E+02  0.11133459402E+01  0.10704430134E+03  0.81399679927E+02 0.  0.
          6    2    1    2  501    0  0.91855521453E+01  0.31322959518E+02  0.18497558936E+03  0.25531426345E+03  0.17292744808E+03 0.  0.
         24    2    5    5    0    0 -0.31750660901E+02  0.77291387465E+02  0.11803598919E+03  0.16425455789E+03  0.77878122722E+02 0.  0.
          5    1    5    5  501    0  0.40936213046E+02 -0.45968427947E+02  0.66939600167E+02  0.91059705562E+02  0.47000000000E+01 0. -1.
        -13    1    6    6    0    0  0.24994426594E+02  0.36910775561E+02  0.45878421105E+02  0.63968400295E+02  0.00000000000E+00 0.  1.
         14    1    6    6    0    0 -0.56745087495E+02  0.40380611904E+02  0.72157568087E+02  0.10028615759E+03  0.00000000000E+00 0. -1.
         -5    1    3    3    0  503 -0.65871536841E+02  0.89018357869E+01  0.24992771034E+02  0.71169028728E+02  0.47000000000E+01 0.  1.
         11    1    4    4    0    0 -0.13063725136E+02  0.51057611892E+01  0.17327653927E+02  0.22292987740E+02  0.00000000000E+00 0. -1.
        -12    1    4    4    0    0  0.69749709831E+02 -0.45330556494E+02 -0.16214307987E+02  0.84751313601E+02  0.00000000000E+00 0.  1.
<mgrwt>
<rscale>  2 0.17621340E+03</rscale>
<asrwt>0</asrwt>
<pdfrwt beam="1">  1       21 0.49585330E-01 0.17629084E+03</pdfrwt>
<pdfrwt beam="2">  1       21 0.17111222E-01 0.17629084E+03</pdfrwt>
<totfact> 0.12021192E+05</totfact>
</mgrwt>
</event>
<event>
12    1  0.1026879E-001  0.1919849E+03  0.7546771E-02  0.1156684E+00
         21   -1    0    0  503  502  0.00000000000E+00  0.00000000000E+00  0.52315181784E+02  0.52315181784E+02  0.00000000000E+00 0. -1.
         21   -1    0    0  501  503 -0.00000000000E+00 -0.00000000000E+00 -0.96023123263E+03  0.96023123263E+03  0.00000000000E+00 0. -1.
          6    2    1    2  501    0 -0.56672788755E+02 -0.59705712042E+02 -0.71520860439E+03  0.74052733639E+03  0.17343820545E+03 0.  0.
         24    2    3    3    0    0 -0.75886267840E+01 -0.61347248516E+02 -0.33320224367E+03  0.35534828812E+03  0.10689994632E+03 0.  0.
         -6    2    1    2    0  502  0.56672788755E+02  0.59705712042E+02 -0.19270744645E+03  0.27201907802E+03  0.17344060036E+03 0.  0.
        -24    2    5    5    0    0  0.57642499336E+01  0.92576334853E+02 -0.89436464169E+02  0.15218943665E+03  0.80988512481E+02 0.  0.
          5    1    3    3  501    0 -0.49084161971E+02  0.16415364737E+01 -0.38200636071E+03  0.38517904827E+03  0.47000000000E+01 0. -1.
        -11    1    4    4    0    0  0.15520358634E+02  0.20246806129E+02 -0.16517638603E+03  0.16713483537E+03  0.00000000000E+00 0.  1.
         12    1    4    4    0    0 -0.23108985418E+02 -0.81594054645E+02 -0.16802585764E+03  0.18821345275E+03  0.00000000000E+00 0. -1.
         -5    1    5    5    0  502  0.50908538821E+02 -0.32870622811E+02 -0.10327098228E+03  0.11982964137E+03  0.47000000000E+01 0.  1.
         11    1    6    6    0    0  0.25911015882E+02  0.41950097697E+02 -0.84037978079E+02  0.97434969084E+02  0.00000000000E+00 0. -1.
        -12    1    6    6    0    0 -0.20146765949E+02  0.50626237156E+02 -0.53984860902E+01  0.54754467570E+02  0.00000000000E+00 0.  1.
<mgrwt>
<rscale>  2 0.19198440E+03</rscale>
<asrwt>0</asrwt>
<pdfrwt beam="1">  1       21 0.80484901E-02 0.19198494E+03</pdfrwt>
<pdfrwt beam="2">  1       21 0.14772787E+00 0.19198494E+03</pdfrwt>
<totfact> 0.36961221E+04</totfact>
</mgrwt>
</event>
<event>
12    1  0.1026879E-001  0.3074872E+03  0.7546771E-02  0.1081602E+00
         21   -1    0    0  501  502  0.00000000000E+00  0.00000000000E+00  0.82479882903E+03  0.82479882903E+03  0.00000000000E+00 0.  1.
         21   -1    0    0  502  503 -0.00000000000E+00 -0.00000000000E+00 -0.12414114827E+03  0.12414114827E+03  0.00000000000E+00 0. -1.
         -6    2    1    2    0  503  0.16801110420E+02 -0.25301976219E+03  0.21824819998E+03  0.37706846966E+03  0.17391686705E+03 0.  0.
        -24    2    3    3    0    0 -0.67476631073E+01 -0.18128002212E+03  0.22608016160E+03  0.30101214406E+03  0.81167074759E+02 0.  0.
          6    2    1    2  501    0 -0.16801110420E+02  0.25301976219E+03  0.48240948078E+03  0.57187150764E+03  0.17325367740E+03 0.  0.
         24    2    5    5    0    0 -0.56106919355E+02  0.10933706488E+03  0.16056680032E+03  0.21719635333E+03  0.79309383913E+02 0.  0.
          5    1    5    5  501    0  0.39305808935E+02  0.14368269731E+03  0.32184268046E+03  0.35467515432E+03  0.47000000000E+01 0. -1.
        -13    1    6    6    0    0 -0.45203055183E+02  0.56870201764E+02  0.14369552900E+03  0.16101534430E+03  0.00000000000E+00 0.  1.
         14    1    6    6    0    0 -0.10903864172E+02  0.52466863116E+02  0.16871271327E+02  0.56181009027E+02  0.00000000000E+00 0. -1.
         -5    1    3    3    0  503  0.23548773527E+02 -0.71739740076E+02 -0.78319616218E+01  0.76056325600E+02  0.47000000000E+01 0.  1.
         11    1    4    4    0    0  0.11784151133E+02 -0.90386358010E+01 -0.15806935515E+01  0.14935251829E+02  0.00000000000E+00 0. -1.
        -12    1    4    4    0    0 -0.18531814241E+02 -0.17224138632E+03  0.22766085515E+03  0.28607689223E+03  0.00000000000E+00 0.  1.
<mgrwt>
<rscale>  2 0.30739346E+03</rscale>
<asrwt>0</asrwt>
<pdfrwt beam="1">  1       21 0.12689212E+00 0.30748716E+03</pdfrwt>
<pdfrwt beam="2">  1       21 0.19098639E-01 0.30748716E+03</pdfrwt>
<totfact> 0.10812577E+04</totfact>
</mgrwt>
</event>
<event>
12    1  0.1026879E-001  0.2205027E+03  0.7546771E-02  0.1133943E+00
         21   -1    0    0  503  502  0.00000000000E+00  0.00000000000E+00  0.27244740372E+03  0.27244740372E+03  0.00000000000E+00 0. -1.
         21   -1    0    0  501  503 -0.00000000000E+00 -0.00000000000E+00 -0.63438587355E+03  0.63438587355E+03  0.00000000000E+00 0. -1.
          6    2    1    2  501    0 -0.13280582003E+03  0.14433325178E+02 -0.56587561759E+03  0.60648050832E+03  0.17250416135E+03 0.  0.
         24    2    3    3    0    0 -0.85758674656E+02 -0.26626240800E+02 -0.18526603019E+03  0.22075383065E+03  0.79657045058E+02 0.  0.
         -6    2    1    2    0  502  0.13280582003E+03 -0.14433325178E+02  0.20393714776E+03  0.30035276895E+03  0.17543009682E+03 0.  0.
        -24    2    5    5    0    0  0.80577025933E+01 -0.42560623394E+02  0.56713934860E+02  0.10528867147E+03  0.77413827565E+02 0.  0.
          5    1    3    3  501    0 -0.47047145374E+02  0.41059565978E+02 -0.38060958740E+03  0.38572667767E+03  0.47000000000E+01 0. -1.
        -11    1    4    4    0    0 -0.55911800131E+02  0.15342327850E+02 -0.14239288374E+03  0.15374410479E+03  0.00000000000E+00 0.  1.
         12    1    4    4    0    0 -0.29846874525E+02 -0.41968568650E+02 -0.42873146444E+02  0.67009725857E+02  0.00000000000E+00 0. -1.
         -5    1    5    5    0  502  0.12474811744E+03  0.28127298216E+02  0.14722321290E+03  0.19506409748E+03  0.47000000000E+01 0.  1.
         11    1    6    6    0    0  0.29589287248E+02 -0.94081112869E+01  0.57944106332E+02  0.65738557457E+02  0.00000000000E+00 0. -1.
        -12    1    6    6    0    0 -0.21531584655E+02 -0.33152512107E+02 -0.12301714720E+01  0.39550114015E+02  0.00000000000E+00 0.  1.
<mgrwt>
<rscale>  2 0.21992020E+03</rscale>
<asrwt>0</asrwt>
<pdfrwt beam="1">  1       21 0.41914985E-01 0.22050267E+03</pdfrwt>
<pdfrwt beam="2">  1       21 0.97597826E-01 0.22050267E+03</pdfrwt>
<totfact> 0.46626552E+03</totfact>
</mgrwt>
</event>
<event>
12    1  0.1026879E-001  0.2551736E+03  0.7546771E-02  0.1110162E+00
         21   -1    0    0  501  502  0.00000000000E+00  0.00000000000E+00  0.20519712810E+03  0.20519712810E+03  0.00000000000E+00 0.  1.
         21   -1    0    0  502  503 -0.00000000000E+00 -0.00000000000E+00 -0.31678854528E+03  0.31678854528E+03  0.00000000000E+00 0. -1.
         -6    2    1    2    0  503 -0.17139684590E+03 -0.74851767913E+02 -0.61389815830E+02  0.26245429413E+03  0.17359113190E+03 0.  0.
        -24    2    3    3    0    0 -0.92871282275E+02 -0.90406453532E+02 -0.91282584309E+02  0.17687462368E+03  0.78445652468E+02 0.  0.
          6    2    1    2  501    0  0.17139684590E+03  0.74851767913E+02 -0.50201601347E+02  0.25953137925E+03  0.17279082757E+03 0.  0.
         24    2    5    5    0    0  0.49922064908E+02  0.37680168925E+02  0.42306303120E+02  0.10231289249E+03  0.69036924845E+02 0.  0.
          5    1    5    5  501    0  0.12147478099E+03  0.37171598988E+02 -0.92507904467E+02  0.15721848676E+03  0.47000000000E+01 0. -1.
        -13    1    6    6    0    0  0.42565628746E+02 -0.98744091084E+01  0.11526603088E+02  0.45190699094E+02  0.00000000000E+00 0.  1.
         14    1    6    6    0    0  0.73564361621E+01  0.47554578033E+02  0.30779700032E+02  0.57122193401E+02  0.00000000000E+00 0. -1.
         -5    1    3    3    0  503 -0.78525563628E+02  0.15554685620E+02  0.29892768479E+02  0.85579670455E+02  0.47000000000E+01 0.  1.
         13    1    4    4    0    0 -0.68393356833E+01 -0.91689379252E+01 -0.50405133373E+02  0.51686781730E+02  0.00000000000E+00 0. -1.
        -14    1    4    4    0    0 -0.86031946592E+02 -0.81237515607E+02 -0.40877450936E+02  0.12518784195E+03  0.00000000000E+00 0.  1.
<mgrwt>
<rscale>  2 0.25503751E+03</rscale>
<asrwt>0</asrwt>
<pdfrwt beam="1">  1       21 0.31568789E-01 0.25517356E+03</pdfrwt>
<pdfrwt beam="2">  1       21 0.48736699E-01 0.25517356E+03</pdfrwt>
<totfact> 0.37641216E+04</totfact>
</mgrwt>
</event>
<event>
12    1  0.1026879E-001  0.1906878E+03  0.7546771E-02  0.1159459E+00
         21   -1    0    0  501  502  0.00000000000E+00  0.00000000000E+00  0.13051064407E+03  0.13051064407E+03  0.00000000000E+00 0.  1.
         21   -1    0    0  502  503 -0.00000000000E+00 -0.00000000000E+00 -0.40201326666E+03  0.40201326666E+03  0.00000000000E+00 0.  1.
         -6    2    1    2    0  503 -0.46460491190E+02 -0.45315041740E+02  0.16027577868E+02  0.19136015910E+03  0.17930364466E+03 0.  0.
        -24    2    3    3    0    0 -0.19836372507E+02 -0.29236028248E+02  0.80489591016E+02  0.11963276190E+03  0.81149223258E+02 0.  0.
          6    2    1    2  501    0  0.46460491190E+02  0.45315041740E+02 -0.28753020045E+03  0.34116375163E+03  0.17177618870E+03 0.  0.
         24    2    5    5    0    0  0.11464236987E+02  0.90295723835E+02 -0.23081167214E+03  0.26062133409E+03  0.79779103233E+02 0.  0.
          5    1    5    5  501    0  0.34996254203E+02 -0.44980682095E+02 -0.56718528311E+02  0.80542417544E+02  0.47000000000E+01 0. -1.
        -11    1    6    6    0    0 -0.32326708971E+02  0.24359703703E+02 -0.60199875853E+02  0.72542651799E+02  0.00000000000E+00 0.  1.
         12    1    6    6    0    0  0.43790945958E+02  0.65936020132E+02 -0.17061179629E+03  0.18807868229E+03  0.00000000000E+00 0. -1.
         -5    1    3    3    0  503 -0.26624118684E+02 -0.16079013492E+02 -0.64462013148E+02  0.71727397204E+02  0.47000000000E+01 0.  1.
         11    1    4    4    0    0 -0.45058737819E+02 -0.27074496122E+02  0.24113902415E+02  0.57834232803E+02  0.00000000000E+00 0. -1.
        -12    1    4    4    0    0  0.25222365313E+02 -0.21615321257E+01  0.56375688601E+02  0.61798529095E+02  0.00000000000E+00 0.  1.
<mgrwt>
<rscale>  2 0.18889768E+03</rscale>
<asrwt>0</asrwt>
<pdfrwt beam="1">  1       21 0.20078561E-01 0.19068777E+03</pdfrwt>
<pdfrwt beam="2">  1       21 0.61848194E-01 0.19068777E+03</pdfrwt>
<totfact> 0.55674505E+04</totfact>
</mgrwt>
</event>
<event>
12    1  0.1026879E-001  0.2206646E+03  0.7546771E-02  0.1133725E+00
         21   -1    0    0  501  502  0.00000000000E+00  0.00000000000E+00  0.14164000989E+03  0.14164000989E+03  0.00000000000E+00 0.  1.
         21   -1    0    0  502  503 -0.00000000000E+00 -0.00000000000E+00 -0.34605395128E+03  0.34605395128E+03  0.00000000000E+00 0. -1.
         -6    2    1    2    0  503  0.74437845771E+02  0.11130040950E+03 -0.13133697580E+03  0.25524370616E+03  0.17312184809E+03 0.  0.
        -24    2    3    3    0    0 -0.27835406339E+01 -0.63861220486E+01 -0.50232719118E+02  0.92722160892E+02  0.77624367290E+02 0.  0.
          6    2    1    2  501    0 -0.74437845771E+02 -0.11130040950E+03 -0.73076965591E+02  0.23245025501E+03  0.17539699005E+03 0.  0.
         24    2    5    5    0    0 -0.20284382822E+02 -0.13124266967E+03 -0.82599594488E+02  0.17377264641E+03  0.75750545223E+02 0.  0.
          5    1    5    5  501    0 -0.54153462949E+02  0.19942260174E+02  0.95226288966E+01  0.58677608603E+02  0.47000000000E+01 0. -1.
        -13    1    6    6    0    0  0.16447834679E+02 -0.62437131635E+02 -0.66535223683E+01  0.64909136740E+02  0.00000000000E+00 0.  1.
         14    1    6    6    0    0 -0.36732217501E+02 -0.68805538034E+02 -0.75946072119E+02  0.10886350967E+03  0.00000000000E+00 0. -1.
         -5    1    3    3    0  503  0.77221386405E+02  0.11768653154E+03 -0.81104256677E+02  0.16252154527E+03  0.47000000000E+01 0.  1.
         13    1    4    4    0    0  0.23547186556E+02 -0.72577087286E+01 -0.59812690397E+02  0.64689274715E+02  0.00000000000E+00 0. -1.
        -14    1    4    4    0    0 -0.26330727190E+02  0.87158667997E+00  0.95799712786E+01  0.28032886177E+02  0.00000000000E+00 0.  1.
<mgrwt>
<rscale>  2 0.22021222E+03</rscale>
<asrwt>0</asrwt>
<pdfrwt beam="1">  1       21 0.21790771E-01 0.22066463E+03</pdfrwt>
<pdfrwt beam="2">  1       21 0.53239068E-01 0.22066463E+03</pdfrwt>
<totfact> 0.64848809E+04</totfact>
</mgrwt>
</event>
<event>
12    1  0.1026879E-001  0.2397331E+03  0.7546771E-02  0.1120155E+00
         21   -1    0    0  503  502  0.00000000000E+00  0.00000000000E+00  0.14028224823E+03  0.14028224823E+03  0.00000000000E+00 0. -1.
         21   -1    0    0  501  503 -0.00000000000E+00 -0.00000000000E+00 -0.48431418418E+03  0.48431418418E+03  0.00000000000E+00 0. -1.
          6    2    1    2  501    0  0.54711409758E+02 -0.15552239114E+03 -0.29647892822E+03  0.38127645092E+03  0.17404431804E+03 0.  0.
         24    2    3    3    0    0  0.73294206926E+01 -0.47550576212E+01 -0.10432002353E+03  0.13243317414E+03  0.81114408850E+02 0.  0.
         -6    2    1    2    0  502 -0.54711409758E+02  0.15552239114E+03 -0.47553007735E+02  0.24331998150E+03  0.17251890432E+03 0.  0.
        -24    2    5    5    0    0  0.31079745262E+02  0.76340765280E+02 -0.52243984124E+02  0.12638432648E+03  0.80310031093E+02 0.  0.
          5    1    3    3  501    0  0.47381989065E+02 -0.15076733352E+03 -0.19215890469E+03  0.24884327678E+03  0.47000000000E+01 0. -1.
        -13    1    4    4    0    0  0.38847081757E+02  0.16578187808E+01 -0.88340668436E+02  0.96519002398E+02  0.00000000000E+00 0.  1.
         14    1    4    4    0    0 -0.31517661065E+02 -0.64128764020E+01 -0.15979355092E+02  0.35914171742E+02  0.00000000000E+00 0. -1.
         -5    1    5    5    0  502 -0.85791155020E+02  0.79181625863E+02  0.46909763895E+01  0.11693565501E+03  0.47000000000E+01 0.  1.
         11    1    6    6    0    0 -0.15507983998E+02  0.65354246358E+02 -0.32263771803E+02  0.74515944976E+02  0.00000000000E+00 0. -1.
        -12    1    6    6    0    0  0.46587729261E+02  0.10986518922E+02 -0.19980212321E+02  0.51868381506E+02  0.00000000000E+00 0.  1.
<mgrwt>
<rscale>  2 0.23945638E+03</rscale>
<asrwt>0</asrwt>
<pdfrwt beam="1">  1       21 0.21581884E-01 0.23973314E+03</pdfrwt>
<pdfrwt beam="2">  1       21 0.74509875E-01 0.23973314E+03</pdfrwt>
<totfact> 0.31517945E+04</totfact>
</mgrwt>
</event>
<event>
12    1  0.1026879E-001  0.2220926E+03  0.7546771E-02  0.1132654E+00
         21   -1    0    0  503  502  0.00000000000E+00  0.00000000000E+00  0.60348911711E+03  0.60348911711E+03  0.00000000000E+00 0.  1.
         21   -1    0    0  501  503 -0.00000000000E+00 -0.00000000000E+00 -0.14033518429E+03  0.14033518429E+03  0.00000000000E+00 0. -1.
          6    2    1    2  501    0 -0.11333846742E+03 -0.78110744653E+02 -0.10585587481E+02  0.22060899268E+03  0.17207375268E+03 0.  0.
         24    2    3    3    0    0 -0.14614058119E+03 -0.42854546421E+02 -0.93568650199E+01  0.17220880735E+03  0.79841973824E+02 0.  0.
         -6    2    1    2    0  502  0.11333846742E+03  0.78110744653E+02  0.47373952030E+03  0.52321530872E+03  0.17429351553E+03 0.  0.
        -24    2    5    5    0    0  0.28455730609E+01  0.54134767169E+02  0.30577017874E+03  0.32068304733E+03  0.80022149019E+02 0.  0.
          5    1    3    3  501    0  0.32802113772E+02 -0.35256198232E+02 -0.12287224609E+01  0.48400185336E+02  0.47000000000E+01 0. -1.
        -11    1    4    4    0    0 -0.58848193926E+02  0.95974459784E+01 -0.32307337433E+02  0.67815816368E+02  0.00000000000E+00 0.  1.
         12    1    4    4    0    0 -0.87292387268E+02 -0.52451992399E+02  0.22950472413E+02  0.10439299098E+03  0.00000000000E+00 0. -1.
         -5    1    5    5    0  502  0.11049289436E+03  0.23975977484E+02  0.16796934156E+03  0.20253226139E+03  0.47000000000E+01 0.  1.
         11    1    6    6    0    0  0.21458835504E+02  0.39596429876E+01  0.18913390062E+02  0.28876923614E+02  0.00000000000E+00 0. -1.
        -12    1    6    6    0    0 -0.18613262443E+02  0.50175124181E+02  0.28685678868E+03  0.29180612371E+03  0.00000000000E+00 0.  1.
<mgrwt>
<rscale>  2 0.22165689E+03</rscale>
<asrwt>0</asrwt>
<pdfrwt beam="1">  1       21 0.92844478E-01 0.22209261E+03</pdfrwt>
<pdfrwt beam="2">  1       21 0.21590029E-01 0.22209261E+03</pdfrwt>
<totfact> 0.19204248E+04</totfact>
</mgrwt>
</event>
<event>
12    1  0.1026879E-001  0.1824932E+03  0.7546771E-02  0.1167224E+00
         21   -1    0    0  503  502  0.00000000000E+00  0.00000000000E+00  0.39402311531E+03  0.39402311531E+03  0.00000000000E+00 0. -1.
         21   -1    0    0  501  503 -0.00000000000E+00 -0.00000000000E+00 -0.81410909711E+02  0.81410909711E+02  0.00000000000E+00 0. -1.
          6    2    1    2  501    0  0.15653851534E+02  0.55387085833E+02  0.13845583367E+03  0.22317579493E+03  0.16530167942E+03 0.  0.
         24    2    3    3    0    0  0.66488056636E+02  0.40682144691E+02  0.53922423534E+02  0.12333422477E+03  0.78917708203E+02 0.  0.
         -6    2    1    2    0  502 -0.15653851534E+02 -0.55387085833E+02  0.17415637193E+03  0.25225823009E+03  0.17317909926E+03 0.  0.
        -24    2    5    5    0    0 -0.77096211417E+02 -0.30391012791E+02  0.96518831315E+02  0.15003472512E+03  0.79543035340E+02 0.  0.
          5    1    3    3  501    0 -0.50834205102E+02  0.14704941142E+02  0.84533410136E+02  0.99841570158E+02  0.47000000000E+01 0. -1.
        -13    1    4    4    0    0 -0.66689133127E+01 -0.25248350068E+01 -0.13235253280E+02  0.15033999001E+02  0.00000000000E+00 0.  1.
         14    1    4    4    0    0  0.73156969949E+02  0.43206979698E+02  0.67157676813E+02  0.10830022577E+03  0.00000000000E+00 0. -1.
         -5    1    5    5    0  502  0.61442359883E+02 -0.24996073042E+02  0.77637540610E+02  0.10222350497E+03  0.47000000000E+01 0.  1.
         11    1    6    6    0    0 -0.22363397587E+02 -0.11220866143E+02 -0.11419747492E+02  0.27503454718E+02  0.00000000000E+00 0. -1.
        -12    1    6    6    0    0 -0.54732813830E+02 -0.19170146648E+02  0.10793857881E+03  0.12253127041E+03  0.00000000000E+00 0.  1.
<mgrwt>
<rscale>  2 0.18059951E+03</rscale>
<asrwt>0</asrwt>
<pdfrwt beam="1">  1       21 0.60618940E-01 0.18249321E+03</pdfrwt>
<pdfrwt beam="2">  1       21 0.12524756E-01 0.18249321E+03</pdfrwt>
<totfact> 0.13823579E+05</totfact>
</mgrwt>
</event>
<event>
12    1  0.1026879E-001  0.2000071E+03  0.7546771E-02  0.1149863E+00
         21   -1    0    0  501  502  0.00000000000E+00  0.00000000000E+00  0.19323180083E+02  0.19323180083E+02  0.00000000000E+00 0.  1.
         21   -1    0    0  502  503 -0.00000000000E+00 -0.00000000000E+00 -0.20639390490E+04  0.20639390490E+04  0.00000000000E+00 0.  1.
         -6    2    1    2    0  503  0.88704103674E+01  0.97820735097E+02 -0.10125692247E+04  0.10320138625E+04  0.17351829053E+03 0.  0.
        -24    2    3    3    0    0  0.54945933684E+02  0.55444739671E+02 -0.37773738397E+03  0.39408578281E+03  0.80776841806E+02 0.  0.
          6    2    1    2  501    0 -0.88704103674E+01 -0.97820735097E+02 -0.10320466442E+04  0.10512483666E+04  0.17422764434E+03 0.  0.
         24    2    5    5    0    0 -0.34746891138E+02 -0.12969275217E+03 -0.88802820315E+03  0.90141906674E+03  0.77036925491E+02 0.  0.
          5    1    5    5  501    0  0.25876480771E+02  0.31872017070E+02 -0.14401844103E+03  0.14982929983E+03  0.47000000000E+01 0. -1.
        -11    1    6    6    0    0 -0.52758042667E+02 -0.57236914545E+02 -0.53029286683E+03  0.53597574578E+03  0.00000000000E+00 0.  1.
         12    1    6    6    0    0  0.18011151529E+02 -0.72455837623E+02 -0.35773533632E+03  0.36544332096E+03  0.00000000000E+00 0. -1.
         -5    1    3    3    0  503 -0.46075523317E+02  0.42375995426E+02 -0.63483184078E+03  0.63792807972E+03  0.47000000000E+01 0.  1.
         13    1    4    4    0    0 -0.13417541792E+02 -0.22097339046E+01 -0.14003765852E+02  0.19519703115E+02  0.00000000000E+00 0. -1.
        -14    1    4    4    0    0  0.68363475476E+02  0.57654473576E+02 -0.36373361812E+03  0.37456607969E+03  0.00000000000E+00 0.  1.
<mgrwt>
<rscale>  2 0.19985255E+03</rscale>
<asrwt>0</asrwt>
<pdfrwt beam="1">  1       21 0.29727973E-02 0.20000713E+03</pdfrwt>
<pdfrwt beam="2">  1       21 0.31752905E+00 0.20000713E+03</pdfrwt>
<totfact> 0.17241915E+04</totfact>
</mgrwt>
</event>
<event>
12    1  0.1026879E-001  0.2129463E+03  0.7546771E-02  0.1139463E+00
         21   -1    0    0  501  502  0.00000000000E+00  0.00000000000E+00  0.24407056626E+03  0.24407056626E+03  0.00000000000E+00 0. -1.
         21   -1    0    0  502  503 -0.00000000000E+00 -0.00000000000E+00 -0.23696118035E+03  0.23696118035E+03  0.00000000000E+00 0.  1.
         -6    2    1    2    0  503 -0.10788237275E+03  0.58742059102E+02  0.11633227910E+03  0.24170815855E+03  0.17262792037E+03 0.  0.
        -24    2    3    3    0    0 -0.39241099392E+02  0.98871437708E+02  0.70797467965E+02  0.14996122149E+03  0.78489880899E+02 0.  0.
          6    2    1    2  501    0  0.10788237275E+03 -0.58742059102E+02 -0.10922289319E+03  0.23932358806E+03  0.17394511649E+03 0.  0.
         24    2    5    5    0    0  0.60527299008E+02  0.21534680663E+01 -0.12362997246E+03  0.16070792696E+03  0.82912461953E+02 0.  0.
          5    1    5    5  501    0  0.47355073740E+02 -0.60895527169E+02  0.14407079272E+02  0.78615661107E+02  0.47000000000E+01 0. -1.
        -11    1    6    6    0    0  0.42722754729E+02 -0.30176135632E+02 -0.10919785421E+03  0.12107850469E+03  0.00000000000E+00 0.  1.
         12    1    6    6    0    0  0.17804544279E+02  0.32329603698E+02 -0.14432118247E+02  0.39629422269E+02  0.00000000000E+00 0. -1.
         -5    1    3    3    0  503 -0.68641273356E+02 -0.40129378605E+02  0.45534811134E+02  0.91746937062E+02  0.47000000000E+01 0.  1.
         11    1    4    4    0    0 -0.52731816971E+02  0.10490933556E+03  0.63011022122E+02  0.13325540184E+03  0.00000000000E+00 0. -1.
        -12    1    4    4    0    0  0.13490717579E+02 -0.60378978568E+01  0.77864458425E+01  0.16705819650E+02  0.00000000000E+00 0.  1.
<mgrwt>
<rscale>  2 0.21267717E+03</rscale>
<asrwt>0</asrwt>
<pdfrwt beam="1">  1       21 0.37549318E-01 0.21294633E+03</pdfrwt>
<pdfrwt beam="2">  1       21 0.36455566E-01 0.21294633E+03</pdfrwt>
<totfact> 0.49153100E+04</totfact>
</mgrwt>
</event>
<event>
12    1  0.1026879E-001  0.1792860E+03  0.7546771E-02  0.1170366E+00
         21   -1    0    0  501  502  0.00000000000E+00  0.00000000000E+00  0.11565165618E+04  0.11565165618E+04  0.00000000000E+00 0.  1.
         21   -1    0    0  502  503 -0.00000000000E+00 -0.00000000000E+00 -0.31816680331E+02  0.31816680331E+02  0.00000000000E+00 0. -1.
         -6    2    1    2    0  503 -0.47817913870E+02  0.22918228818E+01  0.81202867968E+03  0.83158526619E+03  0.17277636696E+03 0.  0.
        -24    2    3    3    0    0 -0.29729425203E+02 -0.62144567978E+02  0.58967725220E+03  0.59933219475E+03  0.82061147026E+02 0.  0.
          6    2    1    2  501    0  0.47817913870E+02 -0.22918228818E+01  0.31267120183E+03  0.35674797598E+03  0.16496676203E+03 0.  0.
         24    2    5    5    0    0  0.72313950189E+02  0.42835623135E+02  0.18048394759E+03  0.21486033607E+03  0.80785584566E+02 0.  0.
          5    1    5    5  501    0 -0.24496036319E+02 -0.45127446017E+02  0.13218725423E+03  0.14188763992E+03  0.47000000000E+01 0. -1.
        -13    1    6    6    0    0  0.27337660430E+02  0.59766401033E+02  0.12671700938E+03  0.14274652653E+03  0.00000000000E+00 0.  1.
         14    1    6    6    0    0  0.44976289759E+02 -0.16930777898E+02  0.53766938212E+02  0.72113809533E+02  0.00000000000E+00 0. -1.
         -5    1    3    3    0  503 -0.18088488667E+02  0.64436390860E+02  0.22235142748E+03  0.23225307143E+03  0.47000000000E+01 0.  1.
         13    1    4    4    0    0 -0.35570727321E+02 -0.56881867642E+02  0.23039470617E+03  0.23996363087E+03  0.00000000000E+00 0. -1.
        -14    1    4    4    0    0  0.58413021187E+01 -0.52627003361E+01  0.35928254603E+03  0.35936856388E+03  0.00000000000E+00 0.  1.
<mgrwt>
<rscale>  2 0.17737741E+03</rscale>
<asrwt>0</asrwt>
<pdfrwt beam="1">  1       21 0.17792559E+00 0.17928602E+03</pdfrwt>
<pdfrwt beam="2">  1       21 0.48948748E-02 0.17928602E+03</pdfrwt>
<totfact> 0.52849474E+04</totfact>
</mgrwt>
</event>
<event>
12    1  0.1026879E-001  0.2184650E+03  0.7546771E-02  0.1135279E+00
         21   -1    0    0  501  502  0.00000000000E+00  0.00000000000E+00  0.12291758506E+03  0.12291758506E+03  0.00000000000E+00 0.  1.
         21   -1    0    0  502  503 -0.00000000000E+00 -0.00000000000E+00 -0.39757300621E+03  0.39757300621E+03  0.00000000000E+00 0. -1.
         -6    2    1    2    0  503 -0.10928707094E+03  0.70689241616E+02 -0.93258271874E+02  0.23753753992E+03  0.17546037970E+03 0.  0.
        -24    2    3    3    0    0 -0.36855416426E+02  0.17395474555E+02 -0.11741217786E+03  0.14430626107E+03  0.73333165886E+02 0.  0.
          6    2    1    2  501    0  0.10928707094E+03 -0.70689241616E+02 -0.18139714928E+03  0.28295305135E+03  0.17383000531E+03 0.  0.
         24    2    5    5    0    0  0.85533546854E+02 -0.48323775001E+02 -0.37399179552E+02  0.13523050978E+03  0.85073011443E+02 0.  0.
          5    1    5    5  501    0  0.23753524083E+02 -0.22365466615E+02 -0.14399796973E+03  0.14772254157E+03  0.47000000000E+01 0. -1.
        -11    1    6    6    0    0 -0.14917997696E+02  0.55966720806E+01 -0.39289546908E+01  0.16410547785E+02  0.00000000000E+00 0.  1.
         12    1    6    6    0    0  0.10045154455E+03 -0.53920447081E+02 -0.33470224861E+02  0.11881996199E+03  0.00000000000E+00 0. -1.
         -5    1    3    3    0  503 -0.72431654510E+02  0.53293767061E+02  0.24153905982E+02  0.93231278854E+02  0.47000000000E+01 0.  1.
         11    1    4    4    0    0 -0.50152135529E+02  0.30433314973E+02 -0.10918689195E+03  0.12394837930E+03  0.00000000000E+00 0. -1.
        -12    1    4    4    0    0  0.13296719103E+02 -0.13037840418E+02 -0.82252859103E+01  0.20357881765E+02  0.00000000000E+00 0.  1.
<mgrwt>
<rscale>  2 0.21813750E+03</rscale>
<asrwt>0</asrwt>
<pdfrwt beam="1">  1       21 0.18910398E-01 0.21846505E+03</pdfrwt>
<pdfrwt beam="2">  1       21 0.61165077E-01 0.21846505E+03</pdfrwt>
<totfact> 0.62963532E+04</totfact>
</mgrwt>
</event>
<event>
12    1  0.1026879E-001  0.1799433E+03  0.7546771E-02  0.1168025E+00
         21   -1    0    0  501  502  0.00000000000E+00  0.00000000000E+00  0.63439544577E+03  0.63439544577E+03  0.00000000000E+00 0. -1.
         21   -1    0    0  502  503 -0.00000000000E+00 -0.00000000000E+00 -0.54231963316E+02  0.54231963316E+02  0.00000000000E+00 0. -1.
         -6    2    1    2    0  503  0.25292906610E+02 -0.40102005875E+02  0.37560448776E+03  0.41618666546E+03  0.17287193895E+03 0.  0.
        -24    2    3    3    0    0 -0.47534869902E+02 -0.16682179646E+01  0.16471180721E+03  0.18973831859E+03  0.81291471273E+02 0.  0.
          6    2    1    2  501    0 -0.25292906610E+02  0.40102005875E+02  0.20455899469E+03  0.27244074362E+03  0.17358477606E+03 0.  0.
         24    2    5    5    0    0 -0.62912082436E+02 -0.79832234923E+00  0.18854170696E+03  0.21441762112E+03  0.80426199400E+02 0.  0.
          5    1    5    5  501    0  0.37619175826E+02  0.40900328225E+02  0.16017287727E+02  0.58023122502E+02  0.47000000000E+01 0. -1.
        -13    1    6    6    0    0 -0.66527082313E+02 -0.14220605826E+02  0.80109726853E+02  0.10509827138E+03  0.00000000000E+00 0.  1.
         14    1    6    6    0    0  0.36149998778E+01  0.13422283476E+02  0.10843198011E+03  0.10931934974E+03  0.00000000000E+00 0. -1.
         -5    1    3    3    0  503  0.72827776512E+02 -0.38433787911E+02  0.21089268056E+03  0.22644834686E+03  0.47000000000E+01 0.  1.
         13    1    4    4    0    0  0.83447713981E+01 -0.51973734410E+01  0.11329492047E+03  0.11372065293E+03  0.00000000000E+00 0. -1.
        -14    1    4    4    0    0 -0.55879641300E+02  0.35291554763E+01  0.51416886741E+02  0.76017665660E+02  0.00000000000E+00 0.  1.
<mgrwt>
<rscale>  2 0.17977112E+03</rscale>
<asrwt>0</asrwt>
<pdfrwt beam="1">  1       21 0.97599294E-01 0.17994326E+03</pdfrwt>
<pdfrwt beam="2">  1       21 0.83433794E-02 0.17994326E+03</pdfrwt>
<totfact> 0.97476333E+04</totfact>
</mgrwt>
</event>
<event>
12    1  0.1026879E-001  0.1779548E+03  0.7546771E-02  0.1169845E+00
         21   -1    0    0  503  502  0.00000000000E+00  0.00000000000E+00  0.23990401529E+02  0.23990401529E+02  0.00000000000E+00 0. -1.
         21   -1    0    0  501  503 -0.00000000000E+00 -0.00000000000E+00 -0.14383065697E+04  0.14383065697E+04  0.00000000000E+00 0. -1.
          6    2    1    2  501    0 -0.12460994563E+02  0.50408477653E+02 -0.49655896257E+03  0.52748337590E+03  0.17021050949E+03 0.  0.
         24    2    3    3    0    0  0.13719914484E+02  0.93577572277E+02 -0.32608592920E+03  0.34962906520E+03  0.83447300277E+02 0.  0.
         -6    2    1    2    0  502  0.12460994563E+02 -0.50408477653E+02 -0.91775720557E+03  0.93481359529E+03  0.17000552512E+03 0.  0.
        -24    2    5    5    0    0  0.36762436621E+02 -0.50760487560E+02 -0.89654384048E+03  0.90221327543E+03  0.79182274605E+02 0.  0.
          5    1    3    3  501    0 -0.26180909048E+02 -0.43169094623E+02 -0.17047303337E+03  0.17785431070E+03  0.47000000000E+01 0. -1.
        -13    1    4    4    0    0  0.37785902061E+02  0.72316419124E+02 -0.29029498537E+03  0.30154372386E+03  0.00000000000E+00 0.  1.
         14    1    4    4    0    0 -0.24065987576E+02  0.21261153153E+02 -0.35790943833E+02  0.48085341341E+02  0.00000000000E+00 0. -1.
         -5    1    5    5    0  502 -0.24301442058E+02  0.35200990613E+00 -0.21213365088E+02  0.32600319867E+02  0.47000000000E+01 0.  1.
         11    1    6    6    0    0  0.25990256555E+02  0.16675155015E+02 -0.36426332833E+03  0.36556986555E+03  0.00000000000E+00 0. -1.
        -12    1    6    6    0    0  0.10772180066E+02 -0.67435642575E+02 -0.53228051214E+03  0.53664340987E+03  0.00000000000E+00 0.  1.
<mgrwt>
<rscale>  2 0.17790576E+03</rscale>
<asrwt>0</asrwt>
<pdfrwt beam="1">  1       21 0.36908292E-02 0.17795479E+03</pdfrwt>
<pdfrwt beam="2">  1       21 0.22127804E+00 0.17795479E+03</pdfrwt>
<totfact> 0.44768735E+04</totfact>
</mgrwt>
</event>
<event>
12    1  0.1026879E-001  0.1963532E+03  0.7546771E-02  0.1152904E+00
         21   -1    0    0  501  502  0.00000000000E+00  0.00000000000E+00  0.35339205377E+02  0.35339205377E+02  0.00000000000E+00 0.  1.
         21   -1    0    0  502  503 -0.00000000000E+00 -0.00000000000E+00 -0.11244883279E+04  0.11244883279E+04  0.00000000000E+00 0.  1.
         -6    2    1    2    0  503  0.34127692073E+02 -0.85770337219E+02 -0.44223073966E+03  0.48376690695E+03  0.17303509196E+03 0.  0.
        -24    2    3    3    0    0  0.59252848894E+02 -0.11239519925E+03 -0.28619519270E+03  0.32342558758E+03  0.80949622970E+02 0.  0.
          6    2    1    2  501    0 -0.34127692073E+02  0.85770337219E+02 -0.64691838282E+03  0.67606062628E+03  0.17330125870E+03 0.  0.
         24    2    5    5    0    0 -0.65415747174E+02  0.10791291801E+02 -0.47117349385E+03  0.48238782065E+03  0.79359159797E+02 0.  0.
          5    1    5    5  501    0  0.31288055101E+02  0.74979045418E+02 -0.17574488896E+03  0.19367280563E+03  0.47000000000E+01 0. -1.
        -11    1    6    6    0    0 -0.55153367010E+02  0.41045317546E+02 -0.36851573338E+03  0.37487392245E+03  0.00000000000E+00 0.  1.
         12    1    6    6    0    0 -0.10262380164E+02 -0.30254025746E+02 -0.10265776048E+03  0.10751389820E+03  0.00000000000E+00 0. -1.
         -5    1    3    3    0  503 -0.25125156821E+02  0.26624862030E+02 -0.15603554696E+03  0.16034131937E+03  0.47000000000E+01 0.  1.
         11    1    4    4    0    0 -0.10772226384E+02  0.65462894289E+01 -0.25590766974E+02  0.28526866650E+02  0.00000000000E+00 0. -1.
        -12    1    4    4    0    0  0.70025075278E+02 -0.11894148868E+03 -0.26060442572E+03  0.29489872093E+03  0.00000000000E+00 0.  1.
<mgrwt>
<rscale>  2 0.19629445E+03</rscale>
<asrwt>0</asrwt>
<pdfrwt beam="1">  1       21 0.54368017E-02 0.19635319E+03</pdfrwt>
<pdfrwt beam="2">  1       21 0.17299818E+00 0.19635319E+03</pdfrwt>
<totfact> 0.47331912E+04</totfact>
</mgrwt>
</event>
<event>
12    1  0.1026879E-001  0.2654102E+03  0.7546771E-02  0.1104226E+00
         21   -1    0    0  501  502  0.00000000000E+00  0.00000000000E+00  0.15676529038E+03  0.15676529038E+03  0.00000000000E+00 0. -1.
         21   -1    0    0  502  503 -0.00000000000E+00 -0.00000000000E+00 -0.54409753389E+03  0.54409753389E+03  0.00000000000E+00 0.  1.
         -6    2    1    2    0  503  0.51408373374E+02 -0.19127153711E+03 -0.34185928320E+03  0.43158535276E+03  0.17369664777E+03 0.  0.
        -24    2    3    3    0    0  0.44620063318E+02 -0.21200547632E+03 -0.26121366505E+03  0.34790869464E+03  0.76619899215E+02 0.  0.
          6    2    1    2  501    0 -0.51408373374E+02  0.19127153711E+03 -0.45472960319E+02  0.26927747151E+03  0.17667751634E+03 0.  0.
         24    2    5    5    0    0  0.84414809524E+01  0.99604062676E+02  0.35958737448E+02  0.13275588958E+03  0.79617005195E+02 0.  0.
          5    1    5    5  501    0 -0.59849854326E+02  0.91667474431E+02 -0.81431697767E+02  0.13652158193E+03  0.47000000000E+01 0. -1.
        -11    1    6    6    0    0 -0.16838029426E+02  0.39551908319E+02 -0.19490700658E+02  0.47199153581E+02  0.00000000000E+00 0.  1.
         12    1    6    6    0    0  0.25279510378E+02  0.60052154357E+02  0.55449438107E+02  0.85556735996E+02  0.00000000000E+00 0. -1.
         -5    1    3    3    0  503  0.67883100557E+01  0.20733939209E+02 -0.80645618143E+02  0.83676658121E+02  0.47000000000E+01 0.  1.
         11    1    4    4    0    0  0.13089374376E+02 -0.11707982585E+03 -0.19542140664E+03  0.22818532712E+03  0.00000000000E+00 0. -1.
        -12    1    4    4    0    0  0.31530688942E+02 -0.94925650465E+02 -0.65792258417E+02  0.11972336751E+03  0.00000000000E+00 0.  1.
<mgrwt>
<rscale>  2 0.26491508E+03</rscale>
<asrwt>0</asrwt>
<pdfrwt beam="1">  1       21 0.24117737E-01 0.26541019E+03</pdfrwt>
<pdfrwt beam="2">  1       21 0.83707314E-01 0.26541019E+03</pdfrwt>
<totfact> 0.19352706E+04</totfact>
</mgrwt>
</event>
<event>
12    1  0.1026879E-001  0.1876844E+03  0.7546771E-02  0.1160872E+00
         21   -1    0    0  501  502  0.00000000000E+00  0.00000000000E+00  0.16953615230E+04  0.16953615230E+04  0.00000000000E+00 0.  1.
         21   -1    0    0  502  503 -0.00000000000E+00 -0.00000000000E+00 -0.35063168690E+02  0.35063168690E+02  0.00000000000E+00 0.  1.
         -6    2    1    2    0  503 -0.37809088078E+02  0.59479868537E+02  0.27332688195E+03  0.33081214249E+03  0.17251581760E+03 0.  0.
        -24    2    3    3    0    0 -0.63447067792E+02 -0.16802530745E+02  0.11648715999E+03  0.15446844732E+03  0.77352358221E+02 0.  0.
          6    2    1    2  501    0  0.37809088078E+02 -0.59479868537E+02  0.13869714724E+04  0.13996125492E+04  0.17394838554E+03 0.  0.
         24    2    5    5    0    0  0.37673837616E+02 -0.51619549999E+00  0.12088465444E+04  0.12119231436E+04  0.77641184136E+02 0.  0.
          5    1    5    5  501    0  0.13525046223E+00 -0.58963673037E+02  0.17812492794E+03  0.18768940563E+03  0.47000000000E+01 0. -1.
        -13    1    6    6    0    0 -0.98929878454E+01 -0.28187449363E+02  0.32720496415E+03  0.32856581087E+03  0.00000000000E+00 0.  1.
         14    1    6    6    0    0  0.47566825461E+02  0.27671253863E+02  0.88164158028E+03  0.88335733271E+03  0.00000000000E+00 0. -1.
         -5    1    3    3    0  503  0.25637979715E+02  0.76282399282E+02  0.15683972196E+03  0.17634369518E+03  0.47000000000E+01 0.  1.
         11    1    4    4    0    0 -0.28815328808E+02 -0.46012804182E+02  0.77930392429E+02  0.94977088749E+02  0.00000000000E+00 0. -1.
        -12    1    4    4    0    0 -0.34631738984E+02  0.29210273436E+02  0.38556767563E+02  0.59491358567E+02  0.00000000000E+00 0.  1.
<mgrwt>
<rscale>  2 0.18735175E+03</rscale>
<asrwt>0</asrwt>
<pdfrwt beam="1">  1       21 0.26082479E+00 0.18768437E+03</pdfrwt>
<pdfrwt beam="2">  1       21 0.53943350E-02 0.18768437E+03</pdfrwt>
<totfact> 0.13653090E+04</totfact>
</mgrwt>
</event>
<event>
12    1  0.1026879E-001  0.1737981E+03  0.7546771E-02  0.1174318E+00
         21   -1    0    0  501  502  0.00000000000E+00  0.00000000000E+00  0.45783629053E+03  0.45783629053E+03  0.00000000000E+00 0.  1.
         21   -1    0    0  502  503 -0.00000000000E+00 -0.00000000000E+00 -0.86505383701E+02  0.86505383701E+02  0.00000000000E+00 0.  1.
         -6    2    1    2    0  503  0.14807853245E+02 -0.18041837311E+02  0.51885247627E+02  0.18137762948E+03  0.17222364862E+03 0.  0.
        -24    2    3    3    0    0 -0.37235211996E+02 -0.14669609288E+02  0.80503693528E+02  0.12170386634E+03  0.82032481139E+02 0.  0.
          6    2    1    2  501    0 -0.14807853245E+02  0.18041837311E+02  0.31944565920E+03  0.36296404475E+03  0.17074129022E+03 0.  0.
         24    2    5    5    0    0  0.52771719634E+02 -0.11384558423E+02  0.17432935445E+03  0.20013363193E+03  0.82147941180E+02 0.  0.
          5    1    5    5  501    0 -0.67579572879E+02  0.29426395735E+02  0.14511630475E+03  0.16283041283E+03  0.47000000000E+01 0. -1.
        -13    1    6    6    0    0  0.31693036972E+01 -0.19361028515E+02  0.13476494928E+03  0.13618548185E+03  0.00000000000E+00 0.  1.
         14    1    6    6    0    0  0.49602415937E+02  0.79764700916E+01  0.39564405171E+02  0.63948150078E+02  0.00000000000E+00 0. -1.
         -5    1    3    3    0  503  0.52043065241E+02 -0.33722280234E+01 -0.28618445901E+02  0.59673763140E+02  0.47000000000E+01 0.  1.
         11    1    4    4    0    0 -0.22367348768E+02  0.21272622506E+02 -0.15408534859E+01  0.30906261318E+02  0.00000000000E+00 0. -1.
        -12    1    4    4    0    0 -0.14867863228E+02 -0.35942231794E+02  0.82044547014E+02  0.90797605024E+02  0.00000000000E+00 0.  1.
<mgrwt>
<rscale>  2 0.17342969E+03</rscale>
<asrwt>0</asrwt>
<pdfrwt beam="1">  1       21 0.70436351E-01 0.17379806E+03</pdfrwt>
<pdfrwt beam="2">  1       21 0.13308521E-01 0.17379806E+03</pdfrwt>
<totfact> 0.89744016E+04</totfact>
</mgrwt>
</event>
<event>
12    1  0.1026879E-001  0.1809076E+03  0.7546771E-02  0.1167414E+00
         21   -1    0    0  501  502  0.00000000000E+00  0.00000000000E+00  0.17654512206E+03  0.17654512206E+03  0.00000000000E+00 0.  1.
         21   -1    0    0  502  503 -0.00000000000E+00 -0.00000000000E+00 -0.19121985308E+03  0.19121985308E+03  0.00000000000E+00 0.  1.
         -6    2    1    2    0  503 -0.24993071293E+02  0.40634976076E+02 -0.44666092177E+02  0.18438818453E+03  0.17241835143E+03 0.  0.
        -24    2    3    3    0    0 -0.51748932912E+02  0.83219689513E+02 -0.22157703823E+02  0.12908853267E+03  0.81051937965E+02 0.  0.
          6    2    1    2  501    0  0.24993071293E+02 -0.40634976076E+02  0.29991361158E+02  0.18337679061E+03  0.17450418533E+03 0.  0.
         24    2    5    5    0    0 -0.41155993821E+02 -0.53837165581E+02 -0.66677683323E+01  0.10646139294E+03  0.81837111553E+02 0.  0.
          5    1    5    5  501    0  0.66149065114E+02  0.13202189505E+02  0.36659129490E+02  0.76915397667E+02  0.47000000000E+01 0. -1.
        -11    1    6    6    0    0 -0.47415300358E+02 -0.41407537978E+02  0.28155451698E+02  0.68960310104E+02  0.00000000000E+00 0.  1.
         12    1    6    6    0    0  0.62593065360E+01 -0.12429627603E+02 -0.34823220030E+02  0.37501082837E+02  0.00000000000E+00 0. -1.
         -5    1    3    3    0  503  0.26755861619E+02 -0.42584713437E+02 -0.22508388354E+02  0.55299651859E+02  0.47000000000E+01 0.  1.
         13    1    4    4    0    0 -0.63918459101E+02  0.27179234210E+02 -0.72395482929E+01  0.69833310430E+02  0.00000000000E+00 0. -1.
        -14    1    4    4    0    0  0.12169526189E+02  0.56040455303E+02 -0.14918155530E+02  0.59255222240E+02  0.00000000000E+00 0.  1.
<mgrwt>
<rscale>  2 0.18040272E+03</rscale>
<asrwt>0</asrwt>
<pdfrwt beam="1">  1       21 0.27160788E-01 0.18090762E+03</pdfrwt>
<pdfrwt beam="2">  1       21 0.29418439E-01 0.18090762E+03</pdfrwt>
<totfact> 0.14358279E+05</totfact>
</mgrwt>
</event>
<event>
12    1  0.1026879E-001  0.1954096E+03  0.7546771E-02  0.1153982E+00
         21   -1    0    0  501  502  0.00000000000E+00  0.00000000000E+00  0.26174583174E+03  0.26174583174E+03  0.00000000000E+00 0.  1.
         21   -1    0    0  502  503 -0.00000000000E+00 -0.00000000000E+00 -0.19079085587E+03  0.19079085587E+03  0.00000000000E+00 0.  1.
         -6    2    1    2    0  503 -0.19107970875E+01  0.88755024217E+02  0.14644424280E+03  0.24305266491E+03  0.17247485672E+03 0.  0.
        -24    2    3    3    0    0 -0.55424764107E+02  0.71605336039E+02  0.14083149945E+03  0.18638301378E+03  0.81889486284E+02 0.  0.
          6    2    1    2  501    0  0.19107970875E+01 -0.88755024217E+02 -0.75489266931E+02  0.20948402271E+03  0.17407992670E+03 0.  0.
         24    2    5    5    0    0 -0.17577784460E+02 -0.68262994526E+02  0.19969651548E+02  0.10981344927E+03  0.81800927438E+02 0.  0.
          5    1    5    5  501    0  0.19488581547E+02 -0.20492029691E+02 -0.95458918479E+02  0.99670573435E+02  0.47000000000E+01 0. -1.
        -13    1    6    6    0    0 -0.22811552472E+01 -0.83675759180E+02  0.58487317258E+01  0.83910929004E+02  0.00000000000E+00 0.  1.
         14    1    6    6    0    0 -0.15296629213E+02  0.15412764654E+02  0.14120919823E+02  0.25902520267E+02  0.00000000000E+00 0. -1.
         -5    1    3    3    0  503  0.53513967019E+02  0.17149688178E+02  0.56127433514E+01  0.56669651125E+02  0.47000000000E+01 0.  1.
         13    1    4    4    0    0 -0.20628903348E+02 -0.13637346817E+02  0.55883004266E+02  0.61110056843E+02  0.00000000000E+00 0. -1.
        -14    1    4    4    0    0 -0.34795860758E+02  0.85242682856E+02  0.84948495187E+02  0.12527295694E+03  0.00000000000E+00 0.  1.
<mgrwt>
<rscale>  2 0.19505153E+03</rscale>
<asrwt>0</asrwt>
<pdfrwt beam="1">  1       21 0.40268589E-01 0.19540964E+03</pdfrwt>
<pdfrwt beam="2">  1       21 0.29352440E-01 0.19540964E+03</pdfrwt>
<totfact> 0.65993390E+04</totfact>
</mgrwt>
</event>
<event>
12    1  0.1026879E-001  0.1803239E+03  0.7546771E-02  0.1167835E+00
         21   -1    0    0  501  502  0.00000000000E+00  0.00000000000E+00  0.54980828199E+02  0.54980828199E+02  0.00000000000E+00 0. -1.
         21   -1    0    0  502  503 -0.00000000000E+00 -0.00000000000E+00 -0.58726943833E+03  0.58726943833E+03  0.00000000000E+00 0. -1.
         -6    2    1    2    0  503 -0.46387993637E+02  0.98828278124E+01 -0.27668574498E+03  0.33026006539E+03  0.17397469090E+03 0.  0.
        -24    2    3    3    0    0 -0.26680164789E+02  0.42796910465E+02 -0.27581892723E+03  0.29160030947E+03  0.80070301163E+02 0.  0.
          6    2    1    2  501    0  0.46387993637E+02 -0.98828278124E+01 -0.25560286515E+03  0.31199020114E+03  0.17249795563E+03 0.  0.
         24    2    5    5    0    0  0.89852692346E+01 -0.65221638269E+02 -0.10951358105E+03  0.15128700682E+03  0.80993436999E+02 0.  0.
          5    1    5    5  501    0  0.37402724402E+02  0.55338810456E+02 -0.14608928411E+03  0.16070319432E+03  0.47000000000E+01 0. -1.
        -13    1    6    6    0    0  0.32850266432E+02 -0.71801223144E+02 -0.75741314434E+02  0.10941344690E+03  0.00000000000E+00 0.  1.
         14    1    6    6    0    0 -0.23864997198E+02  0.65795848758E+01 -0.33772266612E+02  0.41873559922E+02  0.00000000000E+00 0. -1.
         -5    1    3    3    0  503 -0.19707828848E+02 -0.32914082652E+02 -0.86681775710E+00  0.38659755920E+02  0.47000000000E+01 0.  1.
         13    1    4    4    0    0  0.44924271573E+01 -0.85215653173E+01 -0.32476137582E+00  0.96386953044E+01  0.00000000000E+00 0. -1.
        -14    1    4    4    0    0 -0.31172591946E+02  0.51318475782E+02 -0.27549416585E+03  0.28196161417E+03  0.00000000000E+00 0.  1.
<mgrwt>
<rscale>  2 0.17996676E+03</rscale>
<asrwt>0</asrwt>
<pdfrwt beam="1">  1       21 0.84585893E-02 0.18032390E+03</pdfrwt>
<pdfrwt beam="2">  1       21 0.90349140E-01 0.18032390E+03</pdfrwt>
<totfact> 0.11391464E+05</totfact>
</mgrwt>
</event>
<event>
12    1  0.1026879E-001  0.1972154E+03  0.7546771E-02  0.1152135E+00
         21   -1    0    0  503  502  0.00000000000E+00  0.00000000000E+00  0.82360002313E+02  0.82360002313E+02  0.00000000000E+00 0.  1.
         21   -1    0    0  501  503 -0.00000000000E+00 -0.00000000000E+00 -0.78700711804E+03  0.78700711804E+03  0.00000000000E+00 0.  1.
          6    2    1    2  501    0 -0.93494213819E+02  0.52694161439E+01 -0.62741286268E+03  0.65767833779E+03  0.17356543716E+03 0.  0.
         24    2    3    3    0    0 -0.40312991038E+02  0.14816358703E+02 -0.57689090225E+03  0.58355718660E+03  0.76754251976E+02 0.  0.
         -6    2    1    2    0  502  0.93494213819E+02 -0.52694161439E+01 -0.77234253049E+02  0.21168878257E+03  0.17343032046E+03 0.  0.
        -24    2    5    5    0    0  0.49493225133E+02 -0.58591929286E+02 -0.87956764298E+02  0.14157145475E+03  0.80146683659E+02 0.  0.
          5    1    3    3  501    0 -0.53181222781E+02 -0.95469425587E+01 -0.50521960428E+02  0.74121151193E+02  0.47000000000E+01 0. -1.
        -13    1    4    4    0    0 -0.48699308667E+02 -0.19350635815E+02 -0.31847920323E+03  0.32276163443E+03  0.00000000000E+00 0.  1.
         14    1    4    4    0    0  0.83863176292E+01  0.34166994518E+02 -0.25841169902E+03  0.26079555216E+03  0.00000000000E+00 0. -1.
         -5    1    5    5    0  502  0.44000988686E+02  0.53322513142E+02  0.10722511248E+02  0.70117327820E+02  0.47000000000E+01 0.  1.
         11    1    6    6    0    0 -0.13119805323E+02 -0.41000957479E+02 -0.19868088767E+02  0.47412537974E+02  0.00000000000E+00 0. -1.
        -12    1    6    6    0    0  0.62613030456E+02 -0.17590971807E+02 -0.68088675530E+02  0.94158916771E+02  0.00000000000E+00 0.  1.
<mgrwt>
<rscale>  2 0.19718562E+03</rscale>
<asrwt>0</asrwt>
<pdfrwt beam="1">  1       21 0.12670769E-01 0.19721535E+03</pdfrwt>
<pdfrwt beam="2">  1       21 0.12107802E+00 0.19721535E+03</pdfrwt>
<totfact> 0.27418280E+04</totfact>
</mgrwt>
</event>
<event>
12    1  0.1026879E-001  0.2016342E+03  0.7546771E-02  0.1148824E+00
         21   -1    0    0  501  502  0.00000000000E+00  0.00000000000E+00  0.25507098527E+03  0.25507098527E+03  0.00000000000E+00 0. -1.
         21   -1    0    0  502  503 -0.00000000000E+00 -0.00000000000E+00 -0.11276510963E+04  0.11276510963E+04  0.00000000000E+00 0. -1.
         -6    2    1    2    0  503 -0.58419143089E+02  0.86999380493E+02 -0.10771637996E+04  0.10954750921E+04  0.16971192596E+03 0.  0.
        -24    2    3    3    0    0 -0.79919070737E+02  0.11248460418E+03 -0.76166845834E+03  0.77818792902E+03  0.79986051254E+02 0.  0.
          6    2    1    2  501    0  0.58419143089E+02 -0.86999380493E+02  0.20458368863E+03  0.28724698939E+03  0.17226334135E+03 0.  0.
         24    2    5    5    0    0 -0.20517610015E+02 -0.73422581511E+01  0.12298373879E+03  0.14847772065E+03  0.80285443570E+02 0.  0.
          5    1    5    5  501    0  0.78936753103E+02 -0.79657122342E+02  0.81599949848E+02  0.13876926874E+03  0.47000000000E+01 0. -1.
        -11    1    6    6    0    0  0.13806199567E+02 -0.29659156005E+02  0.21767974478E+02  0.39295310080E+02  0.00000000000E+00 0.  1.
         12    1    6    6    0    0 -0.34323809582E+02  0.22316897854E+02  0.10121576431E+03  0.10918241057E+03  0.00000000000E+00 0. -1.
         -5    1    3    3    0  503  0.21499927648E+02 -0.25485223687E+02 -0.31549534128E+03  0.31728716312E+03  0.47000000000E+01 0.  1.
         13    1    4    4    0    0 -0.54664112995E+02  0.94748825484E+02 -0.70698580519E+03  0.71539809471E+03  0.00000000000E+00 0. -1.
        -14    1    4    4    0    0 -0.25254957741E+02  0.17735778697E+02 -0.54682653150E+02  0.62789834305E+02  0.00000000000E+00 0.  1.
<mgrwt>
<rscale>  2 0.20108814E+03</rscale>
<asrwt>0</asrwt>
<pdfrwt beam="1">  1       21 0.39241690E-01 0.20163419E+03</pdfrwt>
<pdfrwt beam="2">  1       21 0.17348479E+00 0.20163419E+03</pdfrwt>
<totfact> 0.12513398E+03</totfact>
</mgrwt>
</event>
<event>
12    1  0.1026879E-001  0.2524212E+03  0.7546771E-02  0.1111821E+00
         21   -1    0    0  503  502  0.00000000000E+00  0.00000000000E+00  0.66017473031E+03  0.66017473031E+03  0.00000000000E+00 0. -1.
         21   -1    0    0  501  503 -0.00000000000E+00 -0.00000000000E+00 -0.10706732441E+03  0.10706732441E+03  0.00000000000E+00 0.  1.
          6    2    1    2  501    0  0.18185890252E+03  0.27369292641E+02  0.15572487105E+03  0.29659179240E+03  0.17290088851E+03 0.  0.
         24    2    3    3    0    0  0.78581163706E+02  0.19955045383E+02  0.15589253611E+03  0.19294151257E+03  0.79691538651E+02 0.  0.
         -6    2    1    2    0  502 -0.18185890252E+03 -0.27369292641E+02  0.39738253485E+03  0.47065026233E+03  0.17256028460E+03 0.  0.
        -24    2    5    5    0    0 -0.52035378276E+02  0.11436368099E+02  0.21446366052E+03  0.24296312756E+03  0.10098489275E+03 0.  0.
          5    1    3    3  501    0  0.10327773881E+03  0.74142472576E+01 -0.16766506107E+00  0.10365027983E+03  0.47000000000E+01 0. -1.
        -13    1    4    4    0    0  0.49283671905E+02  0.51050911715E+02  0.97827388560E+02  0.12085228114E+03  0.00000000000E+00 0.  1.
         14    1    4    4    0    0  0.29297491801E+02 -0.31095866332E+02  0.58065147546E+02  0.72089231431E+02  0.00000000000E+00 0. -1.
         -5    1    5    5    0  502 -0.12982352424E+03 -0.38805660740E+02  0.18291887432E+03  0.22768713476E+03  0.47000000000E+01 0.  1.
         13    1    6    6    0    0 -0.77187312515E+02  0.60910229200E+00  0.10619068540E+03  0.13128104922E+03  0.00000000000E+00 0. -1.
        -14    1    6    6    0    0  0.25151934239E+02  0.10827265807E+02  0.10827297512E+03  0.11168207834E+03  0.00000000000E+00 0.  1.
<mgrwt>
<rscale>  2 0.25236287E+03</rscale>
<asrwt>0</asrwt>
<pdfrwt beam="1">  1       21 0.10156534E+00 0.25242119E+03</pdfrwt>
<pdfrwt beam="2">  1       21 0.16471896E-01 0.25242119E+03</pdfrwt>
<totfact> 0.25328592E+04</totfact>
</mgrwt>
</event>
<event>
12    1  0.1026879E-001  0.2440200E+03  0.7546771E-02  0.1117289E+00
         21   -1    0    0  503  502  0.00000000000E+00  0.00000000000E+00  0.27121886363E+03  0.27121886363E+03  0.00000000000E+00 0. -1.
         21   -1    0    0  501  503 -0.00000000000E+00 -0.00000000000E+00 -0.23945303948E+03  0.23945303948E+03  0.00000000000E+00 0. -1.
          6    2    1    2  501    0  0.14702312528E+03 -0.90299248150E+02 -0.59171006520E+02  0.25109156649E+03  0.17255727503E+03 0.  0.
         24    2    3    3    0    0  0.43329777363E+02 -0.10962985715E+03 -0.35684602069E+02  0.14292648876E+03  0.72514930730E+02 0.  0.
         -6    2    1    2    0  502 -0.14702312528E+03  0.90299248150E+02  0.90936830669E+02  0.25958033661E+03  0.17129708229E+03 0.  0.
        -24    2    5    5    0    0 -0.13269585482E+03  0.45110425760E+02  0.18100443651E+02  0.17254856298E+03  0.99006263078E+02 0.  0.
          5    1    3    3  501    0  0.10369334792E+03  0.19330609001E+02 -0.23486404451E+02  0.10816507773E+03  0.47000000000E+01 0. -1.
        -13    1    4    4    0    0 -0.19395187866E+02 -0.16153248810E+02 -0.15268260818E+01  0.25286991861E+02  0.00000000000E+00 0.  1.
         14    1    4    4    0    0  0.62724965229E+02 -0.93476608341E+02 -0.34157775987E+02  0.11763949690E+03  0.00000000000E+00 0. -1.
         -5    1    5    5    0  502 -0.14327270462E+02  0.45188822390E+02  0.72836387018E+02  0.87031773633E+02  0.47000000000E+01 0.  1.
         13    1    6    6    0    0 -0.84900760771E+01  0.42599597537E+02  0.21078817298E+02  0.48281711246E+02  0.00000000000E+00 0. -1.
        -14    1    6    6    0    0 -0.12420577874E+03  0.25108282229E+01 -0.29783736475E+01  0.12426685174E+03  0.00000000000E+00 0.  1.
<mgrwt>
<rscale>  2 0.24379733E+03</rscale>
<asrwt>0</asrwt>
<pdfrwt beam="1">  1       21 0.41725979E-01 0.24402001E+03</pdfrwt>
<pdfrwt beam="2">  1       21 0.36838929E-01 0.24402001E+03</pdfrwt>
<totfact> 0.38339764E+04</totfact>
</mgrwt>
</event>
<event>
12    1  0.1026879E-001  0.1944201E+03  0.7546771E-02  0.1157066E+00
         21   -1    0    0  501  502  0.00000000000E+00  0.00000000000E+00  0.79675971967E+02  0.79675971967E+02  0.00000000000E+00 0.  1.
         21   -1    0    0  502  503 -0.00000000000E+00 -0.00000000000E+00 -0.45029024780E+03  0.45029024780E+03  0.00000000000E+00 0.  1.
         -6    2    1    2    0  503 -0.42686224437E+02 -0.48529797940E+02 -0.20084786440E+03  0.27185804765E+03  0.17143418094E+03 0.  0.
        -24    2    3    3    0    0  0.13815151115E+02 -0.37761748585E+02 -0.30974398601E+02  0.92449461713E+02  0.77270185361E+02 0.  0.
          6    2    1    2  501    0  0.42686224437E+02  0.48529797940E+02 -0.16976641144E+03  0.25810817212E+03  0.18336286161E+03 0.  0.
         24    2    5    5    0    0  0.44754601799E+02  0.10185089419E+03 -0.96487598943E+02  0.16733762705E+03  0.79469778207E+02 0.  0.
          5    1    5    5  501    0 -0.20683773622E+01 -0.53321096254E+02 -0.73278812493E+02  0.90770545062E+02  0.47000000000E+01 0. -1.
        -11    1    6    6    0    0  0.25453193142E+02  0.13230785452E+02  0.72036121050E+01  0.29577199870E+02  0.00000000000E+00 0.  1.
         12    1    6    6    0    0  0.19301408657E+02  0.88620108741E+02 -0.10369121105E+03  0.13776042718E+03  0.00000000000E+00 0. -1.
         -5    1    3    3    0  503 -0.56501375552E+02 -0.10768049355E+02 -0.16987346580E+03  0.17940858594E+03  0.47000000000E+01 0.  1.
         13    1    4    4    0    0 -0.22468387907E+02  0.43727074767E+01  0.83278573749E+01  0.24357796170E+02  0.00000000000E+00 0. -1.
        -14    1    4    4    0    0  0.36283539022E+02 -0.42134456062E+02 -0.39302255976E+02  0.68091665542E+02  0.00000000000E+00 0.  1.
<mgrwt>
<rscale>  2 0.19155563E+03</rscale>
<asrwt>0</asrwt>
<pdfrwt beam="1">  1       21 0.12257842E-01 0.19442015E+03</pdfrwt>
<pdfrwt beam="2">  1       21 0.69275423E-01 0.19442015E+03</pdfrwt>
<totfact> 0.10702768E+05</totfact>
</mgrwt>
</event>
<event>
12    1  0.1026879E-001  0.2038529E+03  0.7546771E-02  0.1146622E+00
         21   -1    0    0  503  502  0.00000000000E+00  0.00000000000E+00  0.10130709762E+04  0.10130709762E+04  0.00000000000E+00 0.  1.
         21   -1    0    0  501  503 -0.00000000000E+00 -0.00000000000E+00 -0.90243771438E+02  0.90243771438E+02  0.00000000000E+00 0.  1.
          6    2    1    2  501    0  0.16445202217E+02  0.10567162688E+03  0.53843457532E+02  0.21084384478E+03  0.17354847034E+03 0.  0.
         24    2    3    3    0    0  0.54717501882E+02  0.12517733034E+03  0.54417728642E+02  0.16762739911E+03  0.80462952321E+02 0.  0.
         -6    2    1    2    0  502 -0.16445202217E+02 -0.10567162688E+03  0.86898374723E+03  0.89247090286E+03  0.17301624807E+03 0.  0.
        -24    2    5    5    0    0  0.17965298991E+02 -0.32525312073E+02  0.20523433967E+03  0.22380070613E+03  0.81147852647E+02 0.  0.
          5    1    3    3  501    0 -0.38272299665E+02 -0.19505703465E+02 -0.57427110930E+00  0.43216445673E+02  0.47000000000E+01 0. -1.
        -11    1    4    4    0    0  0.12175506383E+02  0.11353903906E+03  0.43465542624E+02  0.12218269002E+03  0.00000000000E+00 0.  1.
         12    1    4    4    0    0  0.42541995499E+02  0.11638291288E+02  0.10952186017E+02  0.45444709084E+02  0.00000000000E+00 0. -1.
         -5    1    5    5    0  502 -0.34410501208E+02 -0.73146314805E+02  0.66374940756E+03  0.66867019673E+03  0.47000000000E+01 0.  1.
         13    1    6    6    0    0 -0.17202268863E+02  0.16283701665E+02  0.98222450562E+02  0.10103824419E+03  0.00000000000E+00 0. -1.
        -14    1    6    6    0    0  0.35167567854E+02 -0.48809013738E+02  0.10701188911E+03  0.12276246194E+03  0.00000000000E+00 0.  1.
<mgrwt>
<rscale>  2 0.20373959E+03</rscale>
<asrwt>0</asrwt>
<pdfrwt beam="1">  1       21 0.15585707E+00 0.20385291E+03</pdfrwt>
<pdfrwt beam="2">  1       21 0.13883658E-01 0.20385291E+03</pdfrwt>
<totfact> 0.12090611E+04</totfact>
</mgrwt>
</event>
<event>
12    1  0.1026879E-001  0.2207435E+03  0.7546771E-02  0.1133524E+00
         21   -1    0    0  503  502  0.00000000000E+00  0.00000000000E+00  0.67794793539E+03  0.67794793539E+03  0.00000000000E+00 0. -1.
         21   -1    0    0  501  503 -0.00000000000E+00 -0.00000000000E+00 -0.74437623254E+02  0.74437623254E+02  0.00000000000E+00 0. -1.
          6    2    1    2  501    0  0.12124771127E+03 -0.62704913125E+02  0.22817180997E+03  0.31747453874E+03  0.17347851240E+03 0.  0.
         24    2    3    3    0    0  0.47769161483E+02 -0.61775447152E+02  0.47743274450E+02  0.12259891785E+03  0.81565775569E+02 0.  0.
         -6    2    1    2    0  502 -0.12124771127E+03  0.62704913125E+02  0.37533850216E+03  0.43491101990E+03  0.17215019722E+03 0.  0.
        -24    2    5    5    0    0 -0.15403065609E+03  0.56856463883E+02  0.28894323222E+03  0.34220094225E+03  0.81579365844E+02 0.  0.
          5    1    3    3  501    0  0.73478549791E+02 -0.92946597228E+00  0.18042853552E+03  0.19487562089E+03  0.47000000000E+01 0. -1.
        -13    1    4    4    0    0 -0.23264080734E+02 -0.18191739419E+02  0.14107556921E+02  0.32728886290E+02  0.00000000000E+00 0.  1.
         14    1    4    4    0    0  0.71033242217E+02 -0.43583707733E+02  0.33635717529E+02  0.89870031564E+02  0.00000000000E+00 0. -1.
         -5    1    5    5    0  502  0.32782944813E+02  0.58484492412E+01  0.86395269937E+02  0.92710077643E+02  0.47000000000E+01 0.  1.
         13    1    6    6    0    0 -0.11823833117E+02  0.28755792004E+02  0.20872745163E+02  0.37448232188E+02  0.00000000000E+00 0. -1.
        -14    1    6    6    0    0 -0.14220682297E+03  0.28100671879E+02  0.26807048706E+03  0.30475271006E+03  0.00000000000E+00 0.  1.
<mgrwt>
<rscale>  2 0.22048248E+03</rscale>
<asrwt>0</asrwt>
<pdfrwt beam="1">  1       21 0.10429968E+00 0.22074353E+03</pdfrwt>
<pdfrwt beam="2">  1       21 0.11451942E-01 0.22074353E+03</pdfrwt>
<totfact> 0.46689196E+04</totfact>
</mgrwt>
</event>
<event>
12    1  0.1026879E-001  0.1808390E+03  0.7546771E-02  0.1170289E+00
         21   -1    0    0  501  502  0.00000000000E+00  0.00000000000E+00  0.82039284017E+02  0.82039284017E+02  0.00000000000E+00 0. -1.
         21   -1    0    0  502  503 -0.00000000000E+00 -0.00000000000E+00 -0.84582747856E+03  0.84582747856E+03  0.00000000000E+00 0. -1.
         -6    2    1    2    0  503  0.14337694067E+02  0.51579184887E+02 -0.73601125505E+03  0.75790192152E+03  0.17273324315E+03 0.  0.
        -24    2    3    3    0    0  0.47123995924E+02  0.86268598595E+02 -0.42814761684E+03  0.44632463295E+03  0.78945260038E+02 0.  0.
          6    2    1    2  501    0 -0.14337694067E+02 -0.51579184887E+02 -0.27776939487E+02  0.16996484106E+03  0.15890408127E+03 0.  0.
         24    2    5    5    0    0 -0.14481004155E+02  0.15628760807E+02  0.20634942717E+02  0.87002627726E+02  0.81790578459E+02 0.  0.
          5    1    5    5  501    0  0.14331008806E+00 -0.67207945694E+02 -0.48411882204E+02  0.82962213331E+02  0.47000000000E+01 0. -1.
        -11    1    6    6    0    0  0.24563704406E+02  0.32612766147E+02  0.30719602484E+01  0.40943925430E+02  0.00000000000E+00 0.  1.
         12    1    6    6    0    0 -0.39044708561E+02 -0.16984005340E+02  0.17562982468E+02  0.46058702296E+02  0.00000000000E+00 0. -1.
         -5    1    3    3    0  503 -0.32786301857E+02 -0.34689413707E+02 -0.30786363822E+03  0.31157728856E+03  0.47000000000E+01 0.  1.
         13    1    4    4    0    0  0.22566557146E+02  0.50242934789E+02 -0.36765318267E+03  0.37175592090E+03  0.00000000000E+00 0. -1.
        -14    1    4    4    0    0  0.24557438778E+02  0.36025663806E+02 -0.60494434168E+02  0.74568712054E+02  0.00000000000E+00 0.  1.
<mgrwt>
<rscale>  2 0.17745542E+03</rscale>
<asrwt>0</asrwt>
<pdfrwt beam="1">  1       21 0.12621430E-01 0.18083903E+03</pdfrwt>
<pdfrwt beam="2">  1       21 0.13012729E+00 0.18083903E+03</pdfrwt>
<totfact> 0.23286122E+04</totfact>
</mgrwt>
</event>
<event>
12    1  0.1026879E-001  0.2269640E+03  0.7546771E-02  0.1130179E+00
         21   -1    0    0  501  502  0.00000000000E+00  0.00000000000E+00  0.56934196295E+03  0.56934196295E+03  0.00000000000E+00 0. -1.
         21   -1    0    0  502  503 -0.00000000000E+00 -0.00000000000E+00 -0.17683831057E+03  0.17683831057E+03  0.00000000000E+00 0. -1.
         -6    2    1    2    0  503  0.11882655449E+03 -0.81871986155E+02  0.46310146731E+03  0.51572824359E+03  0.17518527350E+03 0.  0.
        -24    2    3    3    0    0  0.11888150834E+03 -0.13595409490E+02  0.22001722672E+03  0.26319362822E+03  0.80905239005E+02 0.  0.
          6    2    1    2  501    0 -0.11882655449E+03  0.81871986155E+02 -0.70597814919E+02  0.23045202993E+03  0.16523109410E+03 0.  0.
         24    2    5    5    0    0 -0.97088960262E+02  0.55858112846E+02  0.14474668319E+02  0.13875327306E+03  0.80601239357E+02 0.  0.
          5    1    5    5  501    0 -0.21737594228E+02  0.26013873308E+02 -0.85072483238E+02  0.91698756870E+02  0.47000000000E+01 0. -1.
        -13    1    6    6    0    0  0.13761644543E+02  0.86221180992E+01 -0.43120629064E+01  0.16802311375E+02  0.00000000000E+00 0.  1.
         14    1    6    6    0    0 -0.11085060480E+03  0.47235994747E+02  0.18786731225E+02  0.12195096168E+03  0.00000000000E+00 0. -1.
         -5    1    3    3    0  503 -0.54953845684E-01 -0.68276576665E+02  0.24308424059E+03  0.25253461537E+03  0.47000000000E+01 0.  1.
         11    1    4    4    0    0  0.65275672502E+02 -0.14773373208E+02  0.46277179877E+02  0.81367950410E+02  0.00000000000E+00 0. -1.
        -12    1    4    4    0    0  0.53605835833E+02  0.11779637178E+01  0.17374004684E+03  0.18182567781E+03  0.00000000000E+00 0.  1.
<mgrwt>
<rscale>  2 0.22504172E+03</rscale>
<asrwt>0</asrwt>
<pdfrwt beam="1">  1       21 0.87591070E-01 0.22696399E+03</pdfrwt>
<pdfrwt beam="2">  1       21 0.27205894E-01 0.22696399E+03</pdfrwt>
<totfact> 0.14099395E+04</totfact>
</mgrwt>
</event>
<event>
12    1  0.1026879E-001  0.2074017E+03  0.7546771E-02  0.1143947E+00
         21   -1    0    0  501  502  0.00000000000E+00  0.00000000000E+00  0.20884195811E+03  0.20884195811E+03  0.00000000000E+00 0.  1.
         21   -1    0    0  502  503 -0.00000000000E+00 -0.00000000000E+00 -0.30162944382E+03  0.30162944382E+03  0.00000000000E+00 0. -1.
         -6    2    1    2    0  503  0.99181277920E+02 -0.51343710394E+02 -0.19114057872E+03  0.28093099789E+03  0.17295780485E+03 0.  0.
        -24    2    3    3    0    0  0.58205830609E+02 -0.90336883595E+02 -0.17707247848E+03  0.22245488069E+03  0.81134703150E+02 0.  0.
          6    2    1    2  501    0 -0.99181277920E+02  0.51343710394E+02  0.98353093003E+02  0.22954040403E+03  0.17476373678E+03 0.  0.
         24    2    5    5    0    0 -0.12080932184E+03  0.67243357905E+02  0.11489398101E+03  0.19766153876E+03  0.82176003849E+02 0.  0.
          5    1    5    5  501    0  0.21628043921E+02 -0.15899647511E+02 -0.16540888006E+02  0.31878865269E+02  0.47000000000E+01 0. -1.
        -13    1    6    6    0    0 -0.39188633053E+02  0.65563931567E+02  0.37191130907E+02  0.84956214023E+02  0.00000000000E+00 0.  1.
         14    1    6    6    0    0 -0.81620688788E+02  0.16794263383E+01  0.77702850101E+02  0.11270532474E+03  0.00000000000E+00 0. -1.
         -5    1    3    3    0  503  0.40975447311E+02  0.38993173201E+02 -0.14068100241E+02  0.58476117202E+02  0.47000000000E+01 0.  1.
         11    1    4    4    0    0  0.33884288931E+02 -0.60144827295E+01 -0.99649036174E+02  0.10542414073E+03  0.00000000000E+00 0. -1.
        -12    1    4    4    0    0  0.24321541677E+02 -0.84322400865E+02 -0.77423442301E+02  0.11703073996E+03  0.00000000000E+00 0.  1.
<mgrwt>
<rscale>  2 0.20702079E+03</rscale>
<asrwt>0</asrwt>
<pdfrwt beam="1">  1       21 0.32129532E-01 0.20740170E+03</pdfrwt>
<pdfrwt beam="2">  1       21 0.46404530E-01 0.20740170E+03</pdfrwt>
<totfact> 0.41138473E+04</totfact>
</mgrwt>
</event>
<event>
12    1  0.1026879E-001  0.2801522E+03  0.7546771E-02  0.1095622E+00
         21   -1    0    0  503  502  0.00000000000E+00  0.00000000000E+00  0.20825622590E+03  0.20825622590E+03  0.00000000000E+00 0. -1.
         21   -1    0    0  501  503 -0.00000000000E+00 -0.00000000000E+00 -0.37925909399E+03  0.37925909399E+03  0.00000000000E+00 0.  1.
          6    2    1    2  501    0  0.14082866136E+03 -0.16778276946E+03 -0.10956441010E+03  0.30070535717E+03  0.17445796710E+03 0.  0.
         24    2    3    3    0    0  0.72237546210E+02 -0.12196757756E+03  0.46483832961E+01  0.15974286194E+03  0.73497084413E+02 0.  0.
         -6    2    1    2    0  502 -0.14082866136E+03  0.16778276946E+03 -0.61438457986E+02  0.28680996272E+03  0.17464678928E+03 0.  0.
        -24    2    5    5    0    0 -0.14021733537E+03  0.14495219372E+03  0.28192144384E+01  0.21845246588E+03  0.83913600074E+02 0.  0.
          5    1    3    3  501    0  0.68591115153E+02 -0.45815191903E+02 -0.11421279339E+03  0.14096249523E+03  0.47000000000E+01 0. -1.
        -13    1    4    4    0    0  0.16564540451E+02 -0.10673733006E+02 -0.24985442726E+02  0.31821139591E+02  0.00000000000E+00 0.  1.
         14    1    4    4    0    0  0.55673005759E+02 -0.11129384455E+03  0.29633826022E+02  0.12792172235E+03  0.00000000000E+00 0. -1.
         -5    1    5    5    0  502 -0.61132599608E+00  0.22830575735E+02 -0.64257672425E+02  0.68357496833E+02  0.47000000000E+01 0.  1.
         11    1    6    6    0    0  0.89223422488E+01  0.25118282579E+02 -0.43048794843E+01  0.27001264753E+02  0.00000000000E+00 0. -1.
        -12    1    6    6    0    0 -0.14913967762E+03  0.11983391115E+03  0.71240939226E+01  0.19145120113E+03  0.00000000000E+00 0.  1.
<mgrwt>
<rscale>  2 0.28012280E+03</rscale>
<asrwt>0</asrwt>
<pdfrwt beam="1">  1       21 0.32039420E-01 0.28015223E+03</pdfrwt>
<pdfrwt beam="2">  1       21 0.58347552E-01 0.28015223E+03</pdfrwt>
<totfact> 0.24689639E+04</totfact>
</mgrwt>
</event>
<event>
12    1  0.1026879E-001  0.1766922E+03  0.7546771E-02  0.1171079E+00
         21   -1    0    0  503  502  0.00000000000E+00  0.00000000000E+00  0.38520489809E+03  0.38520489809E+03  0.00000000000E+00 0. -1.
         21   -1    0    0  501  503 -0.00000000000E+00 -0.00000000000E+00 -0.11608187795E+03  0.11608187795E+03  0.00000000000E+00 0.  1.
          6    2    1    2  501    0  0.25321462572E+02 -0.24345626989E+02 -0.33028227374E+01  0.17657773955E+03  0.17301706115E+03 0.  0.
         24    2    3    3    0    0  0.74086826362E+02 -0.47490707712E+02 -0.19351509001E+02  0.12006751218E+03  0.79356798200E+02 0.  0.
         -6    2    1    2    0  502 -0.25321462572E+02  0.24345626989E+02  0.27242584288E+03  0.32470903648E+03  0.17316533281E+03 0.  0.
        -24    2    5    5    0    0  0.49102317782E+02 -0.16443236612E+01  0.11520563338E+03  0.14876966940E+03  0.80289072468E+02 0.  0.
          5    1    3    3  501    0 -0.48765363790E+02  0.23145080723E+02  0.16048686263E+02  0.56510227376E+02  0.47000000000E+01 0. -1.
        -11    1    4    4    0    0  0.24961515536E+02  0.11455893960E+02 -0.32139394833E+02  0.42275944276E+02  0.00000000000E+00 0.  1.
         12    1    4    4    0    0  0.49125310827E+02 -0.58946601672E+02  0.12787885832E+02  0.77791567901E+02  0.00000000000E+00 0. -1.
         -5    1    5    5    0  502 -0.74423780354E+02  0.25989950650E+02  0.15722020949E+03  0.17593936708E+03  0.47000000000E+01 0.  1.
         11    1    6    6    0    0  0.30085693680E+02 -0.26640792212E+02  0.10977045474E+03  0.11689496785E+03  0.00000000000E+00 0. -1.
        -12    1    6    6    0    0  0.19016624102E+02  0.24996468551E+02  0.54351786446E+01  0.31874701554E+02  0.00000000000E+00 0.  1.
<mgrwt>
<rscale>  2 0.17665582E+03</rscale>
<asrwt>0</asrwt>
<pdfrwt beam="1">  1       21 0.59262292E-01 0.17669216E+03</pdfrwt>
<pdfrwt beam="2">  1       21 0.17858751E-01 0.17669216E+03</pdfrwt>
<totfact> 0.76312570E+04</totfact>
</mgrwt>
</event>
<event>
12    1  0.1026879E-001  0.2732554E+03  0.7546771E-02  0.1101365E+00
         21   -1    0    0  501  502  0.00000000000E+00  0.00000000000E+00  0.56553247225E+03  0.56553247225E+03  0.00000000000E+00 0.  1.
         21   -1    0    0  502  503 -0.00000000000E+00 -0.00000000000E+00 -0.12731355463E+03  0.12731355463E+03  0.00000000000E+00 0. -1.
         -6    2    1    2    0  503  0.10344447666E+03  0.16487128560E+03  0.26407967886E+03  0.38000869059E+03  0.19179475376E+03 0.  0.
        -24    2    3    3    0    0  0.70419027977E+02  0.18913960083E+03  0.18101406138E+03  0.28726378134E+03  0.94982953986E+02 0.  0.
          6    2    1    2  501    0 -0.10344447666E+03 -0.16487128560E+03  0.17413923876E+03  0.31283733628E+03  0.17221911605E+03 0.  0.
         24    2    5    5    0    0 -0.14603920394E+02 -0.11281945714E+03  0.15417902250E+03  0.20784906305E+03  0.80551583678E+02 0.  0.
          5    1    5    5  501    0 -0.88840556262E+02 -0.52051828458E+02  0.19960216263E+02  0.10498827323E+03  0.47000000000E+01 0. -1.
        -11    1    6    6    0    0 -0.19049100797E+02  0.40210146665E+01  0.39678572113E+02  0.44197577818E+02  0.00000000000E+00 0.  1.
         12    1    6    6    0    0  0.44451804029E+01 -0.11684047181E+03  0.11450045039E+03  0.16365148524E+03  0.00000000000E+00 0. -1.
         -5    1    3    3    0  503  0.33025448678E+02 -0.24268315232E+02  0.83065617477E+02  0.92744909248E+02  0.47000000000E+01 0.  1.
         13    1    4    4    0    0 -0.20135336209E+02  0.51733274503E+02  0.67269103112E+02  0.87217519390E+02  0.00000000000E+00 0. -1.
        -14    1    4    4    0    0  0.90554364187E+02  0.13740632633E+03  0.11374495827E+03  0.20004626195E+03  0.00000000000E+00 0.  1.
<mgrwt>
<rscale>  2 0.26985093E+03</rscale>
<asrwt>0</asrwt>
<pdfrwt beam="1">  1       21 0.87004995E-01 0.27325543E+03</pdfrwt>
<pdfrwt beam="2">  1       21 0.19586701E-01 0.27325543E+03</pdfrwt>
<totfact> 0.26178751E+04</totfact>
</mgrwt>
</event>
<event>
12    1  0.1026879E-001  0.2090234E+03  0.7546771E-02  0.1142815E+00
         21   -1    0    0  503  502  0.00000000000E+00  0.00000000000E+00  0.19481019377E+03  0.19481019377E+03  0.00000000000E+00 0. -1.
         21   -1    0    0  501  503 -0.00000000000E+00 -0.00000000000E+00 -0.68572560708E+03  0.68572560708E+03  0.00000000000E+00 0. -1.
          6    2    1    2  501    0  0.94335134720E+02  0.61992298363E+02 -0.60805792961E+03  0.64298149932E+03  0.17592214188E+03 0.  0.
         24    2    3    3    0    0  0.63821928235E+02  0.78955523982E+02 -0.24337849474E+03  0.27660466188E+03  0.83485531569E+02 0.  0.
         -6    2    1    2    0  502 -0.94335134720E+02 -0.61992298363E+02  0.11714251630E+03  0.23755430154E+03  0.17311127738E+03 0.  0.
        -24    2    5    5    0    0 -0.10616181226E+03 -0.83583464662E+02  0.13318205874E+03  0.20779853427E+03  0.84771717744E+02 0.  0.
          5    1    3    3  501    0  0.30513206485E+02 -0.16963225620E+02 -0.36467943487E+03  0.36637683744E+03  0.47000000000E+01 0. -1.
        -11    1    4    4    0    0  0.52046425101E+02  0.36127234951E+02 -0.57719099122E+02  0.85705903382E+02  0.00000000000E+00 0.  1.
         12    1    4    4    0    0  0.11775503134E+02  0.42828289031E+02 -0.18565939561E+03  0.19089875850E+03  0.00000000000E+00 0. -1.
         -5    1    5    5    0  502  0.11826677542E+02  0.21591166300E+02 -0.16039542437E+02  0.29755767264E+02  0.47000000000E+01 0.  1.
         11    1    6    6    0    0 -0.69699129994E+02 -0.13157573348E+02  0.98157893693E+02  0.12110351998E+03  0.00000000000E+00 0. -1.
        -12    1    6    6    0    0 -0.36462682268E+02 -0.70425891314E+02  0.35024165042E+02  0.86695014288E+02  0.00000000000E+00 0.  1.
<mgrwt>
<rscale>  2 0.20843080E+03</rscale>
<asrwt>0</asrwt>
<pdfrwt beam="1">  1       21 0.29970799E-01 0.20902335E+03</pdfrwt>
<pdfrwt beam="2">  1       21 0.10549625E+00 0.20902335E+03</pdfrwt>
<totfact> 0.76203335E+03</totfact>
</mgrwt>
</event>
<event>
12    1  0.1026879E-001  0.1729497E+03  0.7546771E-02  0.1175222E+00
         21   -1    0    0  503  502  0.00000000000E+00  0.00000000000E+00  0.42429060334E+03  0.42429060334E+03  0.00000000000E+00 0. -1.
         21   -1    0    0  501  503 -0.00000000000E+00 -0.00000000000E+00 -0.87147838543E+02  0.87147838543E+02  0.00000000000E+00 0. -1.
          6    2    1    2  501    0  0.78392707357E+01 -0.12804377918E+01  0.55243203726E+02  0.18155826283E+03  0.17276717732E+03 0.  0.
         24    2    3    3    0    0 -0.62595544957E+02 -0.33258325627E+01  0.21318486436E+02  0.10321144832E+03  0.79176144067E+02 0.  0.
         -6    2    1    2    0  502 -0.78392707357E+01  0.12804377918E+01  0.28189956107E+03  0.32988017905E+03  0.17114460643E+03 0.  0.
        -24    2    5    5    0    0 -0.23862312932E+02  0.46240208174E+02  0.25888407691E+03  0.27668317401E+03  0.82613840682E+02 0.  0.
          5    1    3    3  501    0  0.70434815693E+02  0.20453947709E+01  0.33924717291E+02  0.78346814515E+02  0.47000000000E+01 0. -1.
        -13    1    4    4    0    0 -0.24333356696E+02  0.34302761728E+02  0.25832853882E+02  0.49357147911E+02  0.00000000000E+00 0.  1.
         14    1    4    4    0    0 -0.38262188262E+02 -0.37628594291E+02 -0.45143674466E+01  0.53854300407E+02  0.00000000000E+00 0. -1.
         -5    1    5    5    0  502  0.16023042196E+02 -0.44959770382E+02  0.23015484162E+02  0.53197005040E+02  0.47000000000E+01 0.  1.
         13    1    6    6    0    0 -0.50786530539E+02  0.18473616819E+02  0.19159236668E+03  0.19906828268E+03  0.00000000000E+00 0. -1.
        -14    1    6    6    0    0  0.26924217607E+02  0.27766591355E+02  0.67291710237E+02  0.77614891328E+02  0.00000000000E+00 0.  1.
<mgrwt>
<rscale>  2 0.17254304E+03</rscale>
<asrwt>0</asrwt>
<pdfrwt beam="1">  1       21 0.65275477E-01 0.17294968E+03</pdfrwt>
<pdfrwt beam="2">  1       21 0.13407360E-01 0.17294968E+03</pdfrwt>
<totfact> 0.10462181E+05</totfact>
</mgrwt>
</event>
<event>
12    1  0.1026879E-001  0.1910311E+03  0.7546771E-02  0.1157998E+00
         21   -1    0    0  503  502  0.00000000000E+00  0.00000000000E+00  0.54135633514E+03  0.54135633514E+03  0.00000000000E+00 0. -1.
         21   -1    0    0  501  503 -0.00000000000E+00 -0.00000000000E+00 -0.75261521272E+02  0.75261521272E+02  0.00000000000E+00 0.  1.
          6    2    1    2  501    0 -0.52668755014E+02 -0.58456298803E+02  0.13009897794E+03  0.23112470509E+03  0.17407397456E+03 0.  0.
         24    2    3    3    0    0 -0.69392538179E+02 -0.73229372628E+02  0.26803169851E+02  0.12534170739E+03  0.69384928674E+02 0.  0.
         -6    2    1    2    0  502  0.52668755014E+02  0.58456298803E+02  0.33599583592E+03  0.38549315131E+03  0.17181569000E+03 0.  0.
        -24    2    5    5    0    0 -0.14831194073E+02  0.17525406668E+02  0.26923082830E+03  0.28199804370E+03  0.80688001259E+02 0.  0.
          5    1    3    3  501    0  0.16723783165E+02  0.14773073825E+02  0.10329580809E+03  0.10578299770E+03  0.47000000000E+01 0. -1.
        -11    1    4    4    0    0 -0.55834697875E+02 -0.10509757240E+02  0.29781644858E+01  0.56893215305E+02  0.00000000000E+00 0.  1.
         12    1    4    4    0    0 -0.13557840304E+02 -0.62719615388E+02  0.23825005365E+02  0.68448492086E+02  0.00000000000E+00 0. -1.
         -5    1    5    5    0  502  0.67499949087E+02  0.40930892135E+02  0.66765007624E+02  0.10349510762E+03  0.47000000000E+01 0.  1.
         11    1    6    6    0    0 -0.33508007717E+02  0.20077195101E+02  0.57999411274E+02  0.69927191081E+02  0.00000000000E+00 0. -1.
        -12    1    6    6    0    0  0.18676813644E+02 -0.25517884332E+01  0.21123141702E+03  0.21207085262E+03  0.00000000000E+00 0.  1.
<mgrwt>
<rscale>  2 0.19051514E+03</rscale>
<asrwt>0</asrwt>
<pdfrwt beam="1">  1       21 0.83285588E-01 0.19103111E+03</pdfrwt>
<pdfrwt beam="2">  1       21 0.11578696E-01 0.19103111E+03</pdfrwt>
<totfact> 0.78578680E+04</totfact>
</mgrwt>
</event>
<event>
12    1  0.1026879E-001  0.1973534E+03  0.7546771E-02  0.1155332E+00
         21   -1    0    0  501  502  0.00000000000E+00  0.00000000000E+00  0.24404561364E+03  0.24404561364E+03  0.00000000000E+00 0.  1.
         21   -1    0    0  502  503 -0.00000000000E+00 -0.00000000000E+00 -0.16716750216E+03  0.16716750216E+03  0.00000000000E+00 0.  1.
         -6    2    1    2    0  503  0.39552734310E+02  0.42234347235E+02 -0.30244132074E+02  0.19965738063E+03  0.18868016122E+03 0.  0.
        -24    2    3    3    0    0 -0.40876294669E+02  0.41339089055E+02 -0.58456304466E+02  0.11428966507E+03  0.79152992740E+02 0.  0.
          6    2    1    2  501    0 -0.39552734310E+02 -0.42234347235E+02  0.10712224355E+03  0.21155573517E+03  0.17301010127E+03 0.  0.
         24    2    5    5    0    0 -0.87702861571E+02 -0.36037000838E+02  0.10465841071E+03  0.16271924953E+03  0.80831391663E+02 0.  0.
          5    1    5    5  501    0  0.48150127262E+02 -0.61973463967E+01  0.24638328421E+01  0.48836485643E+02  0.47000000000E+01 0. -1.
        -13    1    6    6    0    0 -0.69942524950E+02  0.12073520561E+02  0.75925464178E+02  0.10393460832E+03  0.00000000000E+00 0.  1.
         14    1    6    6    0    0 -0.17760336622E+02 -0.48110521399E+02  0.28732946528E+02  0.58784641212E+02  0.00000000000E+00 0. -1.
         -5    1    3    3    0  503  0.80429028979E+02  0.89525818031E+00  0.28212172391E+02  0.85367715565E+02  0.47000000000E+01 0.  1.
         11    1    4    4    0    0  0.40177480318E+01  0.16213691502E+02  0.16432654501E+02  0.23431991493E+02  0.00000000000E+00 0. -1.
        -12    1    4    4    0    0 -0.44894042701E+02  0.25125397552E+02 -0.74888958967E+02  0.90857673574E+02  0.00000000000E+00 0.  1.
<mgrwt>
<rscale>  2 0.19351179E+03</rscale>
<asrwt>0</asrwt>
<pdfrwt beam="1">  1       21 0.37545479E-01 0.19735339E+03</pdfrwt>
<pdfrwt beam="2">  1       21 0.25718077E-01 0.19735339E+03</pdfrwt>
<totfact> 0.97981878E+04</totfact>
</mgrwt>
</event>
<event>
12    1  0.1026879E-001  0.2383603E+03  0.7546771E-02  0.1122432E+00
         21   -1    0    0  501  502  0.00000000000E+00  0.00000000000E+00  0.80115713314E+03  0.80115713314E+03  0.00000000000E+00 0. -1.
         21   -1    0    0  502  503 -0.00000000000E+00 -0.00000000000E+00 -0.82384262513E+02  0.82384262513E+02  0.00000000000E+00 0. -1.
         -6    2    1    2    0  503  0.16166642190E+03  0.28240274686E+02  0.18226828157E+03  0.30006226530E+03  0.17286437315E+03 0.  0.
        -24    2    3    3    0    0  0.16668069018E+03 -0.15318096247E+02  0.11049355102E+03  0.21582345886E+03  0.79711003171E+02 0.  0.
          6    2    1    2  501    0 -0.16166642190E+03 -0.28240274686E+02  0.53650458906E+03  0.58347913036E+03  0.16024099474E+03 0.  0.
         24    2    5    5    0    0 -0.88618614815E+02 -0.48152367876E+02  0.44804630779E+03  0.46694831426E+03  0.84399791718E+02 0.  0.
          5    1    5    5  501    0 -0.73047807088E+02  0.19912093190E+02  0.88458281278E+02  0.11653081611E+03  0.47000000000E+01 0. -1.
        -11    1    6    6    0    0 -0.92287472027E+02 -0.36486409893E+02  0.25674725409E+03  0.27525876568E+03  0.00000000000E+00 0.  1.
         12    1    6    6    0    0  0.36688572126E+01 -0.11665957983E+02  0.19129905369E+03  0.19168954858E+03  0.00000000000E+00 0. -1.
         -5    1    3    3    0  503 -0.50142682740E+01  0.43558370933E+02  0.71774730548E+02  0.84238806437E+02  0.47000000000E+01 0.  1.
         13    1    4    4    0    0  0.57685720499E+02 -0.62074981345E+01  0.85997503767E+02  0.10373883572E+03  0.00000000000E+00 0. -1.
        -14    1    4    4    0    0  0.10899496968E+03 -0.91105981127E+01  0.24496047252E+02  0.11208462314E+03  0.00000000000E+00 0.  1.
<mgrwt>
<rscale>  2 0.23608029E+03</rscale>
<asrwt>0</asrwt>
<pdfrwt beam="1">  1       21 0.12325494E+00 0.23836031E+03</pdfrwt>
<pdfrwt beam="2">  1       21 0.12674502E-01 0.23836031E+03</pdfrwt>
<totfact> 0.25608930E+04</totfact>
</mgrwt>
</event>
<event>
12    1  0.1026879E-001  0.2119547E+03  0.7546771E-02  0.1140649E+00
         21   -1    0    0  503  502  0.00000000000E+00  0.00000000000E+00  0.37348853342E+03  0.37348853342E+03  0.00000000000E+00 0.  1.
         21   -1    0    0  501  503 -0.00000000000E+00 -0.00000000000E+00 -0.11850841151E+03  0.11850841151E+03  0.00000000000E+00 0.  1.
          6    2    1    2  501    0  0.54720152149E+02 -0.10272742558E+03  0.13044715714E+03  0.24887996317E+03  0.17713711142E+03 0.  0.
         24    2    3    3    0    0  0.24361440855E+02  0.18838928759E+02  0.50027533824E+02  0.99918774687E+02  0.80824639542E+02 0.  0.
         -6    2    1    2    0  502 -0.54720152149E+02  0.10272742558E+03  0.12453296477E+03  0.24311698176E+03  0.17334990190E+03 0.  0.
        -24    2    5    5    0    0 -0.88477659629E+02  0.10376005446E+03  0.60631284773E+02  0.17068666808E+03  0.82845282375E+02 0.  0.
          5    1    3    3  501    0  0.30358711294E+02 -0.12156635434E+03  0.80419623320E+02  0.14896118848E+03  0.47000000000E+01 0. -1.
        -13    1    4    4    0    0  0.63808837064E+01 -0.17020831133E+02 -0.14963561629E+02  0.23544267794E+02  0.00000000000E+00 0.  1.
         14    1    4    4    0    0  0.17980557148E+02  0.35859759892E+02  0.64991095453E+02  0.76374506893E+02  0.00000000000E+00 0. -1.
         -5    1    5    5    0  502  0.33757507480E+02 -0.10326288827E+01  0.63901679995E+02  0.72430313680E+02  0.47000000000E+01 0.  1.
         11    1    6    6    0    0 -0.29759313925E+02  0.46940010402E+01 -0.14244183042E+02  0.33324873016E+02  0.00000000000E+00 0. -1.
        -12    1    6    6    0    0 -0.58718345704E+02  0.99066053422E+02  0.74875467814E+02  0.13736179506E+03  0.00000000000E+00 0.  1.
<mgrwt>
<rscale>  2 0.21116153E+03</rscale>
<asrwt>0</asrwt>
<pdfrwt beam="1">  1       21 0.57459774E-01 0.21195465E+03</pdfrwt>
<pdfrwt beam="2">  1       21 0.18232063E-01 0.21195465E+03</pdfrwt>
<totfact> 0.77287505E+04</totfact>
</mgrwt>
</event>
<event>
12    1  0.1026879E-001  0.2503089E+03  0.7546771E-02  0.1113240E+00
         21   -1    0    0  501  502  0.00000000000E+00  0.00000000000E+00  0.24415517202E+03  0.24415517202E+03  0.00000000000E+00 0. -1.
         21   -1    0    0  502  503 -0.00000000000E+00 -0.00000000000E+00 -0.34759244292E+03  0.34759244292E+03  0.00000000000E+00 0.  1.
         -6    2    1    2    0  503 -0.17444642767E+03 -0.45315418286E+02 -0.20372572169E+03  0.32209537969E+03  0.17249991500E+03 0.  0.
        -24    2    3    3    0    0 -0.68894542914E+02  0.26390616865E+02 -0.14311114698E+03  0.18074767889E+03  0.82134038822E+02 0.  0.
          6    2    1    2  501    0  0.17444642767E+03  0.45315418286E+02  0.10028845079E+03  0.26965223525E+03  0.17369372859E+03 0.  0.
         24    2    5    5    0    0  0.19156255501E+03  0.68169490231E+02  0.10065356392E+03  0.24071275138E+03  0.80425100963E+02 0.  0.
          5    1    5    5  501    0 -0.17116127336E+02 -0.22854071944E+02 -0.36511312656E+00  0.28939483876E+02  0.47000000000E+01 0. -1.
        -11    1    6    6    0    0  0.10058360347E+02  0.11535451716E+02 -0.12231814149E+02  0.19592206015E+02  0.00000000000E+00 0.  1.
         12    1    6    6    0    0  0.18150419466E+03  0.56634038515E+02  0.11288537807E+03  0.22112054536E+03  0.00000000000E+00 0. -1.
         -5    1    3    3    0  503 -0.10555188476E+03 -0.71706035152E+02 -0.60614574716E+02  0.14134770080E+03  0.47000000000E+01 0.  1.
         13    1    4    4    0    0 -0.11590826643E+02  0.45909952355E+02 -0.44157402743E+02  0.64745248509E+02  0.00000000000E+00 0. -1.
        -14    1    4    4    0    0 -0.57303716271E+02 -0.19519335489E+02 -0.98953744234E+02  0.11600243038E+03  0.00000000000E+00 0.  1.
<mgrwt>
<rscale>  2 0.25010193E+03</rscale>
<asrwt>0</asrwt>
<pdfrwt beam="1">  1       21 0.37562334E-01 0.25030892E+03</pdfrwt>
<pdfrwt beam="2">  1       21 0.53475761E-01 0.25030892E+03</pdfrwt>
<totfact> 0.21937497E+04</totfact>
</mgrwt>
</event>
<event>
12    1  0.1026879E-001  0.2070109E+03  0.7546771E-02  0.1144148E+00
         21   -1    0    0  501  502  0.00000000000E+00  0.00000000000E+00  0.54389346845E+03  0.54389346845E+03  0.00000000000E+00 0.  1.
         21   -1    0    0  502  503 -0.00000000000E+00 -0.00000000000E+00 -0.80976899764E+02  0.80976899764E+02  0.00000000000E+00 0.  1.
         -6    2    1    2    0  503 -0.55076404599E+02  0.99515287009E+02  0.17653939249E+03  0.27206554434E+03  0.17296473809E+03 0.  0.
        -24    2    3    3    0    0 -0.78385947323E+02  0.96036189701E+02  0.70487130003E+02  0.16332451584E+03  0.79618813787E+02 0.  0.
          6    2    1    2  501    0  0.55076404599E+02 -0.99515287009E+02  0.28637717619E+03  0.35280482387E+03  0.17182157609E+03 0.  0.
         24    2    5    5    0    0 -0.29945923019E+02 -0.17434278158E+02  0.95444121816E+02  0.12820827568E+03  0.78275597745E+02 0.  0.
          5    1    5    5  501    0  0.85022327618E+02 -0.82081008851E+02  0.19093305438E+03  0.22459654820E+03  0.47000000000E+01 0. -1.
        -13    1    6    6    0    0 -0.14490237255E+02 -0.42513509148E+02  0.86424871237E+02  0.97399300840E+02  0.00000000000E+00 0.  1.
         14    1    6    6    0    0 -0.15455685764E+02  0.25079230990E+02  0.90192505792E+01  0.30808974837E+02  0.00000000000E+00 0. -1.
         -5    1    3    3    0  503  0.23309542723E+02  0.34790973080E+01  0.10605226249E+03  0.10874102850E+03  0.47000000000E+01 0.  1.
         11    1    4    4    0    0 -0.43970495515E+02  0.62510179908E+02 -0.18929071126E+01  0.76449396108E+02  0.00000000000E+00 0. -1.
        -12    1    4    4    0    0 -0.34415451808E+02  0.33526009793E+02  0.72380037116E+02  0.86875119733E+02  0.00000000000E+00 0.  1.
<mgrwt>
<rscale>  2 0.20677192E+03</rscale>
<asrwt>0</asrwt>
<pdfrwt beam="1">  1       21 0.83675916E-01 0.20701088E+03</pdfrwt>
<pdfrwt beam="2">  1       21 0.12457985E-01 0.20701088E+03</pdfrwt>
<totfact> 0.67700638E+04</totfact>
</mgrwt>
</event>
<event>
12    1  0.1026879E-001  0.2427970E+03  0.7546771E-02  0.1117992E+00
         21   -1    0    0  503  502  0.00000000000E+00  0.00000000000E+00  0.42283432048E+03  0.42283432048E+03  0.00000000000E+00 0. -1.
         21   -1    0    0  501  503 -0.00000000000E+00 -0.00000000000E+00 -0.18585507656E+03  0.18585507656E+03  0.00000000000E+00 0.  1.
          6    2    1    2  501    0 -0.16600737955E+03  0.15903248154E+02 -0.33862191801E+02  0.24514695223E+03  0.17646250816E+03 0.  0.
         24    2    3    3    0    0 -0.42905883995E+02  0.40550279714E+02 -0.60601201456E+02  0.11670039131E+03  0.80381811676E+02 0.  0.
         -6    2    1    2    0  502  0.16600737955E+03 -0.15903248154E+02  0.27084143573E+03  0.36354244481E+03  0.17605869051E+03 0.  0.
        -24    2    5    5    0    0  0.10628129847E+03  0.21925964970E+02  0.73222216065E+02  0.15360507294E+03  0.80352742104E+02 0.  0.
          5    1    3    3  501    0 -0.12310149556E+03 -0.24647031560E+02  0.26739009655E+02  0.12844656091E+03  0.47000000000E+01 0. -1.
        -11    1    4    4    0    0 -0.43136549218E+02  0.54763254083E+02 -0.18299054187E+02  0.72073790384E+02  0.00000000000E+00 0.  1.
         12    1    4    4    0    0  0.23066522332E+00 -0.14212974368E+02 -0.42302147270E+02  0.44626600929E+02  0.00000000000E+00 0. -1.
         -5    1    5    5    0  502  0.59726081082E+02 -0.37829213124E+02  0.19761921966E+03  0.20993737187E+03  0.47000000000E+01 0.  1.
         11    1    6    6    0    0  0.30053038098E+02  0.45815981474E+02  0.24377292275E+02  0.59971173376E+02  0.00000000000E+00 0. -1.
        -12    1    6    6    0    0  0.76228260373E+02 -0.23890016504E+02  0.48844923790E+02  0.93633899567E+02  0.00000000000E+00 0.  1.
<mgrwt>
<rscale>  2 0.24272363E+03</rscale>
<asrwt>0</asrwt>
<pdfrwt beam="1">  1       21 0.65051434E-01 0.24279699E+03</pdfrwt>
<pdfrwt beam="2">  1       21 0.28593089E-01 0.24279699E+03</pdfrwt>
<totfact> 0.24783201E+04</totfact>
</mgrwt>
</event>
<event>
12    1  0.1026879E-001  0.1799650E+03  0.7546771E-02  0.1167931E+00
         21   -1    0    0  503  502  0.00000000000E+00  0.00000000000E+00  0.12078480332E+04  0.12078480332E+04  0.00000000000E+00 0.  1.
         21   -1    0    0  501  503 -0.00000000000E+00 -0.00000000000E+00 -0.28314894351E+02  0.28314894351E+02  0.00000000000E+00 0.  1.
          6    2    1    2  501    0  0.39316495779E+02  0.29123669718E+02  0.44414152444E+03  0.47907097583E+03  0.17278116554E+03 0.  0.
         24    2    3    3    0    0  0.23426401481E+02  0.73485390360E+01  0.44332901718E+03  0.45169577572E+03  0.82979871113E+02 0.  0.
         -6    2    1    2    0  502 -0.39316495779E+02 -0.29123669718E+02  0.73539161437E+03  0.75709195170E+03  0.17318609024E+03 0.  0.
        -24    2    5    5    0    0  0.10381194717E+02 -0.72100988477E+02  0.35171949945E+03  0.36780633401E+03  0.79174309593E+02 0.  0.
          5    1    3    3  501    0  0.15890094298E+02  0.21775130682E+02  0.81250726054E+00  0.27375200110E+02  0.47000000000E+01 0. -1.
        -11    1    4    4    0    0  0.43619442212E+02 -0.11155103142E+02  0.13839950328E+03  0.14553870473E+03  0.00000000000E+00 0.  1.
         12    1    4    4    0    0 -0.20193040731E+02  0.18503642178E+02  0.30492951390E+03  0.30615707099E+03  0.00000000000E+00 0. -1.
         -5    1    5    5    0  502 -0.49697690495E+02  0.42977318759E+02  0.38367211492E+03  0.38928561769E+03  0.47000000000E+01 0.  1.
         13    1    6    6    0    0  0.24358162952E+02  0.77519968377E+01  0.10691361846E+03  0.10992695470E+03  0.00000000000E+00 0. -1.
        -14    1    6    6    0    0 -0.13976968235E+02 -0.79852985315E+02  0.24480588099E+03  0.25787937931E+03  0.00000000000E+00 0.  1.
<mgrwt>
<rscale>  2 0.17986750E+03</rscale>
<asrwt>0</asrwt>
<pdfrwt beam="1">  1       21 0.18582273E+00 0.17996499E+03</pdfrwt>
<pdfrwt beam="2">  1       21 0.43561385E-02 0.17996499E+03</pdfrwt>
<totfact> 0.56886320E+04</totfact>
</mgrwt>
</event>
<event>
12    1  0.1026879E-001  0.1904326E+03  0.7546771E-02  0.1158159E+00
         21   -1    0    0  503  502  0.00000000000E+00  0.00000000000E+00  0.31715164937E+03  0.31715164937E+03  0.00000000000E+00 0. -1.
         21   -1    0    0  501  503 -0.00000000000E+00 -0.00000000000E+00 -0.28174884874E+03  0.28174884874E+03  0.00000000000E+00 0.  1.
          6    2    1    2  501    0 -0.49922348269E+00 -0.79415649547E+02 -0.21327384305E+03  0.28592012451E+03  0.17308232392E+03 0.  0.
         24    2    3    3    0    0  0.21947800761E+02 -0.75201603312E+02 -0.54790352647E+02  0.12573044377E+03  0.81665014845E+02 0.  0.
         -6    2    1    2    0  502  0.49922348269E+00  0.79415649547E+02  0.24867664369E+03  0.31298037360E+03  0.17265441357E+03 0.  0.
        -24    2    5    5    0    0 -0.54956533595E+02  0.47046813466E+02  0.21354856036E+03  0.23963765221E+03  0.81176311105E+02 0.  0.
          5    1    3    3  501    0 -0.22447024243E+02 -0.42140462343E+01 -0.15848349041E+03  0.16018968074E+03  0.47000000000E+01 0. -1.
        -13    1    4    4    0    0  0.86434432425E+01  0.17485430547E+02 -0.10392921233E+02  0.22101181060E+02  0.00000000000E+00 0.  1.
         14    1    4    4    0    0  0.13304357518E+02 -0.92687033859E+02 -0.44397431413E+02  0.10362926271E+03  0.00000000000E+00 0. -1.
         -5    1    5    5    0  502  0.55455757077E+02  0.32368836081E+02  0.35128083332E+02  0.73342721390E+02  0.47000000000E+01 0.  1.
         13    1    6    6    0    0  0.12027304833E+02  0.35805136980E+02  0.50953485231E+02  0.63426505129E+02  0.00000000000E+00 0. -1.
        -14    1    6    6    0    0 -0.66983838428E+02  0.11241676486E+02  0.16259507512E+03  0.17621114708E+03  0.00000000000E+00 0.  1.
<mgrwt>
<rscale>  2 0.19033534E+03</rscale>
<asrwt>0</asrwt>
<pdfrwt beam="1">  1       21 0.48792561E-01 0.19043263E+03</pdfrwt>
<pdfrwt beam="2">  1       21 0.43345977E-01 0.19043263E+03</pdfrwt>
<totfact> 0.20540729E+04</totfact>
</mgrwt>
</event>
<event>
12    1  0.1026879E-001  0.1992696E+03  0.7546771E-02  0.1151478E+00
         21   -1    0    0  501  502  0.00000000000E+00  0.00000000000E+00  0.38417386361E+03  0.38417386361E+03  0.00000000000E+00 0.  1.
         21   -1    0    0  502  503 -0.00000000000E+00 -0.00000000000E+00 -0.10142573581E+03  0.10142573581E+03  0.00000000000E+00 0.  1.
         -6    2    1    2    0  503 -0.62500464622E+02  0.76183009101E+02  0.11858784228E+03  0.22741947205E+03  0.16717171106E+03 0.  0.
        -24    2    3    3    0    0  0.29384401392E+02  0.39499143120E+02  0.67077256573E+02  0.11577734262E+03  0.80507200680E+02 0.  0.
          6    2    1    2  501    0  0.62500464622E+02 -0.76183009101E+02  0.16416028552E+03  0.25818012738E+03  0.17319994190E+03 0.  0.
         24    2    5    5    0    0  0.10148610985E+03 -0.24897037965E+02  0.86275849593E+02  0.15699610329E+03  0.79277747418E+02 0.  0.
          5    1    5    5  501    0 -0.38985645224E+02 -0.51285971136E+02  0.77884435932E+02  0.10118402408E+03  0.47000000000E+01 0. -1.
        -13    1    6    6    0    0  0.36336182745E+02 -0.45752438687E+02  0.20013605789E+02  0.61758790783E+02  0.00000000000E+00 0.  1.
         14    1    6    6    0    0  0.65149927101E+02  0.20855400723E+02  0.66262243803E+02  0.95237312512E+02  0.00000000000E+00 0. -1.
         -5    1    3    3    0  503 -0.91884866014E+02  0.36683865981E+02  0.51510585702E+02  0.11164212944E+03  0.47000000000E+01 0.  1.
         11    1    4    4    0    0 -0.21241444035E+02  0.23411195815E+02  0.51485910945E+02  0.60415908998E+02  0.00000000000E+00 0. -1.
        -12    1    4    4    0    0  0.50625845427E+02  0.16087947305E+02  0.15591345628E+02  0.55361433617E+02  0.00000000000E+00 0.  1.
<mgrwt>
<rscale>  2 0.19795244E+03</rscale>
<asrwt>0</asrwt>
<pdfrwt beam="1">  1       21 0.59103670E-01 0.19926961E+03</pdfrwt>
<pdfrwt beam="2">  1       21 0.15603960E-01 0.19926961E+03</pdfrwt>
<totfact> 0.97425595E+04</totfact>
</mgrwt>
</event>
<event>
12    1  0.1026879E-001  0.2489923E+03  0.7546771E-02  0.1114255E+00
         21   -1    0    0  503  502  0.00000000000E+00  0.00000000000E+00  0.72729957270E+03  0.72729957270E+03  0.00000000000E+00 0.  1.
         21   -1    0    0  501  503 -0.00000000000E+00 -0.00000000000E+00 -0.10160829958E+03  0.10160829958E+03  0.00000000000E+00 0. -1.
          6    2    1    2  501    0 -0.61612964941E+02  0.17017369687E+03  0.14213054277E+03  0.28500701543E+03  0.16814476830E+03 0.  0.
         24    2    3    3    0    0 -0.79825074377E+02  0.99200316400E+02  0.32488745615E+02  0.15305128290E+03  0.78462929679E+02 0.  0.
         -6    2    1    2    0  502  0.61612964941E+02 -0.17017369687E+03  0.48356073036E+03  0.54390085685E+03  0.17100268297E+03 0.  0.
        -24    2    5    5    0    0  0.36604911545E+01 -0.64408284608E+02  0.11225111862E+03  0.15346811050E+03  0.82403403987E+02 0.  0.
          5    1    3    3  501    0  0.18212109436E+02  0.70973380466E+02  0.10964179715E+03  0.13195573253E+03  0.47000000000E+01 0. -1.
        -11    1    4    4    0    0 -0.76076730679E+01  0.69126727703E+00  0.29919530911E+02  0.30879327549E+02  0.00000000000E+00 0.  1.
         12    1    4    4    0    0 -0.72217401309E+02  0.98509049123E+02  0.25692147039E+01  0.12217195535E+03  0.00000000000E+00 0. -1.
         -5    1    5    5    0  502  0.57952473786E+02 -0.10576541226E+03  0.37130961174E+03  0.39043274635E+03  0.47000000000E+01 0.  1.
         11    1    6    6    0    0 -0.24604467204E+02 -0.22280995006E+02  0.93776713760E+02  0.99478111102E+02  0.00000000000E+00 0. -1.
        -12    1    6    6    0    0  0.28264958359E+02 -0.42127289602E+02  0.18474404855E+02  0.53989999398E+02  0.00000000000E+00 0.  1.
<mgrwt>
<rscale>  2 0.24850234E+03</rscale>
<asrwt>0</asrwt>
<pdfrwt beam="1">  1       21 0.11189224E+00 0.24899229E+03</pdfrwt>
<pdfrwt beam="2">  1       21 0.15632047E-01 0.24899229E+03</pdfrwt>
<totfact> 0.22087848E+04</totfact>
</mgrwt>
</event>
<event>
12    1  0.1026879E-001  0.1932734E+03  0.7546771E-02  0.1155671E+00
         21   -1    0    0  501  502  0.00000000000E+00  0.00000000000E+00  0.55887567360E+03  0.55887567360E+03  0.00000000000E+00 0.  1.
         21   -1    0    0  502  503 -0.00000000000E+00 -0.00000000000E+00 -0.11315002788E+03  0.11315002788E+03  0.00000000000E+00 0.  1.
         -6    2    1    2    0  503 -0.73479648939E+02  0.43531811650E+02  0.76256621950E+01  0.19342379637E+03  0.17337917073E+03 0.  0.
        -24    2    3    3    0    0 -0.74220257116E+02  0.75954775043E+02  0.48895519062E+02  0.14072571157E+03  0.78327387892E+02 0.  0.
          6    2    1    2  501    0  0.73479648939E+02 -0.43531811650E+02  0.43809998353E+03  0.47860190512E+03  0.17272495645E+03 0.  0.
         24    2    5    5    0    0  0.98260364432E+02 -0.69038305881E+02  0.25246051335E+03  0.28952845908E+03  0.75292967267E+02 0.  0.
          5    1    5    5  501    0 -0.24780715493E+02  0.25506494231E+02  0.18563947017E+03  0.18907344603E+03  0.47000000000E+01 0. -1.
        -11    1    6    6    0    0  0.13228780582E+02  0.14002998413E+02  0.62947211574E+02  0.65828839008E+02  0.00000000000E+00 0.  1.
         12    1    6    6    0    0  0.85031583851E+02 -0.83041304294E+02  0.18951330178E+03  0.22369962008E+03  0.00000000000E+00 0. -1.
         -5    1    3    3    0  503  0.74060817610E+00 -0.32422963393E+02 -0.41269856867E+02  0.52698084799E+02  0.47000000000E+01 0.  1.
         11    1    4    4    0    0 -0.51421917349E+02  0.20031070753E+02  0.57530090281E+02  0.79719311758E+02  0.00000000000E+00 0. -1.
        -12    1    4    4    0    0 -0.22798339766E+02  0.55923704291E+02 -0.86345712196E+01  0.61006399811E+02  0.00000000000E+00 0.  1.
<mgrwt>
<rscale>  2 0.19312659E+03</rscale>
<asrwt>0</asrwt>
<pdfrwt beam="1">  1       21 0.85980872E-01 0.19327342E+03</pdfrwt>
<pdfrwt beam="2">  1       21 0.17407697E-01 0.19327342E+03</pdfrwt>
<totfact> 0.34848003E+04</totfact>
</mgrwt>
</event>
<event>
12    1  0.1026879E-001  0.1975050E+03  0.7546771E-02  0.1151978E+00
         21   -1    0    0  503  502  0.00000000000E+00  0.00000000000E+00  0.16532038918E+04  0.16532038918E+04  0.00000000000E+00 0. -1.
         21   -1    0    0  501  503 -0.00000000000E+00 -0.00000000000E+00 -0.29782266486E+02  0.29782266486E+02  0.00000000000E+00 0.  1.
          6    2    1    2  501    0 -0.95825123954E+02 -0.19861904197E+02  0.42528643431E+03  0.46868134769E+03  0.17092894677E+03 0.  0.
         24    2    3    3    0    0 -0.42868056245E+02 -0.15526234524E+02  0.84285805419E+02  0.12353388941E+03  0.77960186206E+02 0.  0.
         -6    2    1    2    0  502  0.95825123954E+02  0.19861904197E+02  0.11981351910E+04  0.12143048106E+04  0.17155549393E+03 0.  0.
        -24    2    5    5    0    0  0.97379629197E+02 -0.27392675303E+02  0.10663258055E+04  0.10741933696E+04  0.81286660317E+02 0.  0.
          5    1    3    3  501    0 -0.52957067708E+02 -0.43356696733E+01  0.34100062889E+03  0.34514745828E+03  0.47000000000E+01 0. -1.
        -13    1    4    4    0    0 -0.63311887404E+02 -0.21352113880E+02  0.51069011728E+02  0.84097275893E+02  0.00000000000E+00 0.  1.
         14    1    4    4    0    0  0.20443831159E+02  0.58258793562E+01  0.33216793690E+02  0.39436613518E+02  0.00000000000E+00 0. -1.
         -5    1    5    5    0  502 -0.15545052433E+01  0.47254579500E+02  0.13180938559E+03  0.14011144100E+03  0.47000000000E+01 0.  1.
         11    1    6    6    0    0  0.46108291661E+02  0.26044803277E+02  0.33960485269E+03  0.34370883361E+03  0.00000000000E+00 0. -1.
        -12    1    6    6    0    0  0.51271337536E+02 -0.53437478580E+02  0.72672095277E+03  0.73048453602E+03  0.00000000000E+00 0.  1.
<mgrwt>
<rscale>  2 0.19736889E+03</rscale>
<asrwt>0</asrwt>
<pdfrwt beam="1">  1       21 0.25433899E+00 0.19750503E+03</pdfrwt>
<pdfrwt beam="2">  1       21 0.45818885E-02 0.19750503E+03</pdfrwt>
<totfact> 0.19468827E+04</totfact>
</mgrwt>
</event>
<event>
12    1  0.1026879E-001  0.1936692E+03  0.7546771E-02  0.1155357E+00
         21   -1    0    0  503  502  0.00000000000E+00  0.00000000000E+00  0.61449812207E+03  0.61449812207E+03  0.00000000000E+00 0. -1.
         21   -1    0    0  501  503 -0.00000000000E+00 -0.00000000000E+00 -0.77597048520E+02  0.77597048520E+02  0.00000000000E+00 0.  1.
          6    2    1    2  501    0  0.58126173660E+01 -0.85673266743E+02  0.10787043933E+03  0.22168399875E+03  0.17359167164E+03 0.  0.
         24    2    3    3    0    0  0.45511545571E+01 -0.80274377452E+02  0.14496830381E+03  0.18388081313E+03  0.79571701291E+02 0.  0.
         -6    2    1    2    0  502 -0.58126173660E+01  0.85673266743E+02  0.42903063422E+03  0.47041117184E+03  0.17275905285E+03 0.  0.
        -24    2    5    5    0    0 -0.19812333842E+02  0.12455046600E+03  0.30803120271E+03  0.34246438170E+03  0.80580914212E+02 0.  0.
          5    1    3    3  501    0  0.12614628088E+01 -0.53988892911E+01 -0.37097864476E+02  0.37803185615E+02  0.47000000000E+01 0. -1.
        -13    1    4    4    0    0  0.33090776129E+02 -0.71575680641E+01  0.34205041551E+02  0.48127072557E+02  0.00000000000E+00 0.  1.
         14    1    4    4    0    0 -0.28539621572E+02 -0.73116809388E+02  0.11076326226E+03  0.13575374058E+03  0.00000000000E+00 0. -1.
         -5    1    5    5    0  502  0.13999716476E+02 -0.38877199253E+02  0.12099943151E+03  0.12794679015E+03  0.47000000000E+01 0.  1.
         11    1    6    6    0    0 -0.28415238471E+02  0.29087815691E+02  0.16745095029E+03  0.17231757761E+03  0.00000000000E+00 0. -1.
        -12    1    6    6    0    0  0.86029046296E+01  0.95462650306E+02  0.14058025242E+03  0.17014680409E+03  0.00000000000E+00 0.  1.
<mgrwt>
<rscale>  2 0.19348245E+03</rscale>
<asrwt>0</asrwt>
<pdfrwt beam="1">  1       21 0.94538169E-01 0.19366921E+03</pdfrwt>
<pdfrwt beam="2">  1       21 0.11938008E-01 0.19366921E+03</pdfrwt>
<totfact> 0.55470413E+04</totfact>
</mgrwt>
</event>
<event>
12    1  0.1026879E-001  0.2072631E+03  0.7546771E-02  0.1143911E+00
         21   -1    0    0  501  502  0.00000000000E+00  0.00000000000E+00  0.26117126011E+03  0.26117126011E+03  0.00000000000E+00 0. -1.
         21   -1    0    0  502  503 -0.00000000000E+00 -0.00000000000E+00 -0.25348266348E+03  0.25348266348E+03  0.00000000000E+00 0.  1.
         -6    2    1    2    0  503  0.53595999755E+02  0.98756283026E+02 -0.14917302379E+03  0.25472401569E+03  0.17322355070E+03 0.  0.
        -24    2    3    3    0    0  0.13224487228E+02  0.10018799319E+03 -0.35514492936E+02  0.13400839759E+03  0.80526085053E+02 0.  0.
          6    2    1    2  501    0 -0.53595999755E+02 -0.98756283026E+02  0.15686162042E+03  0.25992990790E+03  0.17416272401E+03 0.  0.
         24    2    5    5    0    0 -0.10151554154E+03 -0.90446779524E+02  0.12479212076E+03  0.20148443638E+03  0.80850971542E+02 0.  0.
          5    1    5    5  501    0  0.47919541785E+02 -0.83095035020E+01  0.32069499665E+02  0.58445471527E+02  0.47000000000E+01 0. -1.
        -11    1    6    6    0    0  0.39635181100E+01 -0.40145023535E+02  0.22568547880E+02  0.46224146762E+02  0.00000000000E+00 0.  1.
         12    1    6    6    0    0 -0.10547905965E+03 -0.50301755989E+02  0.10222357288E+03  0.15526028962E+03  0.00000000000E+00 0. -1.
         -5    1    3    3    0  503  0.40371512526E+02 -0.14317101671E+01 -0.11365853085E+03  0.12071561810E+03  0.47000000000E+01 0.  1.
         13    1    4    4    0    0 -0.17325008278E+02 -0.27352917296E+00 -0.22203553609E+02  0.28164312931E+02  0.00000000000E+00 0. -1.
        -14    1    4    4    0    0  0.30549495506E+02  0.10046152237E+03 -0.13310939328E+02  0.10584408466E+03  0.00000000000E+00 0.  1.
<mgrwt>
<rscale>  2 0.20706567E+03</rscale>
<asrwt>0</asrwt>
<pdfrwt beam="1">  1       21 0.40180194E-01 0.20726309E+03</pdfrwt>
<pdfrwt beam="2">  1       21 0.38997333E-01 0.20726309E+03</pdfrwt>
<totfact> 0.37557050E+04</totfact>
</mgrwt>
</event>
<event>
12    1  0.1026879E-001  0.1857732E+03  0.7546771E-02  0.1162388E+00
         21   -1    0    0  501  502  0.00000000000E+00  0.00000000000E+00  0.92732957380E+02  0.92732957380E+02  0.00000000000E+00 0. -1.
         21   -1    0    0  502  503 -0.00000000000E+00 -0.00000000000E+00 -0.41647201912E+03  0.41647201912E+03  0.00000000000E+00 0. -1.
         -6    2    1    2    0  503 -0.24203248507E+02  0.60790570284E+02 -0.24547931900E+03  0.30785028106E+03  0.17386894150E+03 0.  0.
        -24    2    3    3    0    0  0.90539830198E+01  0.33618162303E+02 -0.37333577127E+02  0.95268242624E+02  0.80436848685E+02 0.  0.
          6    2    1    2  501    0  0.24203248507E+02 -0.60790570284E+02 -0.78259742734E+02  0.20135469544E+03  0.17360252120E+03 0.  0.
         24    2    5    5    0    0 -0.85143816524E+01  0.13438933737E+02  0.85272684020E+01  0.82465932754E+02  0.80466242137E+02 0.  0.
          5    1    5    5  501    0  0.32717630160E+02 -0.74229504021E+02 -0.86787011136E+02  0.11888876268E+03  0.47000000000E+01 0. -1.
        -11    1    6    6    0    0  0.15661118954E+02 -0.19178518295E+02  0.28050831902E+02  0.37415710354E+02  0.00000000000E+00 0.  1.
         12    1    6    6    0    0 -0.24175500606E+02  0.32617452032E+02 -0.19523563500E+02  0.45050222400E+02  0.00000000000E+00 0. -1.
         -5    1    3    3    0  503 -0.33257231527E+02  0.27172407981E+02 -0.20814574188E+03  0.21258203844E+03  0.47000000000E+01 0.  1.
         13    1    4    4    0    0  0.38038344154E+02  0.36158507453E+02 -0.65144565758E+01  0.52884699410E+02  0.00000000000E+00 0. -1.
        -14    1    4    4    0    0 -0.28984361134E+02 -0.25403451496E+01 -0.30819120551E+02  0.42383543214E+02  0.00000000000E+00 0.  1.
<mgrwt>
<rscale>  2 0.18571089E+03</rscale>
<asrwt>0</asrwt>
<pdfrwt beam="1">  1       21 0.14266609E-01 0.18577325E+03</pdfrwt>
<pdfrwt beam="2">  1       21 0.64072620E-01 0.18577325E+03</pdfrwt>
<totfact> 0.96881380E+04</totfact>
</mgrwt>
</event>
<event>
12    1  0.1026879E-001  0.1760704E+03  0.7546771E-02  0.1172908E+00
         21   -1    0    0  501  502  0.00000000000E+00  0.00000000000E+00  0.99314194419E+02  0.99314194419E+02  0.00000000000E+00 0.  1.
         21   -1    0    0  502  503 -0.00000000000E+00 -0.00000000000E+00 -0.31062696484E+03  0.31062696484E+03  0.00000000000E+00 0.  1.
         -6    2    1    2    0  503  0.11018507263E+02 -0.16271349736E+02 -0.13530077400E+03  0.21816367337E+03  0.17000860158E+03 0.  0.
        -24    2    3    3    0    0 -0.94284340986E+00 -0.74356171351E+02 -0.80398807214E+02  0.13721161121E+03  0.82663951501E+02 0.  0.
          6    2    1    2  501    0 -0.11018507263E+02  0.16271349736E+02 -0.76011996420E+02  0.19177748588E+03  0.17497032939E+03 0.  0.
         24    2    5    5    0    0 -0.58003803108E+02  0.56280526374E+02 -0.52763884135E+02  0.12566457515E+03  0.80471231841E+02 0.  0.
          5    1    5    5  501    0  0.46985295845E+02 -0.40009176638E+02 -0.23248112285E+02  0.66112910734E+02  0.47000000000E+01 0. -1.
        -11    1    6    6    0    0  0.28032126341E+01  0.43318119644E+02  0.10722510637E+01  0.43421966940E+02  0.00000000000E+00 0.  1.
         12    1    6    6    0    0 -0.60807015742E+02  0.12962406730E+02 -0.53836135198E+02  0.82242608208E+02  0.00000000000E+00 0. -1.
         -5    1    3    3    0  503  0.11961350673E+02  0.58084821614E+02 -0.54901966784E+02  0.80952062164E+02  0.47000000000E+01 0.  1.
         11    1    4    4    0    0 -0.26728178963E+02 -0.54663698303E+02 -0.12728552563E+02  0.62165356214E+02  0.00000000000E+00 0. -1.
        -12    1    4    4    0    0  0.25785335553E+02 -0.19692473047E+02 -0.67670254651E+02  0.75046254996E+02  0.00000000000E+00 0.  1.
<mgrwt>
<rscale>  2 0.17482477E+03</rscale>
<asrwt>0</asrwt>
<pdfrwt beam="1">  1       21 0.15279107E-01 0.17607039E+03</pdfrwt>
<pdfrwt beam="2">  1       21 0.47788764E-01 0.17607039E+03</pdfrwt>
<totfact> 0.15962606E+05</totfact>
</mgrwt>
</event>
<event>
12    1  0.1026879E-001  0.2289774E+03  0.7546771E-02  0.1128047E+00
         21   -1    0    0  503  502  0.00000000000E+00  0.00000000000E+00  0.12422418390E+03  0.12422418390E+03  0.00000000000E+00 0.  1.
         21   -1    0    0  501  503 -0.00000000000E+00 -0.00000000000E+00 -0.42330256414E+03  0.42330256414E+03  0.00000000000E+00 0.  1.
          6    2    1    2  501    0 -0.14015121583E+03  0.48501068817E+02 -0.18906117624E+03  0.29694238069E+03  0.17445896971E+03 0.  0.
         24    2    3    3    0    0 -0.13393540509E+03  0.66330527958E+02 -0.20942757882E+03  0.26877491239E+03  0.77727801219E+02 0.  0.
         -6    2    1    2    0  502  0.14015121583E+03 -0.48501068817E+02 -0.11001720399E+03  0.25058436735E+03  0.16939310201E+03 0.  0.
        -24    2    5    5    0    0  0.60067679066E+02  0.29747311507E+02 -0.20019220783E+02  0.10685577289E+03  0.80773500532E+02 0.  0.
          5    1    3    3  501    0 -0.62158107360E+01 -0.17829459140E+02  0.20366402581E+02  0.28167468300E+02  0.47000000000E+01 0. -1.
        -13    1    4    4    0    0 -0.47891363021E+02 -0.29043480367E+01 -0.25752574717E+02  0.54453769329E+02  0.00000000000E+00 0.  1.
         14    1    4    4    0    0 -0.86044042072E+02  0.69234875995E+02 -0.18367500410E+03  0.21432114306E+03  0.00000000000E+00 0. -1.
         -5    1    5    5    0  502  0.80083536763E+02 -0.78248380325E+02 -0.89997983211E+02  0.14372859446E+03  0.47000000000E+01 0.  1.
         11    1    6    6    0    0  0.75640717531E+00  0.26168482819E+02  0.21905291387E+02  0.34135076323E+02  0.00000000000E+00 0. -1.
        -12    1    6    6    0    0  0.59311271891E+02  0.35788286885E+01 -0.41924512170E+02  0.72720696564E+02  0.00000000000E+00 0.  1.
<mgrwt>
<rscale>  2 0.22801237E+03</rscale>
<asrwt>0</asrwt>
<pdfrwt beam="1">  1       21 0.19111413E-01 0.22897740E+03</pdfrwt>
<pdfrwt beam="2">  1       21 0.65123471E-01 0.22897740E+03</pdfrwt>
<totfact> 0.53623582E+04</totfact>
</mgrwt>
</event>
<event>
12    1  0.1026879E-001  0.2254055E+03  0.7546771E-02  0.1130034E+00
         21   -1    0    0  503  502  0.00000000000E+00  0.00000000000E+00  0.10113033562E+04  0.10113033562E+04  0.00000000000E+00 0.  1.
         21   -1    0    0  501  503 -0.00000000000E+00 -0.00000000000E+00 -0.21045370507E+03  0.21045370507E+03  0.00000000000E+00 0.  1.
          6    2    1    2  501    0  0.28789021795E+02 -0.14176873093E+03 -0.13295360586E+03  0.26113426227E+03  0.17200947872E+03 0.  0.
         24    2    3    3    0    0  0.28729636893E+02 -0.17168595123E+03 -0.12714402709E+03  0.23029784221E+03  0.81055750032E+02 0.  0.
         -6    2    1    2    0  502 -0.28789021795E+02  0.14176873093E+03  0.93380325703E+03  0.96062279904E+03  0.17285964930E+03 0.  0.
        -24    2    5    5    0    0 -0.43823003581E+02  0.10920432489E+03  0.37497860801E+03  0.40062856737E+03  0.77770510572E+02 0.  0.
          5    1    3    3  501    0  0.59384902165E-01  0.29917220294E+02 -0.58095787693E+01  0.30836420061E+02  0.47000000000E+01 0. -1.
        -11    1    4    4    0    0  0.46390144091E+02 -0.66898353225E+02 -0.79681382441E+02  0.11391469546E+03  0.00000000000E+00 0.  1.
         12    1    4    4    0    0 -0.17660507198E+02 -0.10478759800E+03 -0.47462644653E+02  0.11638314675E+03  0.00000000000E+00 0. -1.
         -5    1    5    5    0  502  0.15033981786E+02  0.32564406041E+02  0.55882464902E+03  0.55999423167E+03  0.47000000000E+01 0.  1.
         13    1    6    6    0    0  0.45777034715E+00  0.27441290340E+02  0.20769394061E+02  0.34418043217E+02  0.00000000000E+00 0. -1.
        -14    1    6    6    0    0 -0.44280773928E+02  0.81763034553E+02  0.35420921394E+03  0.36621052415E+03  0.00000000000E+00 0.  1.
<mgrwt>
<rscale>  2 0.22524249E+03</rscale>
<asrwt>0</asrwt>
<pdfrwt beam="1">  1       21 0.15558513E+00 0.22540550E+03</pdfrwt>
<pdfrwt beam="2">  1       21 0.32377494E-01 0.22540550E+03</pdfrwt>
<totfact> 0.24186639E+03</totfact>
</mgrwt>
</event>
<event>
12    1  0.1026879E-001  0.1973485E+03  0.7546771E-02  0.1153175E+00
         21   -1    0    0  503  502  0.00000000000E+00  0.00000000000E+00  0.34618132092E+02  0.34618132092E+02  0.00000000000E+00 0. -1.
         21   -1    0    0  501  503 -0.00000000000E+00 -0.00000000000E+00 -0.13210215086E+04  0.13210215086E+04  0.00000000000E+00 0. -1.
          6    2    1    2  501    0  0.22784315126E+02 -0.90426085001E+02 -0.91652507659E+03  0.93640654132E+03  0.16775873372E+03 0.  0.
         24    2    3    3    0    0  0.69582813310E+02 -0.60048662837E+02 -0.78185921011E+03  0.79056459672E+03  0.72394387444E+02 0.  0.
         -6    2    1    2    0  502 -0.22784315126E+02  0.90426085001E+02 -0.36987829995E+03  0.41923309940E+03  0.17392651609E+03 0.  0.
        -24    2    5    5    0    0  0.41969385796E+02  0.16058067487E+02 -0.23007697095E+03  0.24808945972E+03  0.81201456827E+02 0.  0.
          5    1    3    3  501    0 -0.46798498184E+02 -0.30377422164E+02 -0.13466586648E+03  0.14584194460E+03  0.47000000000E+01 0. -1.
        -11    1    4    4    0    0  0.73941977176E+02 -0.26111088236E+02 -0.43407315198E+03  0.44109942892E+03  0.00000000000E+00 0.  1.
         12    1    4    4    0    0 -0.43591638655E+01 -0.33937574601E+02 -0.34778605813E+03  0.34946516780E+03  0.00000000000E+00 0. -1.
         -5    1    5    5    0  502 -0.64753700923E+02  0.74368017514E+02 -0.13980132900E+03  0.17114363968E+03  0.47000000000E+01 0.  1.
         13    1    6    6    0    0  0.17614225665E+02  0.26929630892E+02 -0.21511409673E+03  0.21750756442E+03  0.00000000000E+00 0. -1.
        -14    1    6    6    0    0  0.24355160131E+02 -0.10871563405E+02 -0.14962874216E+02  0.30581895309E+02  0.00000000000E+00 0.  1.
<mgrwt>
<rscale>  2 0.19598095E+03</rscale>
<asrwt>0</asrwt>
<pdfrwt beam="1">  1       21 0.53258660E-02 0.19734851E+03</pdfrwt>
<pdfrwt beam="2">  1       21 0.20323410E+00 0.19734851E+03</pdfrwt>
<totfact> 0.30832820E+04</totfact>
</mgrwt>
</event>
<event>
12    1  0.1026879E-001  0.1749007E+03  0.7546771E-02  0.1172963E+00
         21   -1    0    0  503  502  0.00000000000E+00  0.00000000000E+00  0.24439354492E+03  0.24439354492E+03  0.00000000000E+00 0. -1.
         21   -1    0    0  501  503 -0.00000000000E+00 -0.00000000000E+00 -0.15654116931E+03  0.15654116931E+03  0.00000000000E+00 0.  1.
          6    2    1    2  501    0 -0.20593529927E+02  0.97901608590E+01 -0.46404824681E+02  0.18044609026E+03  0.17287985137E+03 0.  0.
         24    2    3    3    0    0 -0.78023654659E+01  0.55806479025E+02  0.17633061444E+02  0.10042074249E+03  0.81229062892E+02 0.  0.
         -6    2    1    2    0  502  0.20593529927E+02 -0.97901608590E+01  0.13425720030E+03  0.22048862398E+03  0.17340789125E+03 0.  0.
        -24    2    5    5    0    0 -0.34841861181E+02 -0.34306126254E+02  0.13064943442E+03  0.15958524869E+03  0.77506846782E+02 0.  0.
          5    1    3    3  501    0 -0.12791164462E+02 -0.46016318166E+02 -0.64037886125E+02  0.80025347767E+02  0.47000000000E+01 0. -1.
        -11    1    4    4    0    0 -0.38137602757E+02  0.10541451012E+02 -0.77325423756E+01  0.40316140007E+02  0.00000000000E+00 0.  1.
         12    1    4    4    0    0  0.30335237291E+02  0.45265028013E+02  0.25365603819E+02  0.60104602482E+02  0.00000000000E+00 0. -1.
         -5    1    5    5    0  502  0.55435391108E+02  0.24515965395E+02  0.36077658806E+01  0.60903375286E+02  0.47000000000E+01 0.  1.
         13    1    6    6    0    0 -0.18736387590E+02 -0.30786148276E+02  0.94337487339E+01  0.37253654328E+02  0.00000000000E+00 0. -1.
        -14    1    6    6    0    0 -0.16105473591E+02 -0.35199779776E+01  0.12121568568E+03  0.12233159436E+03  0.00000000000E+00 0.  1.
<mgrwt>
<rscale>  2 0.17476962E+03</rscale>
<asrwt>0</asrwt>
<pdfrwt beam="1">  1       21 0.37599007E-01 0.17490065E+03</pdfrwt>
<pdfrwt beam="2">  1       21 0.24083257E-01 0.17490065E+03</pdfrwt>
<totfact> 0.11167746E+05</totfact>
</mgrwt>
</event>
<event>
12    1  0.1026879E-001  0.1890280E+03  0.7546771E-02  0.1159976E+00
         21   -1    0    0  501  502  0.00000000000E+00  0.00000000000E+00  0.15975187939E+03  0.15975187939E+03  0.00000000000E+00 0.  1.
         21   -1    0    0  502  503 -0.00000000000E+00 -0.00000000000E+00 -0.22128093840E+03  0.22128093840E+03  0.00000000000E+00 0.  1.
         -6    2    1    2    0  503  0.35165325554E+02 -0.60412598477E+02 -0.18952145169E+02  0.18997571352E+03  0.17562831703E+03 0.  0.
        -24    2    3    3    0    0  0.33320333373E+02 -0.84891923963E+02  0.38036331942E+02  0.12774695894E+03  0.80966904357E+02 0.  0.
          6    2    1    2  501    0 -0.35165325554E+02  0.60412598477E+02 -0.42576913839E+02  0.19105710427E+03  0.17263760112E+03 0.  0.
         24    2    5    5    0    0  0.42368418406E+02  0.58860435897E+02 -0.26634375852E+02  0.11174666877E+03  0.80735953649E+02 0.  0.
          5    1    5    5  501    0 -0.77533743960E+02  0.15521625798E+01 -0.15942537987E+02  0.79310435496E+02  0.47000000000E+01 0. -1.
        -11    1    6    6    0    0 -0.12269410553E+02  0.43632253898E+02  0.69121770758E+01  0.45848557311E+02  0.00000000000E+00 0.  1.
         12    1    6    6    0    0  0.54637828959E+02  0.15228181999E+02 -0.33546552928E+02  0.65898111458E+02  0.00000000000E+00 0. -1.
         -5    1    3    3    0  503  0.18449921808E+01  0.24479325486E+02 -0.56988477112E+02  0.62228754575E+02  0.47000000000E+01 0.  1.
         13    1    4    4    0    0 -0.26958007727E+02 -0.31157144786E+02  0.12920847015E+02  0.43179279052E+02  0.00000000000E+00 0. -1.
        -14    1    4    4    0    0  0.60278341100E+02 -0.53734779177E+02  0.25115484928E+02  0.84567679891E+02  0.00000000000E+00 0.  1.
<mgrwt>
<rscale>  2 0.18833030E+03</rscale>
<asrwt>0</asrwt>
<pdfrwt beam="1">  1       21 0.24577212E-01 0.18902801E+03</pdfrwt>
<pdfrwt beam="2">  1       21 0.34043221E-01 0.18902801E+03</pdfrwt>
<totfact> 0.13025196E+05</totfact>
</mgrwt>
</event>
<event>
12    1  0.1026879E-001  0.2440482E+03  0.7546771E-02  0.1118840E+00
         21   -1    0    0  501  502  0.00000000000E+00  0.00000000000E+00  0.21998676988E+03  0.21998676988E+03  0.00000000000E+00 0.  1.
         21   -1    0    0  502  503 -0.00000000000E+00 -0.00000000000E+00 -0.31557849173E+03  0.31557849173E+03  0.00000000000E+00 0.  1.
         -6    2    1    2    0  503  0.16713450717E+03 -0.38025023384E+02  0.64266586992E+02  0.25236824324E+03  0.17372302698E+03 0.  0.
        -24    2    3    3    0    0  0.19064197253E+03 -0.53711457457E+02  0.62679702599E+02  0.22367550298E+03  0.82901768159E+02 0.  0.
          6    2    1    2  501    0 -0.16713450717E+03  0.38025023384E+02 -0.15985830884E+03  0.28319701837E+03  0.15895290629E+03 0.  0.
         24    2    5    5    0    0 -0.18221527536E+03  0.33590856972E+02 -0.10752091254E+03  0.22834827680E+03  0.79066027063E+02 0.  0.
          5    1    5    5  501    0  0.15080768191E+02  0.44341664126E+01 -0.52337396299E+02  0.54848741575E+02  0.47000000000E+01 0. -1.
        -13    1    6    6    0    0 -0.90525672300E+02  0.55468522676E+02 -0.68368438817E+02  0.12627706751E+03  0.00000000000E+00 0.  1.
         14    1    6    6    0    0 -0.91689603060E+02 -0.21877665705E+02 -0.39152473728E+02  0.10207120929E+03  0.00000000000E+00 0. -1.
         -5    1    3    3    0  503 -0.23507465362E+02  0.15686434072E+02  0.15868843935E+01  0.28692740262E+02  0.47000000000E+01 0.  1.
         13    1    4    4    0    0  0.31130566330E+02  0.89877009147E+01  0.38923855393E+02  0.50645408937E+02  0.00000000000E+00 0. -1.
        -14    1    4    4    0    0  0.15951140620E+03 -0.62699158371E+02  0.23755847206E+02  0.17303009405E+03  0.00000000000E+00 0.  1.
<mgrwt>
<rscale>  2 0.24143566E+03</rscale>
<asrwt>0</asrwt>
<pdfrwt beam="1">  1       21 0.33844118E-01 0.24404822E+03</pdfrwt>
<pdfrwt beam="2">  1       21 0.48550538E-01 0.24404822E+03</pdfrwt>
<totfact> 0.33214433E+04</totfact>
</mgrwt>
</event>
<event>
12    1  0.1026879E-001  0.2401818E+03  0.7546771E-02  0.1120207E+00
         21   -1    0    0  501  502  0.00000000000E+00  0.00000000000E+00  0.72681884030E+02  0.72681884030E+02  0.00000000000E+00 0. -1.
         21   -1    0    0  502  503 -0.00000000000E+00 -0.00000000000E+00 -0.82359844364E+03  0.82359844364E+03  0.00000000000E+00 0.  1.
         -6    2    1    2    0  503 -0.16625443933E+03 -0.10919217093E+02 -0.27856370000E+03  0.36781114551E+03  0.17299576847E+03 0.  0.
        -24    2    3    3    0    0 -0.17188583508E+03  0.29984682146E+02 -0.19233296034E+03  0.27208929820E+03  0.81220669155E+02 0.  0.
          6    2    1    2  501    0  0.16625443933E+03  0.10919217093E+02 -0.47235285962E+03  0.52846918216E+03  0.16853096039E+03 0.  0.
         24    2    5    5    0    0  0.15415052670E+03  0.31931778162E+01 -0.48098541868E+03  0.51106781842E+03  0.77915086957E+02 0.  0.
          5    1    5    5  501    0  0.12103912635E+02  0.77260392771E+01  0.86325590669E+01  0.17401363740E+02  0.47000000000E+01 0. -1.
        -13    1    6    6    0    0  0.59244105608E+02  0.15769839756E+02 -0.92588477634E+02  0.11104583777E+03  0.00000000000E+00 0.  1.
         14    1    6    6    0    0  0.94906421088E+02 -0.12576661940E+02 -0.38839694105E+03  0.40002198065E+03  0.00000000000E+00 0. -1.
         -5    1    3    3    0  503  0.56313957463E+01 -0.40903899239E+02 -0.86230739662E+02  0.95721847316E+02  0.47000000000E+01 0.  1.
         13    1    4    4    0    0 -0.10152262845E+03 -0.20239338903E+02 -0.12631317456E+03  0.16331409307E+03  0.00000000000E+00 0. -1.
        -14    1    4    4    0    0 -0.70363206626E+02  0.50224021049E+02 -0.66019785775E+02  0.10877520513E+03  0.00000000000E+00 0.  1.
<mgrwt>
<rscale>  2 0.23937889E+03</rscale>
<asrwt>0</asrwt>
<pdfrwt beam="1">  1       21 0.11181829E-01 0.24018181E+03</pdfrwt>
<pdfrwt beam="2">  1       21 0.12670745E+00 0.24018181E+03</pdfrwt>
<totfact> 0.29890680E+04</totfact>
</mgrwt>
</event>
<event>
12    1  0.1026879E-001  0.2860744E+03  0.7546771E-02  0.1092493E+00
         21   -1    0    0  503  502  0.00000000000E+00  0.00000000000E+00  0.19015152385E+03  0.19015152385E+03  0.00000000000E+00 0.  1.
         21   -1    0    0  501  503 -0.00000000000E+00 -0.00000000000E+00 -0.50397022521E+03  0.50397022521E+03  0.00000000000E+00 0. -1.
          6    2    1    2  501    0 -0.22455126594E+03  0.25537341892E+02 -0.23650130729E+02  0.28705032272E+03  0.17539421948E+03 0.  0.
         24    2    3    3    0    0 -0.17790145366E+03  0.81652733013E+02 -0.28704226814E+02  0.21375110040E+03  0.80929007534E+02 0.  0.
         -6    2    1    2    0  502  0.22455126594E+03 -0.25537341892E+02 -0.29016857063E+03  0.40707142634E+03  0.17445320259E+03 0.  0.
        -24    2    5    5    0    0  0.11313416770E+03 -0.65526747540E+02 -0.10347691853E+03  0.18596334122E+03  0.82351667032E+02 0.  0.
          5    1    3    3  501    0 -0.46649812279E+02 -0.56115391121E+02  0.50540960856E+01  0.73299222326E+02  0.47000000000E+01 0. -1.
        -13    1    4    4    0    0 -0.30727985517E+02  0.51802522218E+02 -0.19462336732E+02  0.63296863692E+02  0.00000000000E+00 0.  1.
         14    1    4    4    0    0 -0.14717346815E+03  0.29850210795E+02 -0.92418900819E+01  0.15045423671E+03  0.00000000000E+00 0. -1.
         -5    1    5    5    0  502  0.11141709824E+03  0.39989405648E+02 -0.18669165210E+03  0.22110808512E+03  0.47000000000E+01 0.  1.
         13    1    6    6    0    0  0.12327150712E+03 -0.70048345120E+02 -0.87845448608E+02  0.16679166035E+03  0.00000000000E+00 0. -1.
        -14    1    6    6    0    0 -0.10137339419E+02  0.45215975798E+01 -0.15631469923E+02  0.19171680864E+02  0.00000000000E+00 0.  1.
<mgrwt>
<rscale>  2 0.28593029E+03</rscale>
<asrwt>0</asrwt>
<pdfrwt beam="1">  1       21 0.29254082E-01 0.28607439E+03</pdfrwt>
<pdfrwt beam="2">  1       21 0.77533878E-01 0.28607439E+03</pdfrwt>
<totfact> 0.15709882E+04</totfact>
</mgrwt>
</event>
<event>
12    1  0.1026879E-001  0.3225728E+03  0.7546771E-02  0.1074541E+00
         21   -1    0    0  501  502  0.00000000000E+00  0.00000000000E+00  0.19979139165E+03  0.19979139165E+03  0.00000000000E+00 0. -1.
         21   -1    0    0  502  503 -0.00000000000E+00 -0.00000000000E+00 -0.70451876774E+03  0.70451876774E+03  0.00000000000E+00 0. -1.
         -6    2    1    2    0  503  0.30196606740E+02 -0.26976951517E+03 -0.48369476155E+03  0.58105239404E+03  0.17312953505E+03 0.  0.
        -24    2    3    3    0    0  0.40761707907E+01 -0.22903881748E+03 -0.47586437483E+03  0.53181143686E+03  0.62458834953E+02 0.  0.
          6    2    1    2  501    0 -0.30196606740E+02  0.26976951517E+03 -0.21032614543E+02  0.32325776534E+03  0.17425781362E+03 0.  0.
         24    2    5    5    0    0 -0.87161440798E+02  0.18162399864E+03 -0.30770613404E+02  0.21775163744E+03  0.76710829186E+02 0.  0.
          5    1    5    5  501    0  0.56964834058E+02  0.88145516523E+02  0.97379988606E+01  0.10550612790E+03  0.47000000000E+01 0. -1.
        -13    1    6    6    0    0  0.56729758460E+00 -0.59390713783E+01 -0.71969564439E+01  0.93482927554E+01  0.00000000000E+00 0.  1.
         14    1    6    6    0    0 -0.87728738383E+02  0.18756307002E+03 -0.23573656960E+02  0.20840334469E+03  0.00000000000E+00 0. -1.
         -5    1    3    3    0  503  0.26120435949E+02 -0.40730697691E+02 -0.78303867201E+01  0.49240957188E+02  0.47000000000E+01 0.  1.
         11    1    4    4    0    0 -0.28981833988E+02 -0.12096853097E+03 -0.24496168491E+03  0.27473543503E+03  0.00000000000E+00 0. -1.
        -12    1    4    4    0    0  0.33058004779E+02 -0.10807028650E+03 -0.23090268991E+03  0.25707600182E+03  0.00000000000E+00 0.  1.
<mgrwt>
<rscale>  2 0.32242067E+03</rscale>
<asrwt>0</asrwt>
<pdfrwt beam="1">  1       21 0.30737137E-01 0.32257280E+03</pdfrwt>
<pdfrwt beam="2">  1       21 0.10838750E+00 0.32257280E+03</pdfrwt>
<totfact> 0.63637126E+03</totfact>
</mgrwt>
</event>
<event>
12    1  0.1026879E-001  0.1956861E+03  0.7546771E-02  0.1153737E+00
         21   -1    0    0  501  502  0.00000000000E+00  0.00000000000E+00  0.17371019589E+04  0.17371019589E+04  0.00000000000E+00 0. -1.
         21   -1    0    0  502  503 -0.00000000000E+00 -0.00000000000E+00 -0.37841676557E+02  0.37841676557E+02  0.00000000000E+00 0. -1.
         -6    2    1    2    0  503  0.88845311374E+02 -0.73873385587E+01  0.27513376863E+03  0.33762650748E+03  0.17419817962E+03 0.  0.
        -24    2    3    3    0    0  0.18452673025E+02  0.53646100600E+02  0.10185734185E+03  0.14083470300E+03  0.79000571071E+02 0.  0.
          6    2    1    2  501    0 -0.88845311374E+02  0.73873385587E+01  0.14241265137E+04  0.14373171280E+04  0.17261557639E+03 0.  0.
         24    2    5    5    0    0 -0.25935574123E+02 -0.56120955745E+02  0.87106191685E+03  0.87705515641E+03  0.81576152917E+02 0.  0.
          5    1    5    5  501    0 -0.62909737251E+02  0.63508294304E+02  0.55306459685E+03  0.56026197156E+03  0.47000000000E+01 0. -1.
        -13    1    6    6    0    0 -0.52315352161E+01 -0.23023853880E+02  0.52523851949E+02  0.57586646298E+02  0.00000000000E+00 0.  1.
         14    1    6    6    0    0 -0.20704038907E+02 -0.33097101865E+02  0.81853806490E+03  0.81946851011E+03  0.00000000000E+00 0. -1.
         -5    1    3    3    0  503  0.70392638349E+02 -0.61033439159E+02  0.17327642678E+03  0.19679180447E+03  0.47000000000E+01 0.  1.
         13    1    4    4    0    0  0.44375991320E+02  0.22177995209E+02  0.81135049211E+02  0.95099885844E+02  0.00000000000E+00 0. -1.
        -14    1    4    4    0    0 -0.25923318295E+02  0.31468105391E+02  0.20722292643E+02  0.45734817160E+02  0.00000000000E+00 0.  1.
<mgrwt>
<rscale>  2 0.19533332E+03</rscale>
<asrwt>0</asrwt>
<pdfrwt beam="1">  1       21 0.26724639E+00 0.19568615E+03</pdfrwt>
<pdfrwt beam="2">  1       21 0.58217977E-02 0.19568615E+03</pdfrwt>
<totfact> 0.10916308E+04</totfact>
</mgrwt>
</event>
<event>
12    1  0.1026879E-001  0.1756608E+03  0.7546771E-02  0.1172634E+00
         21   -1    0    0  503  502  0.00000000000E+00  0.00000000000E+00  0.19820075396E+03  0.19820075396E+03  0.00000000000E+00 0.  1.
         21   -1    0    0  501  503 -0.00000000000E+00 -0.00000000000E+00 -0.32904942238E+03  0.32904942238E+03  0.00000000000E+00 0.  1.
          6    2    1    2  501    0 -0.23051858835E+02  0.19771111514E+02 -0.25806295015E+03  0.31217493994E+03  0.17301566936E+03 0.  0.
         24    2    3    3    0    0  0.28068294904E+02  0.42091687198E+02 -0.86036872557E+02  0.13127015949E+03  0.85264130938E+02 0.  0.
         -6    2    1    2    0  502  0.23051858835E+02 -0.19771111514E+02  0.12721428173E+03  0.21507523640E+03  0.17073839284E+03 0.  0.
        -24    2    5    5    0    0 -0.40934502713E+02 -0.49917345038E+02  0.81055906096E+02  0.13048365584E+03  0.79300376296E+02 0.  0.
          5    1    3    3  501    0 -0.51120153739E+02 -0.22320575684E+02 -0.17202607759E+03  0.18090478045E+03  0.47000000000E+01 0. -1.
        -13    1    4    4    0    0 -0.25575311460E+02  0.57832416371E+01 -0.51668815107E+02  0.57941426412E+02  0.00000000000E+00 0.  1.
         14    1    4    4    0    0  0.53643606363E+02  0.36308445561E+02 -0.34368057450E+02  0.73328733083E+02  0.00000000000E+00 0. -1.
         -5    1    5    5    0  502  0.63986361548E+02  0.30146233525E+02  0.46158375631E+02  0.84591580555E+02  0.47000000000E+01 0.  1.
         13    1    6    6    0    0 -0.29291707972E+02  0.16916562546E+02  0.33713288937E+02  0.47757304103E+02  0.00000000000E+00 0. -1.
        -14    1    6    6    0    0 -0.11642794741E+02 -0.66833907585E+02  0.47342617159E+02  0.82726351738E+02  0.00000000000E+00 0.  1.
<mgrwt>
<rscale>  2 0.17509743E+03</rscale>
<asrwt>0</asrwt>
<pdfrwt beam="1">  1       21 0.30492424E-01 0.17566077E+03</pdfrwt>
<pdfrwt beam="2">  1       21 0.50622988E-01 0.17566077E+03</pdfrwt>
<totfact> 0.38665959E+04</totfact>
</mgrwt>
</event>
<event>
12    1  0.1026879E-001  0.1991225E+03  0.7546771E-02  0.1150754E+00
         21   -1    0    0  503  502  0.00000000000E+00  0.00000000000E+00  0.28991347860E+03  0.28991347860E+03  0.00000000000E+00 0.  1.
         21   -1    0    0  501  503 -0.00000000000E+00 -0.00000000000E+00 -0.14475629955E+03  0.14475629955E+03  0.00000000000E+00 0.  1.
          6    2    1    2  501    0 -0.49564070215E+02 -0.80369707922E+02  0.18557590587E+02  0.19870956562E+03  0.17385402007E+03 0.  0.
         24    2    3    3    0    0 -0.91594894540E+02 -0.45385404185E+02  0.44046510040E+02  0.13819290084E+03  0.81900690949E+02 0.  0.
         -6    2    1    2    0  502  0.49564070215E+02  0.80369707922E+02  0.12659958845E+03  0.23596021252E+03  0.17531080711E+03 0.  0.
        -24    2    5    5    0    0 -0.29655463347E+02  0.78172147401E+01  0.84580603100E+02  0.12051635650E+03  0.80185774358E+02 0.  0.
          5    1    3    3  501    0  0.42030824324E+02 -0.34984303737E+02 -0.25488919453E+02  0.60516664781E+02  0.47000000000E+01 0. -1.
        -11    1    4    4    0    0 -0.89025801942E+02 -0.65573646987E+02  0.35601588066E+02  0.11615924270E+03  0.00000000000E+00 0.  1.
         12    1    4    4    0    0 -0.25690925978E+01  0.20188242802E+02  0.84449219745E+01  0.22033658148E+02  0.00000000000E+00 0. -1.
         -5    1    5    5    0  502  0.79219533563E+02  0.72552493182E+02  0.42018985354E+02  0.11544385603E+03  0.47000000000E+01 0.  1.
         11    1    6    6    0    0 -0.51310247510E+02 -0.19706065542E+01  0.26544634768E+02  0.57803481078E+02  0.00000000000E+00 0. -1.
        -12    1    6    6    0    0  0.21654784163E+02  0.97878212942E+01  0.58035968333E+02  0.62712875418E+02  0.00000000000E+00 0.  1.
<mgrwt>
<rscale>  2 0.19880137E+03</rscale>
<asrwt>0</asrwt>
<pdfrwt beam="1">  1       21 0.44602073E-01 0.19912249E+03</pdfrwt>
<pdfrwt beam="2">  1       21 0.22270200E-01 0.19912249E+03</pdfrwt>
<totfact> 0.90789486E+04</totfact>
</mgrwt>
</event>
<event>
12    1  0.1026879E-001  0.2040984E+03  0.7546771E-02  0.1146902E+00
         21   -1    0    0  503  502  0.00000000000E+00  0.00000000000E+00  0.20244598522E+04  0.20244598522E+04  0.00000000000E+00 0. -1.
         21   -1    0    0  501  503 -0.00000000000E+00 -0.00000000000E+00 -0.22725718953E+02  0.22725718953E+02  0.00000000000E+00 0. -1.
          6    2    1    2  501    0 -0.79078162260E+01  0.10264565895E+03  0.66011730625E+03  0.69013292468E+03  0.17300269030E+03 0.  0.
         24    2    3    3    0    0  0.49993993216E+02  0.92249332353E+02  0.33970437357E+03  0.36433046831E+03  0.79550550223E+02 0.  0.
         -6    2    1    2    0  502  0.79078162260E+01 -0.10264565895E+03  0.13416168270E+04  0.13570526465E+04  0.17623141028E+03 0.  0.
        -24    2    5    5    0    0  0.67852267978E+02 -0.92977087076E+02  0.82464433019E+03  0.83650536617E+03  0.80338579335E+02 0.  0.
          5    1    3    3  501    0 -0.57901809442E+02  0.10396326595E+02  0.32041293268E+03  0.32580245637E+03  0.47000000000E+01 0. -1.
        -11    1    4    4    0    0  0.34743683350E+02  0.73906195042E+01  0.17344832689E+03  0.17704820499E+03  0.00000000000E+00 0.  1.
         12    1    4    4    0    0  0.15250309866E+02  0.84858712849E+02  0.16625604668E+03  0.18728226333E+03  0.00000000000E+00 0. -1.
         -5    1    5    5    0  502 -0.59944451752E+02 -0.96685718730E+01  0.51697249680E+03  0.52054728030E+03  0.47000000000E+01 0.  1.
         11    1    6    6    0    0  0.67961919237E+02 -0.47310174880E+02  0.34969656765E+03  0.35936717232E+03  0.00000000000E+00 0. -1.
        -12    1    6    6    0    0 -0.10965125962E+00 -0.45666912195E+02  0.47494776253E+03  0.47713819385E+03  0.00000000000E+00 0.  1.
<mgrwt>
<rscale>  2 0.20339954E+03</rscale>
<asrwt>0</asrwt>
<pdfrwt beam="1">  1       21 0.31145522E+00 0.20409844E+03</pdfrwt>
<pdfrwt beam="2">  1       21 0.34962660E-02 0.20409844E+03</pdfrwt>
<totfact> 0.14218675E+04</totfact>
</mgrwt>
</event>
<event>
12    1  0.1026879E-001  0.2007680E+03  0.7546771E-02  0.1150896E+00
         21   -1    0    0  501  502  0.00000000000E+00  0.00000000000E+00  0.19623625755E+03  0.19623625755E+03  0.00000000000E+00 0. -1.
         21   -1    0    0  502  503 -0.00000000000E+00 -0.00000000000E+00 -0.37513264898E+03  0.37513264898E+03  0.00000000000E+00 0.  1.
         -6    2    1    2    0  503  0.39948161320E+01 -0.96750735106E+02 -0.28734609407E+03  0.35053608623E+03  0.17587241590E+03 0.  0.
        -24    2    3    3    0    0  0.32771671758E+02 -0.11831133377E+03 -0.27597440592E+03  0.31253119016E+03  0.80264051275E+02 0.  0.
          6    2    1    2  501    0 -0.39948161320E+01  0.96750735106E+02  0.10844970264E+03  0.22083282030E+03  0.16622013482E+03 0.  0.
         24    2    5    5    0    0 -0.44508464541E+02  0.75327135325E+02  0.12424546296E+03  0.17213043454E+03  0.80850298062E+02 0.  0.
          5    1    5    5  501    0  0.40513648409E+02  0.21423599781E+02 -0.15795760319E+02  0.48702385763E+02  0.47000000000E+01 0. -1.
        -11    1    6    6    0    0 -0.18030624178E+02 -0.11235127606E+02  0.39947794819E+01  0.21616886077E+02  0.00000000000E+00 0.  1.
         12    1    6    6    0    0 -0.26477840363E+02  0.86562262931E+02  0.12025068347E+03  0.15051354846E+03  0.00000000000E+00 0. -1.
         -5    1    3    3    0  503 -0.28776855626E+02  0.21560598667E+02 -0.11371688145E+02  0.38004896077E+02  0.47000000000E+01 0.  1.
         13    1    4    4    0    0  0.51906887208E+02 -0.61685415021E+02 -0.11196376251E+03  0.13796847278E+03  0.00000000000E+00 0. -1.
        -14    1    4    4    0    0 -0.19135215450E+02 -0.56625918751E+02 -0.16401064342E+03  0.17456271738E+03  0.00000000000E+00 0.  1.
<mgrwt>
<rscale>  2 0.19863442E+03</rscale>
<asrwt>0</asrwt>
<pdfrwt beam="1">  1       21 0.30190194E-01 0.20076795E+03</pdfrwt>
<pdfrwt beam="2">  1       21 0.57712715E-01 0.20076795E+03</pdfrwt>
<totfact> 0.29506977E+04</totfact>
</mgrwt>
</event>
<event>
12    1  0.1026879E-001  0.1996240E+03  0.7546771E-02  0.1150126E+00
         21   -1    0    0  501  502  0.00000000000E+00  0.00000000000E+00  0.14915245762E+04  0.14915245762E+04  0.00000000000E+00 0. -1.
         21   -1    0    0  502  503 -0.00000000000E+00 -0.00000000000E+00 -0.73373174190E+02  0.73373174190E+02  0.00000000000E+00 0.  1.
         -6    2    1    2    0  503  0.90348730896E+02 -0.40222326110E+02  0.85058462529E+02  0.21699006321E+03  0.17340420062E+03 0.  0.
        -24    2    3    3    0    0 -0.20698805031E+01 -0.28045978471E+02  0.92859409930E+02  0.12332892957E+03  0.76133393080E+02 0.  0.
          6    2    1    2  501    0 -0.90348730896E+02  0.40222326110E+02  0.13330929395E+04  0.13479076872E+04  0.17302490911E+03 0.  0.
         24    2    5    5    0    0 -0.46200831076E+02 -0.32581226331E+02  0.44030063805E+03  0.45105230430E+03  0.79921688207E+02 0.  0.
          5    1    5    5  501    0 -0.44147899820E+02  0.72803552441E+02  0.89279230144E+03  0.89685538289E+03  0.47000000000E+01 0. -1.
        -11    1    6    6    0    0 -0.65552296173E+02 -0.13246756870E+02  0.24978992095E+03  0.25858767316E+03  0.00000000000E+00 0.  1.
         12    1    6    6    0    0  0.19351465096E+02 -0.19334469461E+02  0.19051071710E+03  0.19246463114E+03  0.00000000000E+00 0. -1.
         -5    1    3    3    0  503  0.92418611399E+02 -0.12176347639E+02 -0.78009474014E+01  0.93661133642E+02  0.47000000000E+01 0.  1.
         11    1    4    4    0    0 -0.21926888449E+02  0.19074613122E+02  0.24829591149E+02  0.38224833543E+02  0.00000000000E+00 0. -1.
        -12    1    4    4    0    0  0.19857007946E+02 -0.47120591593E+02  0.68029818782E+02  0.85104096024E+02  0.00000000000E+00 0.  1.
<mgrwt>
<rscale>  2 0.19954161E+03</rscale>
<asrwt>0</asrwt>
<pdfrwt beam="1">  1       21 0.22946530E+00 0.19962401E+03</pdfrwt>
<pdfrwt beam="2">  1       21 0.11288182E-01 0.19962401E+03</pdfrwt>
<totfact> 0.57279542E+03</totfact>
</mgrwt>
</event>
<event>
12    1  0.1026879E-001  0.1821238E+03  0.7546771E-02  0.1165885E+00
         21   -1    0    0  501  502  0.00000000000E+00  0.00000000000E+00  0.84295246854E+03  0.84295246854E+03  0.00000000000E+00 0.  1.
         21   -1    0    0  502  503 -0.00000000000E+00 -0.00000000000E+00 -0.47530456295E+02  0.47530456295E+02  0.00000000000E+00 0.  1.
         -6    2    1    2    0  503 -0.61568514743E+02 -0.25228658826E+02  0.21127733340E+03  0.27860540465E+03  0.16898429708E+03 0.  0.
        -24    2    3    3    0    0  0.58586071748E+01  0.20734761563E+02  0.16482309098E+03  0.18458870708E+03  0.80262605529E+02 0.  0.
          6    2    1    2  501    0  0.61568514743E+02  0.25228658826E+02  0.58414467884E+03  0.61187752018E+03  0.16953444089E+03 0.  0.
         24    2    5    5    0    0  0.51192820299E+02 -0.14368097618E+02  0.16879307347E+03  0.19448729001E+03  0.80666332780E+02 0.  0.
          5    1    5    5  501    0  0.10375694443E+02  0.39596756444E+02  0.41535160537E+03  0.41739023017E+03  0.47000000000E+01 0. -1.
        -13    1    6    6    0    0  0.57320512643E+02 -0.18346682619E+02  0.17489971446E+03  0.18496527256E+03  0.00000000000E+00 0.  1.
         14    1    6    6    0    0 -0.61276923443E+01  0.39785850012E+01 -0.61066409947E+01  0.95220174500E+01  0.00000000000E+00 0. -1.
         -5    1    3    3    0  503 -0.67427121917E+02 -0.45963420388E+02  0.46454242422E+02  0.94016697575E+02  0.47000000000E+01 0.  1.
         11    1    4    4    0    0 -0.27803870157E+02  0.16207448118E+02  0.25147894699E+02  0.40843030960E+02  0.00000000000E+00 0. -1.
        -12    1    4    4    0    0  0.33662477332E+02  0.45273134444E+01  0.13967519628E+03  0.14374567612E+03  0.00000000000E+00 0.  1.
<mgrwt>
<rscale>  2 0.18199571E+03</rscale>
<asrwt>0</asrwt>
<pdfrwt beam="1">  1       21 0.12968498E+00 0.18212384E+03</pdfrwt>
<pdfrwt beam="2">  1       21 0.73123785E-02 0.18212384E+03</pdfrwt>
<totfact> 0.61327534E+04</totfact>
</mgrwt>
</event>
<event>
12    1  0.1026879E-001  0.1906984E+03  0.7546771E-02  0.1158013E+00
         21   -1    0    0  501  502  0.00000000000E+00  0.00000000000E+00  0.33147383158E+03  0.33147383158E+03  0.00000000000E+00 0.  1.
         21   -1    0    0  502  503 -0.00000000000E+00 -0.00000000000E+00 -0.19412680873E+03  0.19412680873E+03  0.00000000000E+00 0.  1.
         -6    2    1    2    0  503 -0.69557785533E+02 -0.36671078551E+02 -0.10501703895E+03  0.21770266218E+03  0.17373202675E+03 0.  0.
        -24    2    3    3    0    0 -0.34203542310E+02 -0.72170197721E+02 -0.12002014867E+03  0.16519272715E+03  0.80655943803E+02 0.  0.
          6    2    1    2  501    0  0.69557785533E+02  0.36671078551E+02  0.24236406180E+03  0.30789797813E+03  0.17285188155E+03 0.  0.
         24    2    5    5    0    0  0.88121231854E+02 -0.85155735248E-02  0.23732637568E+03  0.26621509860E+03  0.82348761700E+02 0.  0.
          5    1    5    5  501    0 -0.18563446321E+02  0.36679594125E+02  0.50376861168E+01  0.41682879530E+02  0.47000000000E+01 0. -1.
        -13    1    6    6    0    0  0.17428737482E+02  0.17407200820E+02  0.15228885438E+03  0.15426816489E+03  0.00000000000E+00 0.  1.
         14    1    6    6    0    0  0.70692494372E+02 -0.17415716394E+02  0.85037521300E+02  0.11194693371E+03  0.00000000000E+00 0. -1.
         -5    1    3    3    0  503 -0.35354243224E+02  0.35499119170E+02  0.15003109719E+02  0.52509935031E+02  0.47000000000E+01 0.  1.
         13    1    4    4    0    0  0.26520423111E+02 -0.26807807557E+02 -0.39583921274E+02  0.54670633903E+02  0.00000000000E+00 0. -1.
        -14    1    4    4    0    0 -0.60723965420E+02 -0.45362390164E+02 -0.80436227393E+02  0.11052209324E+03  0.00000000000E+00 0.  1.
<mgrwt>
<rscale>  2 0.19049769E+03</rscale>
<asrwt>0</asrwt>
<pdfrwt beam="1">  1       21 0.50995974E-01 0.19069838E+03</pdfrwt>
<pdfrwt beam="2">  1       21 0.29865663E-01 0.19069838E+03</pdfrwt>
<totfact> 0.39348283E+04</totfact>
</mgrwt>
</event>
<event>
12    1  0.1026879E-001  0.2966552E+03  0.7546771E-02  0.1086928E+00
         21   -1    0    0  501  502  0.00000000000E+00  0.00000000000E+00  0.23560976944E+03  0.23560976944E+03  0.00000000000E+00 0. -1.
         21   -1    0    0  502  503 -0.00000000000E+00 -0.00000000000E+00 -0.58092775095E+03  0.58092775095E+03  0.00000000000E+00 0.  1.
         -6    2    1    2    0  503  0.19777117133E+03  0.13750125942E+03 -0.41663616709E+03  0.51145869136E+03  0.17315965086E+03 0.  0.
        -24    2    3    3    0    0  0.11254641529E+03  0.11705476829E+03 -0.16416242975E+03  0.24416410464E+03  0.79361780966E+02 0.  0.
          6    2    1    2  501    0 -0.19777117133E+03 -0.13750125942E+03  0.71318185580E+02  0.30507882903E+03  0.17310914412E+03 0.  0.
         24    2    5    5    0    0 -0.36208436473E+02 -0.77542059334E+02  0.61380851992E+02  0.13239859401E+03  0.80236879713E+02 0.  0.
          5    1    5    5  501    0 -0.16156273486E+03 -0.59959200084E+02  0.99373335878E+01  0.17268023503E+03  0.47000000000E+01 0. -1.
        -11    1    6    6    0    0 -0.20398719878E+02  0.24400189283E+01  0.44678795248E+02  0.49175768523E+02  0.00000000000E+00 0.  1.
         12    1    6    6    0    0 -0.15809716596E+02 -0.79982078262E+02  0.16702056744E+02  0.83222825484E+02  0.00000000000E+00 0. -1.
         -5    1    3    3    0  503  0.85224756043E+02  0.20446491125E+02 -0.25247373734E+03  0.26729458672E+03  0.47000000000E+01 0.  1.
         11    1    4    4    0    0  0.44863877703E+02  0.89596777842E-01 -0.31695027662E+02  0.54930413512E+02  0.00000000000E+00 0. -1.
        -12    1    4    4    0    0  0.67682537588E+02  0.11696517152E+03 -0.13246740208E+03  0.18923369112E+03  0.00000000000E+00 0.  1.
<mgrwt>
<rscale>  2 0.29664781E+03</rscale>
<asrwt>0</asrwt>
<pdfrwt beam="1">  1       21 0.36247656E-01 0.29665518E+03</pdfrwt>
<pdfrwt beam="2">  1       21 0.89373501E-01 0.29665518E+03</pdfrwt>
<totfact> 0.73593079E+03</totfact>
</mgrwt>
</event>
<event>
12    1  0.1026879E-001  0.2028323E+03  0.7546771E-02  0.1147786E+00
         21   -1    0    0  501  502  0.00000000000E+00  0.00000000000E+00  0.37993760344E+02  0.37993760344E+02  0.00000000000E+00 0.  1.
         21   -1    0    0  502  503 -0.00000000000E+00 -0.00000000000E+00 -0.14839390902E+04  0.14839390902E+04  0.00000000000E+00 0.  1.
         -6    2    1    2    0  503 -0.86385840729E+02 -0.54242694531E+02 -0.11263796088E+04  0.11444963827E+04  0.17531732227E+03 0.  0.
        -24    2    3    3    0    0 -0.10374957901E+03 -0.88208356296E+02 -0.78218511091E+03  0.79816257268E+03  0.81885624005E+02 0.  0.
          6    2    1    2  501    0  0.86385840729E+02  0.54242694531E+02 -0.31956572104E+03  0.37743646784E+03  0.17300651375E+03 0.  0.
         24    2    5    5    0    0  0.85683549462E+02 -0.23646662948E+02 -0.22174901482E+03  0.25230676218E+03  0.81149500012E+02 0.  0.
          5    1    5    5  501    0  0.70229126696E+00  0.77889357479E+02 -0.97816706225E+02  0.12512970566E+03  0.47000000000E+01 0. -1.
        -11    1    6    6    0    0  0.80124072327E+02 -0.40342448578E+02 -0.12434893875E+03  0.15332983627E+03  0.00000000000E+00 0.  1.
         12    1    6    6    0    0  0.55594771353E+01  0.16695785630E+02 -0.97400076070E+02  0.98976925908E+02  0.00000000000E+00 0. -1.
         -5    1    3    3    0  503  0.17363738284E+02  0.33965661765E+02 -0.34419449789E+03  0.34633381002E+03  0.47000000000E+01 0.  1.
         11    1    4    4    0    0 -0.42870987650E+02 -0.80993744045E+02 -0.56921705079E+03  0.57654658014E+03  0.00000000000E+00 0. -1.
        -12    1    4    4    0    0 -0.60878591363E+02 -0.72146122510E+01 -0.21296806012E+03  0.22161599254E+03  0.00000000000E+00 0.  1.
<mgrwt>
<rscale>  2 0.20233197E+03</rscale>
<asrwt>0</asrwt>
<pdfrwt beam="1">  1       21 0.58451944E-02 0.20283231E+03</pdfrwt>
<pdfrwt beam="2">  1       21 0.22829830E+00 0.20283231E+03</pdfrwt>
<totfact> 0.18310299E+04</totfact>
</mgrwt>
</event>
<event>
12    1  0.1026879E-001  0.2616813E+03  0.7546771E-02  0.1106142E+00
         21   -1    0    0  501  502  0.00000000000E+00  0.00000000000E+00  0.68622454700E+02  0.68622454700E+02  0.00000000000E+00 0.  1.
         21   -1    0    0  502  503 -0.00000000000E+00 -0.00000000000E+00 -0.10338360981E+04  0.10338360981E+04  0.00000000000E+00 0.  1.
         -6    2    1    2    0  503  0.19613345435E+03 -0.11846059452E+02 -0.37965511138E+03  0.46110203301E+03  0.17282482519E+03 0.  0.
        -24    2    3    3    0    0  0.13488069628E+03  0.39182127718E+02 -0.16159668213E+03  0.22887941390E+03  0.80896582557E+02 0.  0.
          6    2    1    2  501    0 -0.19613345435E+03  0.11846059452E+02 -0.58555853200E+03  0.64135651977E+03  0.17277363810E+03 0.  0.
         24    2    5    5    0    0 -0.81567018689E+02  0.44987492211E+02 -0.41675669348E+03  0.43462003670E+03  0.80816964498E+02 0.  0.
          5    1    5    5  501    0 -0.11456643566E+03 -0.33141432758E+02 -0.16880183852E+03  0.20673648307E+03  0.47000000000E+01 0. -1.
        -13    1    6    6    0    0 -0.76364185795E+02  0.19075886811E+02 -0.18083195620E+03  0.19721961036E+03  0.00000000000E+00 0.  1.
         14    1    6    6    0    0 -0.52028328939E+01  0.25911605399E+02 -0.23592473729E+03  0.23740042634E+03  0.00000000000E+00 0. -1.
         -5    1    3    3    0  503  0.61252758070E+02 -0.51028187170E+02 -0.21805842925E+03  0.23222261910E+03  0.47000000000E+01 0.  1.
         11    1    4    4    0    0  0.70803258627E+02  0.24465974866E+02 -0.14154203481E+03  0.16014316400E+03  0.00000000000E+00 0. -1.
        -12    1    4    4    0    0  0.64077437654E+02  0.14716152852E+02 -0.20054647325E+02  0.68736249901E+02  0.00000000000E+00 0.  1.
<mgrwt>
<rscale>  2 0.26167281E+03</rscale>
<asrwt>0</asrwt>
<pdfrwt beam="1">  1       21 0.10557301E-01 0.26168126E+03</pdfrwt>
<pdfrwt beam="2">  1       21 0.15905170E+00 0.26168126E+03</pdfrwt>
<totfact> 0.18066943E+04</totfact>
</mgrwt>
</event>
<event>
12    1  0.1026879E-001  0.1819965E+03  0.7546771E-02  0.1166093E+00
         21   -1    0    0  501  502  0.00000000000E+00  0.00000000000E+00  0.26923028895E+03  0.26923028895E+03  0.00000000000E+00 0.  1.
         21   -1    0    0  502  503 -0.00000000000E+00 -0.00000000000E+00 -0.38503688074E+03  0.38503688074E+03  0.00000000000E+00 0. -1.
         -6    2    1    2    0  503 -0.19171425126E+02 -0.53882982287E+02 -0.32801771644E+03  0.37470272191E+03  0.17185921038E+03 0.  0.
        -24    2    3    3    0    0  0.52151793951E+02 -0.44150969585E+02 -0.22461567069E+03  0.24862422765E+03  0.81808858501E+02 0.  0.
          6    2    1    2  501    0  0.19171425126E+02  0.53882982287E+02  0.21221112465E+03  0.27956444777E+03  0.17277673372E+03 0.  0.
         24    2    5    5    0    0  0.36681110973E+01  0.52095593287E+02  0.19490563625E+02  0.86155936725E+02  0.65692902840E+02 0.  0.
          5    1    5    5  501    0  0.15503314028E+02  0.17873889993E+01  0.19272056102E+03  0.19340851105E+03  0.47000000000E+01 0. -1.
        -13    1    6    6    0    0 -0.22685495519E+02  0.63056690888E+01  0.23379084157E+02  0.33180939493E+02  0.00000000000E+00 0.  1.
         14    1    6    6    0    0  0.26353606617E+02  0.45789924198E+02 -0.38885205316E+01  0.52974997232E+02  0.00000000000E+00 0. -1.
         -5    1    3    3    0  503 -0.71323219077E+02 -0.97320127011E+01 -0.10340204575E+03  0.12607849426E+03  0.47000000000E+01 0.  1.
         13    1    4    4    0    0  0.52698431586E+01 -0.55489391973E+02 -0.14734160936E+03  0.15753219899E+03  0.00000000000E+00 0. -1.
        -14    1    4    4    0    0  0.46881950793E+02  0.11338422388E+02 -0.77274061328E+02  0.91092028666E+02  0.00000000000E+00 0.  1.
<mgrwt>
<rscale>  2 0.18177839E+03</rscale>
<asrwt>0</asrwt>
<pdfrwt beam="1">  1       21 0.41420045E-01 0.18199648E+03</pdfrwt>
<pdfrwt beam="2">  1       21 0.59236443E-01 0.18199648E+03</pdfrwt>
<totfact> 0.15049821E+04</totfact>
</mgrwt>
</event>
<event>
12    1  0.1026879E-001  0.2179988E+03  0.7546771E-02  0.1135880E+00
         21   -1    0    0  503  502  0.00000000000E+00  0.00000000000E+00  0.62247781022E+02  0.62247781022E+02  0.00000000000E+00 0. -1.
         21   -1    0    0  501  503 -0.00000000000E+00 -0.00000000000E+00 -0.16549847754E+04  0.16549847754E+04  0.00000000000E+00 0.  1.
          6    2    1    2  501    0  0.55257460153E+02  0.11628162971E+03 -0.14319562578E+04  0.14484551059E+04  0.17592232729E+03 0.  0.
         24    2    3    3    0    0  0.10135247520E+03  0.59647553275E+02 -0.83752322231E+03  0.84953533439E+03  0.80218337190E+02 0.  0.
         -6    2    1    2    0  502 -0.55257460153E+02 -0.11628162971E+03 -0.16078073662E+03  0.26877745056E+03  0.17267329948E+03 0.  0.
        -24    2    5    5    0    0  0.16126281411E+02 -0.29705299900E+02 -0.20142081388E+02  0.88798505160E+02  0.79605334505E+02 0.  0.
          5    1    3    3  501    0 -0.46095015044E+02  0.56634076440E+02 -0.59443303547E+03  0.59891977149E+03  0.47000000000E+01 0. -1.
        -11    1    4    4    0    0  0.18073758057E+02  0.53727595174E+02 -0.41386418652E+03  0.41772823713E+03  0.00000000000E+00 0.  1.
         12    1    4    4    0    0  0.83278717140E+02  0.59199581005E+01 -0.42365903579E+03  0.43180709725E+03  0.00000000000E+00 0. -1.
         -5    1    5    5    0  502 -0.71383741565E+02 -0.86576329815E+02 -0.14063865523E+03  0.17997894540E+03  0.47000000000E+01 0.  1.
         13    1    6    6    0    0  0.25466249951E+02 -0.34542172638E+02 -0.44771272112E+02  0.62017403877E+02  0.00000000000E+00 0. -1.
        -14    1    6    6    0    0 -0.93399685395E+01  0.48368727388E+01  0.24629190724E+02  0.26781101283E+02  0.00000000000E+00 0.  1.
<mgrwt>
<rscale>  2 0.21734248E+03</rscale>
<asrwt>0</asrwt>
<pdfrwt beam="1">  1       21 0.95765824E-02 0.21799878E+03</pdfrwt>
<pdfrwt beam="2">  1       21 0.25461302E+00 0.21799878E+03</pdfrwt>
<totfact> 0.53354850E+03</totfact>
</mgrwt>
</event>
<event>
12    1  0.1026879E-001  0.1811426E+03  0.7546771E-02  0.1167536E+00
         21   -1    0    0  501  502  0.00000000000E+00  0.00000000000E+00  0.26551989843E+03  0.26551989843E+03  0.00000000000E+00 0.  1.
         21   -1    0    0  502  503 -0.00000000000E+00 -0.00000000000E+00 -0.85453112399E+03  0.85453112399E+03  0.00000000000E+00 0.  1.
         -6    2    1    2    0  503 -0.18518402467E+02 -0.46356034354E+02 -0.81368052260E+03  0.83359981507E+03  0.17412881921E+03 0.  0.
        -24    2    3    3    0    0 -0.22737041017E+02 -0.13864515789E+02 -0.18449180487E+03  0.20354106526E+03  0.81746812491E+02 0.  0.
          6    2    1    2  501    0  0.18518402467E+02  0.46356034354E+02  0.22466929704E+03  0.28645120735E+03  0.17054673262E+03 0.  0.
         24    2    5    5    0    0  0.30562798194E+02 -0.28566911645E+02  0.16852758179E+03  0.19193931658E+03  0.81786321293E+02 0.  0.
          5    1    5    5  501    0 -0.12044395727E+02  0.74922946000E+02  0.56141715250E+02  0.94511890770E+02  0.47000000000E+01 0. -1.
        -13    1    6    6    0    0  0.42720153965E+02 -0.15525632855E+02  0.16806616971E+03  0.17410426253E+03  0.00000000000E+00 0.  1.
         14    1    6    6    0    0 -0.12157355770E+02 -0.13041278790E+02  0.46141207934E+00  0.17835054048E+02  0.00000000000E+00 0. -1.
         -5    1    3    3    0  503  0.42186385499E+01 -0.32491518566E+02 -0.62918871773E+03  0.63005874981E+03  0.47000000000E+01 0.  1.
         11    1    4    4    0    0  0.19332240284E+02 -0.12821239479E+02 -0.12250462142E+02  0.26233442757E+02  0.00000000000E+00 0. -1.
        -12    1    4    4    0    0 -0.42069281301E+02 -0.10432763101E+01 -0.17224134272E+03  0.17730762250E+03  0.00000000000E+00 0.  1.
<mgrwt>
<rscale>  2 0.18027629E+03</rscale>
<asrwt>0</asrwt>
<pdfrwt beam="1">  1       21 0.40849215E-01 0.18114265E+03</pdfrwt>
<pdfrwt beam="2">  1       21 0.13146633E+00 0.18114265E+03</pdfrwt>
<totfact> 0.24517150E+03</totfact>
</mgrwt>
</event>
<event>
12    1  0.1026879E-001  0.1781120E+03  0.7546771E-02  0.1169841E+00
         21   -1    0    0  503  502  0.00000000000E+00  0.00000000000E+00  0.30928692179E+02  0.30928692179E+02  0.00000000000E+00 0.  1.
         21   -1    0    0  501  503 -0.00000000000E+00 -0.00000000000E+00 -0.15618644042E+04  0.15618644042E+04  0.00000000000E+00 0.  1.
          6    2    1    2  501    0  0.42033448157E+02 -0.50409738761E+01 -0.12329548356E+04  0.12456382625E+04  0.17217674690E+03 0.  0.
         24    2    3    3    0    0  0.38707483249E+02  0.97607991224E+01 -0.12235246184E+04  0.12271673794E+04  0.85637274046E+02 0.  0.
         -6    2    1    2    0  502 -0.42033448157E+02  0.50409738761E+01 -0.29798087649E+03  0.34715483395E+03  0.17300766978E+03 0.  0.
        -24    2    5    5    0    0 -0.27948939048E+01  0.54736449290E+02 -0.24796902627E+03  0.26633045905E+03  0.80245779427E+02 0.  0.
          5    1    3    3  501    0  0.33259649082E+01 -0.14801772998E+02 -0.94302171811E+01  0.18470883102E+02  0.47000000000E+01 0. -1.
        -11    1    4    4    0    0  0.76960782505E+01  0.22639111061E+02 -0.10580463856E+04  0.10583165467E+04  0.00000000000E+00 0.  1.
         12    1    4    4    0    0  0.31011404998E+02 -0.12878311939E+02 -0.16547823279E+03  0.16885083264E+03  0.00000000000E+00 0. -1.
         -5    1    5    5    0  502 -0.39238554252E+02 -0.49695475414E+02 -0.50011850220E+02  0.80824374905E+02  0.47000000000E+01 0.  1.
         13    1    6    6    0    0  0.29854076151E+01  0.17234954402E+02 -0.21601965438E+03  0.21672666515E+03  0.00000000000E+00 0. -1.
        -14    1    6    6    0    0 -0.57803015199E+01  0.37501494888E+02 -0.31949371892E+02  0.49603793895E+02  0.00000000000E+00 0.  1.
<mgrwt>
<rscale>  2 0.17790988E+03</rscale>
<asrwt>0</asrwt>
<pdfrwt beam="1">  1       21 0.47582592E-02 0.17811198E+03</pdfrwt>
<pdfrwt beam="2">  1       21 0.24028689E+00 0.17811198E+03</pdfrwt>
<totfact> 0.22479265E+04</totfact>
</mgrwt>
</event>
<event>
12    1  0.1026879E-001  0.2149019E+03  0.7546771E-02  0.1137766E+00
         21   -1    0    0  503  502  0.00000000000E+00  0.00000000000E+00  0.10933032813E+04  0.10933032813E+04  0.00000000000E+00 0. -1.
         21   -1    0    0  501  503 -0.00000000000E+00 -0.00000000000E+00 -0.95584791119E+02  0.95584791119E+02  0.00000000000E+00 0. -1.
          6    2    1    2  501    0 -0.44092505855E+02 -0.11940048980E+03  0.54619421936E+02  0.22161422291E+03  0.17299987430E+03 0.  0.
         24    2    3    3    0    0 -0.87639501314E+02 -0.11293237454E+03  0.19339117734E+02  0.16500179324E+03  0.80107346031E+02 0.  0.
         -6    2    1    2    0  502  0.44092505855E+02  0.11940048980E+03  0.94309906828E+03  0.96727384955E+03  0.17315375069E+03 0.  0.
        -24    2    5    5    0    0  0.48723215909E+02  0.15351093706E+03  0.80548902868E+03  0.82534577238E+03  0.80271471237E+02 0.  0.
          5    1    3    3  501    0  0.43546995459E+02 -0.64681152522E+01  0.35280304202E+02  0.56612429669E+02  0.47000000000E+01 0. -1.
        -11    1    4    4    0    0  0.11463413636E+02 -0.54556246077E+01  0.13730685772E+02  0.18700412397E+02  0.00000000000E+00 0.  1.
         12    1    4    4    0    0 -0.99102914950E+02 -0.10747674994E+03  0.56084319617E+01  0.14630138085E+03  0.00000000000E+00 0. -1.
         -5    1    5    5    0  502 -0.46307100543E+01 -0.34110447265E+02  0.13761003961E+03  0.14192807717E+03  0.47000000000E+01 0.  1.
         11    1    6    6    0    0 -0.19233722764E+02  0.41991348387E+02  0.28529977087E+03  0.28901413234E+03  0.00000000000E+00 0. -1.
        -12    1    6    6    0    0  0.67956938673E+02  0.11151958867E+03  0.52018925780E+03  0.53633164004E+03  0.00000000000E+00 0.  1.
<mgrwt>
<rscale>  2 0.21487095E+03</rscale>
<asrwt>0</asrwt>
<pdfrwt beam="1">  1       21 0.16820050E+00 0.21490195E+03</pdfrwt>
<pdfrwt beam="2">  1       21 0.14705353E-01 0.21490195E+03</pdfrwt>
<totfact> 0.87820188E+03</totfact>
</mgrwt>
</event>
<event>
12    1  0.1026879E-001  0.2548641E+03  0.7546771E-02  0.1110494E+00
         21   -1    0    0  501  502  0.00000000000E+00  0.00000000000E+00  0.14582354547E+03  0.14582354547E+03  0.00000000000E+00 0.  1.
         21   -1    0    0  502  503 -0.00000000000E+00 -0.00000000000E+00 -0.53372547077E+03  0.53372547077E+03  0.00000000000E+00 0. -1.
         -6    2    1    2    0  503  0.17848288760E+03  0.51285954471E+02 -0.33458199056E+03  0.42059580346E+03  0.17455466533E+03 0.  0.
        -24    2    3    3    0    0  0.15371345018E+03 -0.64572690897E+01 -0.30589918544E+03  0.35136720961E+03  0.78835799254E+02 0.  0.
          6    2    1    2  501    0 -0.17848288760E+03 -0.51285954471E+02 -0.53319934743E+02  0.25895321278E+03  0.17241624249E+03 0.  0.
         24    2    5    5    0    0 -0.12860763849E+03  0.17487027318E+02  0.94528585211E+01  0.15321874786E+03  0.80875876244E+02 0.  0.
          5    1    5    5  501    0 -0.49875249113E+02 -0.68772981789E+02 -0.62772793264E+02  0.10573446492E+03  0.47000000000E+01 0. -1.
        -11    1    6    6    0    0  0.79599807477E+01  0.83815915638E+01  0.11537900013E+02  0.16332039289E+02  0.00000000000E+00 0.  1.
         12    1    6    6    0    0 -0.13656761924E+03  0.91054357543E+01 -0.20850414915E+01  0.13688670857E+03  0.00000000000E+00 0. -1.
         -5    1    3    3    0  503  0.24769437423E+02  0.57743223560E+02 -0.28682805117E+02  0.69228593852E+02  0.47000000000E+01 0.  1.
         11    1    4    4    0    0  0.32982422896E+02  0.25906889184E+02 -0.12202626722E+03  0.12903261998E+03  0.00000000000E+00 0. -1.
        -12    1    4    4    0    0  0.12073102728E+03 -0.32364158274E+02 -0.18387291822E+03  0.22233458962E+03  0.00000000000E+00 0.  1.
<mgrwt>
<rscale>  2 0.25449839E+03</rscale>
<asrwt>0</asrwt>
<pdfrwt beam="1">  1       21 0.22434391E-01 0.25486412E+03</pdfrwt>
<pdfrwt beam="2">  1       21 0.82111611E-01 0.25486412E+03</pdfrwt>
<totfact> 0.23335970E+04</totfact>
</mgrwt>
</event>
<event>
12    1  0.1026879E-001  0.2251674E+03  0.7546771E-02  0.1130161E+00
         21   -1    0    0  503  502  0.00000000000E+00  0.00000000000E+00  0.68146501097E+02  0.68146501097E+02  0.00000000000E+00 0.  1.
         21   -1    0    0  501  503 -0.00000000000E+00 -0.00000000000E+00 -0.12702353826E+04  0.12702353826E+04  0.00000000000E+00 0.  1.
          6    2    1    2  501    0  0.39277223711E+02 -0.13806795400E+03 -0.10326290514E+04  0.10568931463E+04  0.17347883050E+03 0.  0.
         24    2    3    3    0    0  0.84599415582E+02 -0.12579409175E+03 -0.69446045433E+03  0.71544792547E+03  0.81296966684E+02 0.  0.
         -6    2    1    2    0  502 -0.39277223711E+02  0.13806795400E+03 -0.16945983015E+03  0.28148873747E+03  0.17295610733E+03 0.  0.
        -24    2    5    5    0    0 -0.20095150978E+02  0.10197644023E+02 -0.11285948329E+03  0.14026389067E+03  0.80180353082E+02 0.  0.
          5    1    3    3  501    0 -0.45322191871E+02 -0.12273862255E+02 -0.33816859706E+03  0.34144522080E+03  0.47000000000E+01 0. -1.
        -13    1    4    4    0    0  0.10328778591E+02 -0.58273087056E+02 -0.39988867649E+03  0.40424422065E+03  0.00000000000E+00 0.  1.
         14    1    4    4    0    0  0.74270636991E+02 -0.67521004689E+02 -0.29457177784E+03  0.31120370482E+03  0.00000000000E+00 0. -1.
         -5    1    5    5    0  502 -0.19182072733E+02  0.12787030998E+03 -0.56600346856E+02  0.14122484680E+03  0.47000000000E+01 0.  1.
         11    1    6    6    0    0 -0.10175561759E+02 -0.35290121943E+02 -0.49265616451E+02  0.61449456695E+02  0.00000000000E+00 0. -1.
        -12    1    6    6    0    0 -0.99195892194E+01  0.45487765966E+02 -0.63593866843E+02  0.78814433975E+02  0.00000000000E+00 0.  1.
<mgrwt>
<rscale>  2 0.22506673E+03</rscale>
<asrwt>0</asrwt>
<pdfrwt beam="1">  1       21 0.10484077E-01 0.22516742E+03</pdfrwt>
<pdfrwt beam="2">  1       21 0.19542083E+00 0.22516742E+03</pdfrwt>
<totfact> 0.10455856E+04</totfact>
</mgrwt>
</event>
<event>
12    1  0.1026879E-001  0.2424331E+03  0.7546771E-02  0.1118905E+00
         21   -1    0    0  501  502  0.00000000000E+00  0.00000000000E+00  0.37008641687E+03  0.37008641687E+03  0.00000000000E+00 0. -1.
         21   -1    0    0  502  503 -0.00000000000E+00 -0.00000000000E+00 -0.20971273137E+03  0.20971273137E+03  0.00000000000E+00 0.  1.
         -6    2    1    2    0  503 -0.15817532247E+03 -0.42839051668E+02 -0.66018860637E+02  0.25126141223E+03  0.17865942553E+03 0.  0.
        -24    2    3    3    0    0 -0.61882951310E+02 -0.61378256680E+02  0.16991903596E+02  0.12269703207E+03  0.84670224023E+02 0.  0.
          6    2    1    2  501    0  0.15817532247E+03  0.42839051668E+02  0.22639254613E+03  0.32853773602E+03  0.17271028359E+03 0.  0.
         24    2    5    5    0    0  0.68576756562E+02 -0.39534483324E+02  0.77059116163E+02  0.13583105324E+03  0.79033035680E+02 0.  0.
          5    1    5    5  501    0  0.89598565905E+02  0.82373534992E+02  0.14933342997E+03  0.19270668278E+03  0.47000000000E+01 0. -1.
        -11    1    6    6    0    0  0.81596743251E+02 -0.47944642055E+02  0.56994062735E+02  0.11047642463E+03  0.00000000000E+00 0.  1.
         12    1    6    6    0    0 -0.13019986689E+02  0.84101587306E+01  0.20065053427E+02  0.25354628617E+02  0.00000000000E+00 0. -1.
         -5    1    3    3    0  503 -0.96292371157E+02  0.18539205012E+02 -0.83010764233E+02  0.12856438015E+03  0.47000000000E+01 0.  1.
         11    1    4    4    0    0 -0.22340080459E+02  0.19928518152E+02  0.11659425212E+02  0.32127359477E+02  0.00000000000E+00 0. -1.
        -12    1    4    4    0    0 -0.39542870851E+02 -0.81306774832E+02  0.53324783840E+01  0.90569672598E+02  0.00000000000E+00 0.  1.
<mgrwt>
<rscale>  2 0.24133815E+03</rscale>
<asrwt>0</asrwt>
<pdfrwt beam="1">  1       21 0.56936372E-01 0.24243310E+03</pdfrwt>
<pdfrwt beam="2">  1       21 0.32263497E-01 0.24243310E+03</pdfrwt>
<totfact> 0.26096351E+04</totfact>
</mgrwt>
</event>
<event>
12    1  0.1026879E-001  0.3474404E+03  0.7546771E-02  0.1063811E+00
         21   -1    0    0  501  502  0.00000000000E+00  0.00000000000E+00  0.75013083313E+03  0.75013083313E+03  0.00000000000E+00 0. -1.
         21   -1    0    0  502  503 -0.00000000000E+00 -0.00000000000E+00 -0.16725691147E+03  0.16725691147E+03  0.00000000000E+00 0.  1.
         -6    2    1    2    0  503 -0.25060640797E+03  0.16490863073E+03  0.38552295686E+03  0.51898241667E+03  0.17526086371E+03 0.  0.
        -24    2    3    3    0    0 -0.97292189373E+02  0.14408118401E+03  0.21993102513E+03  0.29230685554E+03  0.82755569514E+02 0.  0.
          6    2    1    2  501    0  0.25060640797E+03 -0.16490863073E+03  0.19735096481E+03  0.39840532793E+03  0.17257164833E+03 0.  0.
         24    2    5    5    0    0  0.24052935478E+03 -0.18854909867E+03  0.16508554543E+03  0.35688947538E+03  0.81925131709E+02 0.  0.
          5    1    5    5  501    0  0.10077053186E+02  0.23640467937E+02  0.32265419383E+02  0.41515852553E+02  0.47000000000E+01 0. -1.
        -11    1    6    6    0    0  0.33101652117E+02  0.17966081750E+01  0.65437791557E+01  0.33790060956E+02  0.00000000000E+00 0.  1.
         12    1    6    6    0    0  0.20742770266E+03 -0.19034570684E+03  0.15854176627E+03  0.32309941442E+03  0.00000000000E+00 0. -1.
         -5    1    3    3    0  503 -0.15331421859E+03  0.20827446721E+02  0.16559193173E+03  0.22667556113E+03  0.47000000000E+01 0.  1.
         13    1    4    4    0    0 -0.64750826249E+02  0.73707283338E+02  0.18022290456E+03  0.20519680418E+03  0.00000000000E+00 0. -1.
        -14    1    4    4    0    0 -0.32541363124E+02  0.70373900670E+02  0.39708120564E+02  0.87110051361E+02  0.00000000000E+00 0.  1.
<mgrwt>
<rscale>  2 0.34710267E+03</rscale>
<asrwt>0</asrwt>
<pdfrwt beam="1">  1       21 0.11540474E+00 0.34744035E+03</pdfrwt>
<pdfrwt beam="2">  1       21 0.25731833E-01 0.34744035E+03</pdfrwt>
<totfact> 0.76376915E+03</totfact>
</mgrwt>
</event>
<event>
12    1  0.1026879E-001  0.2294092E+03  0.7546771E-02  0.1127163E+00
         21   -1    0    0  503  502  0.00000000000E+00  0.00000000000E+00  0.11486111041E+03  0.11486111041E+03  0.00000000000E+00 0.  1.
         21   -1    0    0  501  503 -0.00000000000E+00 -0.00000000000E+00 -0.56674100980E+03  0.56674100980E+03  0.00000000000E+00 0.  1.
          6    2    1    2  501    0  0.28846891784E+02 -0.14831114159E+03 -0.37567153076E+03  0.43986612863E+03  0.17182774572E+03 0.  0.
         24    2    3    3    0    0  0.36255709638E+02 -0.17377371146E+03 -0.34829181052E+03  0.40146076276E+03  0.91388070803E+02 0.  0.
         -6    2    1    2    0  502 -0.28846891784E+02  0.14831114159E+03 -0.76208368625E+02  0.24173599158E+03  0.17262744941E+03 0.  0.
        -24    2    5    5    0    0  0.28683709941E+01  0.24174484442E+02  0.13383733054E+02  0.85324348073E+02  0.80675193297E+02 0.  0.
          5    1    3    3  501    0 -0.74088178538E+01  0.25462569871E+02 -0.27379720241E+02  0.38405365861E+02  0.47000000000E+01 0. -1.
        -11    1    4    4    0    0 -0.36179386550E+01 -0.90560952376E+02 -0.25331876805E+03  0.26904418563E+03  0.00000000000E+00 0.  1.
         12    1    4    4    0    0  0.39873648293E+02 -0.83212759088E+02 -0.94973042471E+02  0.13241657713E+03  0.00000000000E+00 0. -1.
         -5    1    5    5    0  502 -0.31715262779E+02  0.12413665715E+03 -0.89592101679E+02  0.15641164351E+03  0.47000000000E+01 0.  1.
         13    1    6    6    0    0 -0.31530035670E+02 -0.25546720472E+01  0.24908673825E+02  0.40263029324E+02  0.00000000000E+00 0. -1.
        -14    1    6    6    0    0  0.34398406664E+02  0.26729156489E+02 -0.11524940771E+02  0.45061318749E+02  0.00000000000E+00 0.  1.
<mgrwt>
<rscale>  2 0.22925875E+03</rscale>
<asrwt>0</asrwt>
<pdfrwt beam="1">  1       21 0.17670940E-01 0.22940919E+03</pdfrwt>
<pdfrwt beam="2">  1       21 0.87190927E-01 0.22940919E+03</pdfrwt>
<totfact> 0.32202332E+04</totfact>
</mgrwt>
</event>
<event>
12    1  0.1026879E-001  0.2300906E+03  0.7546771E-02  0.1126727E+00
         21   -1    0    0  501  502  0.00000000000E+00  0.00000000000E+00  0.10433255292E+04  0.10433255292E+04  0.00000000000E+00 0.  1.
         21   -1    0    0  502  503 -0.00000000000E+00 -0.00000000000E+00 -0.98342640274E+02  0.98342640274E+02  0.00000000000E+00 0. -1.
         -6    2    1    2    0  503 -0.14677701657E+03 -0.37806137798E+02  0.74113767378E+02  0.24091586351E+03  0.17197327155E+03 0.  0.
        -24    2    3    3    0    0 -0.71856003179E+02  0.29708276962E+02 -0.67923242521E+01  0.11153564821E+03  0.79675581203E+02 0.  0.
          6    2    1    2  501    0  0.14677701657E+03  0.37806137798E+02  0.87086912155E+03  0.90075230597E+03  0.17311525983E+03 0.  0.
         24    2    5    5    0    0  0.15253022382E+02  0.81788665113E+01  0.48869779452E+03  0.49547049111E+03  0.79786744768E+02 0.  0.
          5    1    5    5  501    0  0.13152399419E+03  0.29627271286E+02  0.38217132704E+03  0.40528181486E+03  0.47000000000E+01 0. -1.
        -13    1    6    6    0    0  0.96365715049E+01  0.38143253021E+02  0.13941104319E+03  0.14485582565E+03  0.00000000000E+00 0.  1.
         14    1    6    6    0    0  0.56164508770E+01 -0.29964386510E+02  0.34928675133E+03  0.35061466546E+03  0.00000000000E+00 0. -1.
         -5    1    3    3    0  503 -0.74921013392E+02 -0.67514414759E+02  0.80906091630E+02  0.12938021530E+03  0.47000000000E+01 0.  1.
         13    1    4    4    0    0 -0.83467803681E+02  0.10806213093E+02  0.84987153721E+01  0.84592414882E+02  0.00000000000E+00 0. -1.
        -14    1    4    4    0    0  0.11611800501E+02  0.18902063869E+02 -0.15291039624E+02  0.26943233328E+02  0.00000000000E+00 0.  1.
<mgrwt>
<rscale>  2 0.22987582E+03</rscale>
<asrwt>0</asrwt>
<pdfrwt beam="1">  1       21 0.16051161E+00 0.23009061E+03</pdfrwt>
<pdfrwt beam="2">  1       21 0.15129638E-01 0.23009061E+03</pdfrwt>
<totfact> 0.93741437E+03</totfact>
</mgrwt>
</event>
<event>
12    1  0.1026879E-001  0.2555146E+03  0.7546771E-02  0.1109915E+00
         21   -1    0    0  503  502  0.00000000000E+00  0.00000000000E+00  0.11296404686E+04  0.11296404686E+04  0.00000000000E+00 0. -1.
         21   -1    0    0  501  503 -0.00000000000E+00 -0.00000000000E+00 -0.58172654376E+02  0.58172654376E+02  0.00000000000E+00 0.  1.
          6    2    1    2  501    0 -0.14735715088E+03  0.11604893340E+03  0.48402895596E+03  0.54733148366E+03  0.17351149225E+03 0.  0.
         24    2    3    3    0    0 -0.13443506875E+03  0.23512422371E+02  0.34564253122E+03  0.38028993604E+03  0.80783998097E+02 0.  0.
         -6    2    1    2    0  502  0.14735715088E+03 -0.11604893340E+03  0.58743885824E+03  0.64048163929E+03  0.17306309033E+03 0.  0.
        -24    2    5    5    0    0  0.94634680392E+02 -0.13095266587E+03  0.53748068603E+03  0.56618702908E+03  0.74685611810E+02 0.  0.
          5    1    3    3  501    0 -0.12922082128E+02  0.92536511034E+02  0.13838642474E+03  0.16704154763E+03  0.47000000000E+01 0. -1.
        -11    1    4    4    0    0 -0.61166490679E+02  0.42347785482E+02  0.23310238687E+03  0.24468632426E+03  0.00000000000E+00 0.  1.
         12    1    4    4    0    0 -0.73268578071E+02 -0.18835363111E+02  0.11254014435E+03  0.13560361177E+03  0.00000000000E+00 0. -1.
         -5    1    5    5    0  502  0.52722470487E+02  0.14903732461E+02  0.49958172211E+02  0.74294610209E+02  0.47000000000E+01 0.  1.
         11    1    6    6    0    0  0.50701764084E+02 -0.13336583636E+02  0.16172731228E+03  0.17001251978E+03  0.00000000000E+00 0. -1.
        -12    1    6    6    0    0  0.43932916308E+02 -0.11761608223E+03  0.37575337375E+03  0.39617450930E+03  0.00000000000E+00 0.  1.
<mgrwt>
<rscale>  2 0.25543852E+03</rscale>
<asrwt>0</asrwt>
<pdfrwt beam="1">  1       21 0.17379083E+00 0.25551462E+03</pdfrwt>
<pdfrwt beam="2">  1       21 0.89496399E-02 0.25551462E+03</pdfrwt>
<totfact> 0.19022926E+04</totfact>
</mgrwt>
</event>
<event>
12    1  0.1026879E-001  0.2011647E+03  0.7546771E-02  0.1148854E+00
         21   -1    0    0  501  502  0.00000000000E+00  0.00000000000E+00  0.17075762365E+03  0.17075762365E+03  0.00000000000E+00 0. -1.
         21   -1    0    0  502  503 -0.00000000000E+00 -0.00000000000E+00 -0.42138596130E+03  0.42138596130E+03  0.00000000000E+00 0.  1.
         -6    2    1    2    0  503  0.68658365234E+02  0.75580158504E+02 -0.32137208337E+03  0.37890212729E+03  0.17280183627E+03 0.  0.
        -24    2    3    3    0    0  0.82544570973E+02  0.33797984459E+02 -0.10917152724E+03  0.16213095116E+03  0.80075670552E+02 0.  0.
          6    2    1    2  501    0 -0.68658365234E+02 -0.75580158504E+02  0.70743745727E+02  0.21324145766E+03  0.17332313818E+03 0.  0.
         24    2    5    5    0    0 -0.56712120195E+01  0.20685207920E+02  0.51670833508E+02  0.96535552825E+02  0.78671452581E+02 0.  0.
          5    1    5    5  501    0 -0.62987153215E+02 -0.96265366424E+02  0.19072912219E+02  0.11670590484E+03  0.47000000000E+01 0. -1.
        -11    1    6    6    0    0  0.67888756256E+01  0.13678997233E+02 -0.19032499104E+02  0.24401635595E+02  0.00000000000E+00 0.  1.
         12    1    6    6    0    0 -0.12460087645E+02  0.70062106865E+01  0.70703332612E+02  0.72133917229E+02  0.00000000000E+00 0. -1.
         -5    1    3    3    0  503 -0.13886205738E+02  0.41782174045E+02 -0.21220055613E+03  0.21677117613E+03  0.47000000000E+01 0.  1.
         11    1    4    4    0    0 -0.26981777118E+01 -0.14939846589E+02 -0.37817469444E+02  0.40750953047E+02  0.00000000000E+00 0. -1.
        -12    1    4    4    0    0  0.85242748685E+02  0.48737831048E+02 -0.71354057796E+02  0.12137999812E+03  0.00000000000E+00 0.  1.
<mgrwt>
<rscale>  2 0.20105237E+03</rscale>
<asrwt>0</asrwt>
<pdfrwt beam="1">  1       21 0.26270404E-01 0.20116471E+03</pdfrwt>
<pdfrwt beam="2">  1       21 0.64828608E-01 0.20116471E+03</pdfrwt>
<totfact> 0.30054881E+04</totfact>
</mgrwt>
</event>
<event>
12    1  0.1026879E-001  0.2122524E+03  0.7546771E-02  0.1139860E+00
         21   -1    0    0  501  502  0.00000000000E+00  0.00000000000E+00  0.13967753221E+03  0.13967753221E+03  0.00000000000E+00 0. -1.
         21   -1    0    0  502  503 -0.00000000000E+00 -0.00000000000E+00 -0.32402802073E+03  0.32402802073E+03  0.00000000000E+00 0. -1.
         -6    2    1    2    0  503 -0.35937662186E+02  0.11680796677E+03 -0.11044450572E+03  0.23926775131E+03  0.17353803995E+03 0.  0.
        -24    2    3    3    0    0 -0.84185596431E+02  0.88732312674E+02 -0.46030763001E+02  0.15390191644E+03  0.81279337985E+02 0.  0.
          6    2    1    2  501    0  0.35937662186E+02 -0.11680796677E+03 -0.73905982804E+02  0.22443780163E+03  0.17313178749E+03 0.  0.
         24    2    5    5    0    0  0.13460086218E+02  0.13028926467E+02  0.28529614536E+01  0.71870158300E+02  0.69327147779E+02 0.  0.
          5    1    5    5  501    0  0.22477575968E+02 -0.12983689324E+03 -0.76758944257E+02  0.15256764333E+03  0.47000000000E+01 0. -1.
        -13    1    6    6    0    0 -0.33357150817E+01 -0.91233750389E+01 -0.28415888019E+02  0.30030412237E+02  0.00000000000E+00 0.  1.
         14    1    6    6    0    0  0.16795801300E+02  0.22152301506E+02  0.31268849472E+02  0.41839746063E+02  0.00000000000E+00 0. -1.
         -5    1    3    3    0  503  0.48247934245E+02  0.28075654094E+02 -0.64413742715E+02  0.85365834865E+02  0.47000000000E+01 0.  1.
         11    1    4    4    0    0 -0.68941409299E+02  0.10041248669E+03 -0.53840113929E+02  0.13317035431E+03  0.00000000000E+00 0. -1.
        -12    1    4    4    0    0 -0.15244187132E+02 -0.11680174018E+02  0.78093509280E+01  0.20731562130E+02  0.00000000000E+00 0.  1.
<mgrwt>
<rscale>  2 0.21216931E+03</rscale>
<asrwt>0</asrwt>
<pdfrwt beam="1">  1       21 0.21488851E-01 0.21225237E+03</pdfrwt>
<pdfrwt beam="2">  1       21 0.49850464E-01 0.21225237E+03</pdfrwt>
<totfact> 0.76711725E+04</totfact>
</mgrwt>
</event>
<event>
12    1  0.1026879E-001  0.1773171E+03  0.7546771E-02  0.1170498E+00
         21   -1    0    0  501  502  0.00000000000E+00  0.00000000000E+00  0.21553300016E+03  0.21553300016E+03  0.00000000000E+00 0.  1.
         21   -1    0    0  502  503 -0.00000000000E+00 -0.00000000000E+00 -0.20160983123E+03  0.20160983123E+03  0.00000000000E+00 0.  1.
         -6    2    1    2    0  503 -0.36749690911E+02 -0.13563218921E+02 -0.10294241376E+03  0.20477780674E+03  0.17263345242E+03 0.  0.
        -24    2    3    3    0    0 -0.27147763223E+02  0.13537512473E+02  0.10221352466E+02  0.87924160484E+02  0.81889661489E+02 0.  0.
          6    2    1    2  501    0  0.36749690911E+02  0.13563218921E+02  0.11686558269E+03  0.21236502464E+03  0.17293593781E+03 0.  0.
         24    2    5    5    0    0  0.46512237899E+02 -0.54907769690E+02  0.69927814543E+02  0.12864628311E+03  0.80509101754E+02 0.  0.
          5    1    5    5  501    0 -0.97625469878E+01  0.68470988611E+02  0.46937768143E+02  0.83718741530E+02  0.47000000000E+01 0. -1.
        -11    1    6    6    0    0  0.12266433413E+02 -0.11563540565E+01  0.63392073961E+02  0.64578305835E+02  0.00000000000E+00 0.  1.
         12    1    6    6    0    0  0.34245804487E+02 -0.53751415634E+02  0.65357405821E+01  0.64067977278E+02  0.00000000000E+00 0. -1.
         -5    1    3    3    0  503 -0.96019276883E+01 -0.27100731394E+02 -0.11316376623E+03  0.11685364626E+03  0.47000000000E+01 0.  1.
         13    1    4    4    0    0  0.46927988948E+00  0.42296486017E+02 -0.96333217554E+01  0.43382183452E+02  0.00000000000E+00 0. -1.
        -14    1    4    4    0    0 -0.27617043113E+02 -0.28758973544E+02  0.19854674221E+02  0.44541977033E+02  0.00000000000E+00 0.  1.
<mgrwt>
<rscale>  2 0.17724326E+03</rscale>
<asrwt>0</asrwt>
<pdfrwt beam="1">  1       21 0.33158923E-01 0.17731706E+03</pdfrwt>
<pdfrwt beam="2">  1       21 0.31016897E-01 0.17731706E+03</pdfrwt>
<totfact> 0.87969034E+04</totfact>
</mgrwt>
</event>
<event>
12    1  0.1026879E-001  0.2032873E+03  0.7546771E-02  0.1147611E+00
         21   -1    0    0  501  502  0.00000000000E+00  0.00000000000E+00  0.28465602944E+03  0.28465602944E+03  0.00000000000E+00 0.  1.
         21   -1    0    0  502  503 -0.00000000000E+00 -0.00000000000E+00 -0.17645435558E+03  0.17645435558E+03  0.00000000000E+00 0.  1.
         -6    2    1    2    0  503  0.41378444229E+02 -0.88275253547E+02 -0.46502742811E+02  0.20565159997E+03  0.17500108413E+03 0.  0.
        -24    2    3    3    0    0  0.63760338688E+02 -0.67660958322E+01 -0.60345997478E+02  0.11987038005E+03  0.81339460043E+02 0.  0.
          6    2    1    2  501    0 -0.41378444229E+02  0.88275253547E+02  0.15470441667E+03  0.25545878505E+03  0.17838452368E+03 0.  0.
         24    2    5    5    0    0 -0.51924094965E+01 -0.23502164637E+02  0.71933475863E+02  0.11166469975E+03  0.81946734908E+02 0.  0.
          5    1    5    5  501    0 -0.36186034732E+02  0.11177741818E+03  0.82770940806E+02  0.14379408530E+03  0.47000000000E+01 0. -1.
        -11    1    6    6    0    0  0.10158667844E+02  0.21402027122E+02  0.57299568280E+02  0.62003917799E+02  0.00000000000E+00 0.  1.
         12    1    6    6    0    0 -0.15351077341E+02 -0.44904191760E+02  0.14633907582E+02  0.49660781954E+02  0.00000000000E+00 0. -1.
         -5    1    3    3    0  503 -0.22381894459E+02 -0.81509157715E+02  0.13843254667E+02  0.85781219919E+02  0.47000000000E+01 0.  1.
         11    1    4    4    0    0 -0.19702205448E+02 -0.18379258686E+01 -0.14370037484E+02  0.24455119061E+02  0.00000000000E+00 0. -1.
        -12    1    4    4    0    0  0.83462544136E+02 -0.49281699636E+01 -0.45975959994E+02  0.95415260992E+02  0.00000000000E+00 0.  1.
<mgrwt>
<rscale>  2 0.20254264E+03</rscale>
<asrwt>0</asrwt>
<pdfrwt beam="1">  1       21 0.43793235E-01 0.20328732E+03</pdfrwt>
<pdfrwt beam="2">  1       21 0.27146824E-01 0.20328732E+03</pdfrwt>
<totfact> 0.64485189E+04</totfact>
</mgrwt>
</event>
<event>
12    1  0.1026879E-001  0.2133392E+03  0.7546771E-02  0.1139024E+00
         21   -1    0    0  501  502  0.00000000000E+00  0.00000000000E+00  0.14599394717E+03  0.14599394717E+03  0.00000000000E+00 0.  1.
         21   -1    0    0  502  503 -0.00000000000E+00 -0.00000000000E+00 -0.40892706749E+03  0.40892706749E+03  0.00000000000E+00 0. -1.
         -6    2    1    2    0  503  0.92179378338E+01 -0.12375280631E+03 -0.26702808382E+03  0.34154250074E+03  0.17305361832E+03 0.  0.
        -24    2    3    3    0    0  0.66761952375E+02 -0.11594148310E+03 -0.16775224212E+03  0.22643336502E+03  0.72330272173E+02 0.  0.
          6    2    1    2  501    0 -0.92179378338E+01  0.12375280631E+03  0.40949634954E+01  0.21337851391E+03  0.17353355303E+03 0.  0.
         24    2    5    5    0    0 -0.53146992512E+02  0.12601347171E+03  0.32515047762E+02  0.16079844504E+03  0.78069928464E+02 0.  0.
          5    1    5    5  501    0  0.43929054679E+02 -0.22606653981E+01 -0.28420084266E+02  0.52580068873E+02  0.47000000000E+01 0. -1.
        -13    1    6    6    0    0 -0.11158210698E+02  0.78812421146E+02  0.51532763134E+02  0.94823673568E+02  0.00000000000E+00 0.  1.
         14    1    6    6    0    0 -0.41988781814E+02  0.47201050567E+02 -0.19017715372E+02  0.65974771473E+02  0.00000000000E+00 0. -1.
         -5    1    3    3    0  503 -0.57544014541E+02 -0.78113232174E+01 -0.99275841699E+02  0.11510913571E+03  0.47000000000E+01 0.  1.
         11    1    4    4    0    0 -0.12203644815E+02 -0.16860118129E+02 -0.74500115388E+01  0.22106451593E+02  0.00000000000E+00 0. -1.
        -12    1    4    4    0    0  0.78965597190E+02 -0.99081364969E+02 -0.16030223058E+03  0.20432691343E+03  0.00000000000E+00 0.  1.
<mgrwt>
<rscale>  2 0.21324160E+03</rscale>
<asrwt>0</asrwt>
<pdfrwt beam="1">  1       21 0.22460608E-01 0.21333922E+03</pdfrwt>
<pdfrwt beam="2">  1       21 0.62911856E-01 0.21333922E+03</pdfrwt>
<totfact> 0.42980456E+04</totfact>
</mgrwt>
</event>
<event>
12    1  0.1026879E-001  0.1979959E+03  0.7546771E-02  0.1151467E+00
         21   -1    0    0  503  502  0.00000000000E+00  0.00000000000E+00  0.14342536247E+03  0.14342536247E+03  0.00000000000E+00 0. -1.
         21   -1    0    0  501  503 -0.00000000000E+00 -0.00000000000E+00 -0.27393452891E+03  0.27393452891E+03  0.00000000000E+00 0. -1.
          6    2    1    2  501    0  0.80162348322E+02 -0.53633126499E+02 -0.76317992927E+02  0.21208188442E+03  0.17277666308E+03 0.  0.
         24    2    3    3    0    0  0.41910769310E+02  0.37804842805E+02 -0.33620437081E+02  0.10405755011E+03  0.80696475891E+02 0.  0.
         -6    2    1    2    0  502 -0.80162348322E+02  0.53633126499E+02 -0.54191173511E+02  0.20527800697E+03  0.17291576710E+03 0.  0.
        -24    2    5    5    0    0 -0.78680432600E+02  0.78280846541E+02  0.93750493344E+01  0.13692260584E+03  0.79632951909E+02 0.  0.
          5    1    3    3  501    0  0.38251579012E+02 -0.91437969304E+02 -0.42697555846E+02  0.10802433431E+03  0.47000000000E+01 0. -1.
        -11    1    4    4    0    0  0.64530343077E+02  0.17800450359E+02 -0.30932695490E+02  0.73741798601E+02  0.00000000000E+00 0.  1.
         12    1    4    4    0    0 -0.22619573767E+02  0.20004392446E+02 -0.26877415915E+01  0.30315751507E+02  0.00000000000E+00 0. -1.
         -5    1    5    5    0  502 -0.14819157212E+01 -0.24647720041E+02 -0.63566222846E+02  0.68355401135E+02  0.47000000000E+01 0.  1.
         13    1    6    6    0    0 -0.24601624986E+02  0.13451991425E+02  0.38489778765E+02  0.47619944295E+02  0.00000000000E+00 0. -1.
        -14    1    6    6    0    0 -0.54078807614E+02  0.64828855116E+02 -0.29114729431E+02  0.89302661542E+02  0.00000000000E+00 0.  1.
<mgrwt>
<rscale>  2 0.19796553E+03</rscale>
<asrwt>0</asrwt>
<pdfrwt beam="1">  1       21 0.22065441E-01 0.19799590E+03</pdfrwt>
<pdfrwt beam="2">  1       21 0.42143773E-01 0.19799590E+03</pdfrwt>
<totfact> 0.10378872E+05</totfact>
</mgrwt>
</event>
<event>
12    1  0.1026879E-001  0.2005643E+03  0.7546771E-02  0.1149795E+00
         21   -1    0    0  501  502  0.00000000000E+00  0.00000000000E+00  0.17922595047E+04  0.17922595047E+04  0.00000000000E+00 0.  1.
         21   -1    0    0  502  503 -0.00000000000E+00 -0.00000000000E+00 -0.34602481104E+02  0.34602481104E+02  0.00000000000E+00 0. -1.
         -6    2    1    2    0  503 -0.98303951009E+02 -0.13867944207E+02  0.32763252077E+03  0.38284116888E+03  0.17137183335E+03 0.  0.
        -24    2    3    3    0    0 -0.22678177787E+01 -0.18617275502E+02  0.73115904226E+02  0.11072668355E+03  0.81010598406E+02 0.  0.
          6    2    1    2  501    0  0.98303951009E+02  0.13867944207E+02  0.14300245029E+04  0.14440208169E+04  0.17427006155E+03 0.  0.
         24    2    5    5    0    0  0.35501490594E+01  0.12265870446E+02  0.10038796913E+04  0.10074405379E+04  0.83659713701E+02 0.  0.
          5    1    5    5  501    0  0.94753801950E+02  0.16020737613E+01  0.42614481158E+03  0.43658027906E+03  0.47000000000E+01 0. -1.
        -13    1    6    6    0    0 -0.21957681539E+02 -0.89371876672E+01  0.83487987266E+03  0.83521638805E+03  0.00000000000E+00 0.  1.
         14    1    6    6    0    0  0.25507830598E+02  0.21203058113E+02  0.16899981861E+03  0.17222414983E+03  0.00000000000E+00 0. -1.
         -5    1    3    3    0  503 -0.96036133230E+02  0.47493312949E+01  0.25451661654E+03  0.27211448533E+03  0.47000000000E+01 0.  1.
         13    1    4    4    0    0 -0.54862213122E+01 -0.20680455785E+02 -0.12663254063E+02  0.24862378793E+02  0.00000000000E+00 0. -1.
        -14    1    4    4    0    0  0.32184035336E+01  0.20631802833E+01  0.85779158289E+02  0.85864304754E+02  0.00000000000E+00 0.  1.
<mgrwt>
<rscale>  2 0.19993306E+03</rscale>
<asrwt>0</asrwt>
<pdfrwt beam="1">  1       21 0.27573216E+00 0.20056431E+03</pdfrwt>
<pdfrwt beam="2">  1       21 0.53234600E-02 0.20056431E+03</pdfrwt>
<totfact> 0.11300600E+04</totfact>
</mgrwt>
</event>
<event>
12    1  0.1026879E-001  0.1866876E+03  0.7546771E-02  0.1161506E+00
         21   -1    0    0  503  502  0.00000000000E+00  0.00000000000E+00  0.90769954031E+03  0.90769954031E+03  0.00000000000E+00 0. -1.
         21   -1    0    0  501  503 -0.00000000000E+00 -0.00000000000E+00 -0.42597280385E+02  0.42597280385E+02  0.00000000000E+00 0. -1.
          6    2    1    2  501    0 -0.74083488540E+02  0.23798436168E+01  0.28287773995E+03  0.33887417935E+03  0.17123628921E+03 0.  0.
         24    2    3    3    0    0  0.23366897361E+02  0.48966081848E+01  0.85695589999E+02  0.11886099321E+03  0.78830279072E+02 0.  0.
         -6    2    1    2    0  502  0.74083488540E+02 -0.23798436168E+01  0.58222451998E+03  0.61142264134E+03  0.17134242835E+03 0.  0.
        -24    2    5    5    0    0 -0.51467170454E+01  0.44976271946E+02  0.34183723021E+03  0.35388008906E+03  0.79555463267E+02 0.  0.
          5    1    3    3  501    0 -0.97450385901E+02 -0.25167645681E+01  0.19718214995E+03  0.22001318614E+03  0.47000000000E+01 0. -1.
        -11    1    4    4    0    0 -0.11271728740E+02  0.17798640606E+02 -0.43605782024E+01  0.21514137642E+02  0.00000000000E+00 0.  1.
         12    1    4    4    0    0  0.34638626101E+02 -0.12902032421E+02  0.90056168201E+02  0.97346855573E+02  0.00000000000E+00 0. -1.
         -5    1    5    5    0  502  0.79230205586E+02 -0.47356115563E+02  0.24038728976E+03  0.25754255229E+03  0.47000000000E+01 0.  1.
         11    1    6    6    0    0  0.32009486098E+00 -0.20724489819E+02  0.14057737391E+03  0.14209716744E+03  0.00000000000E+00 0. -1.
        -12    1    6    6    0    0 -0.54668119064E+01  0.65700761766E+02  0.20125985631E+03  0.21178292162E+03  0.00000000000E+00 0.  1.
<mgrwt>
<rscale>  2 0.18666323E+03</rscale>
<asrwt>0</asrwt>
<pdfrwt beam="1">  1       21 0.13964607E+00 0.18668759E+03</pdfrwt>
<pdfrwt beam="2">  1       21 0.65534284E-02 0.18668759E+03</pdfrwt>
<totfact> 0.61228260E+04</totfact>
</mgrwt>
</event>
<event>
12    1  0.1026879E-001  0.2312547E+03  0.7546771E-02  0.1125856E+00
         21   -1    0    0  501  502  0.00000000000E+00  0.00000000000E+00  0.42002031178E+03  0.42002031178E+03  0.00000000000E+00 0. -1.
         21   -1    0    0  502  503 -0.00000000000E+00 -0.00000000000E+00 -0.17346606012E+03  0.17346606012E+03  0.00000000000E+00 0.  1.
         -6    2    1    2    0  503  0.12333306110E+03  0.90688532288E+02 -0.30162011868E+02  0.23321342106E+03  0.17333002901E+03 0.  0.
        -24    2    3    3    0    0  0.14806969118E+03  0.50756783598E+02  0.65447589615E+01  0.17341440397E+03  0.74356150425E+02 0.  0.
          6    2    1    2  501    0 -0.12333306110E+03 -0.90688532288E+02  0.27671626352E+03  0.36027295084E+03  0.17259563946E+03 0.  0.
         24    2    5    5    0    0 -0.13382381881E+03 -0.79578281354E+02  0.29041410767E+03  0.33922028812E+03  0.80551428248E+02 0.  0.
          5    1    5    5  501    0  0.10490757709E+02 -0.11110250934E+02 -0.13697844151E+02  0.21052662718E+02  0.47000000000E+01 0. -1.
        -13    1    6    6    0    0 -0.23846070926E+02 -0.58515343291E+02  0.98417078560E+02  0.11695555503E+03  0.00000000000E+00 0.  1.
         14    1    6    6    0    0 -0.10997774788E+03 -0.21062938063E+02  0.19199702912E+03  0.22226473310E+03  0.00000000000E+00 0. -1.
         -5    1    3    3    0  503 -0.24736630079E+02  0.39931748691E+02 -0.36706770830E+02  0.59799017098E+02  0.47000000000E+01 0.  1.
         11    1    4    4    0    0  0.47663481369E+02  0.90734442163E+01  0.36422131999E+02  0.60668826802E+02  0.00000000000E+00 0. -1.
        -12    1    4    4    0    0  0.10040620981E+03  0.41683339381E+02 -0.29877373038E+02  0.11274557716E+03  0.00000000000E+00 0.  1.
<mgrwt>
<rscale>  2 0.23111713E+03</rscale>
<asrwt>0</asrwt>
<pdfrwt beam="1">  1       21 0.64618509E-01 0.23125474E+03</pdfrwt>
<pdfrwt beam="2">  1       21 0.26687086E-01 0.23125474E+03</pdfrwt>
<totfact> 0.28909065E+04</totfact>
</mgrwt>
</event>
<event>
12    1  0.1026879E-001  0.2396497E+03  0.7546771E-02  0.1120433E+00
         21   -1    0    0  501  502  0.00000000000E+00  0.00000000000E+00  0.95096902257E+02  0.95096902257E+02  0.00000000000E+00 0.  1.
         21   -1    0    0  502  503 -0.00000000000E+00 -0.00000000000E+00 -0.64227149525E+03  0.64227149525E+03  0.00000000000E+00 0.  1.
         -6    2    1    2    0  503  0.10979256807E+03 -0.12080476405E+03 -0.36926179841E+03  0.43889736372E+03  0.17212908266E+03 0.  0.
        -24    2    3    3    0    0  0.78556812390E+02 -0.14580619490E+03 -0.23208214726E+03  0.29592502140E+03  0.79239358745E+02 0.  0.
          6    2    1    2  501    0 -0.10979256807E+03  0.12080476405E+03 -0.17791279459E+03  0.29847103379E+03  0.17545311770E+03 0.  0.
         24    2    5    5    0    0 -0.65410604589E+02  0.13131156869E+03 -0.69424153855E+02  0.18069146512E+03  0.79425544796E+02 0.  0.
          5    1    5    5  501    0 -0.44381963486E+02 -0.10506804639E+02 -0.10848864074E+03  0.11777956867E+03  0.47000000000E+01 0. -1.
        -13    1    6    6    0    0 -0.26183801593E+02  0.83840583071E+01  0.99035410396E+01  0.29222662861E+02  0.00000000000E+00 0.  1.
         14    1    6    6    0    0 -0.39226802997E+02  0.12292751038E+03 -0.79327694894E+02  0.15146880226E+03  0.00000000000E+00 0. -1.
         -5    1    3    3    0  503  0.31235755685E+02  0.25001430848E+02 -0.13717965115E+03  0.14297234232E+03  0.47000000000E+01 0.  1.
         11    1    4    4    0    0  0.88356599659E+02 -0.11680285915E+03 -0.21699524362E+03  0.26179521073E+03  0.00000000000E+00 0. -1.
        -12    1    4    4    0    0 -0.97997872692E+01 -0.29003335749E+02 -0.15086903635E+02  0.34129810670E+02  0.00000000000E+00 0.  1.
<mgrwt>
<rscale>  2 0.23904173E+03</rscale>
<asrwt>0</asrwt>
<pdfrwt beam="1">  1       21 0.14630292E-01 0.23964974E+03</pdfrwt>
<pdfrwt beam="2">  1       21 0.98811002E-01 0.23964974E+03</pdfrwt>
<totfact> 0.33831901E+04</totfact>
</mgrwt>
</event>
<event>
12    1  0.1026879E-001  0.2580287E+03  0.7546771E-02  0.1108467E+00
         21   -1    0    0  501  502  0.00000000000E+00  0.00000000000E+00  0.29884276311E+03  0.29884276311E+03  0.00000000000E+00 0. -1.
         21   -1    0    0  502  503 -0.00000000000E+00 -0.00000000000E+00 -0.27398211198E+03  0.27398211198E+03  0.00000000000E+00 0. -1.
         -6    2    1    2    0  503  0.17251172348E+03  0.80754758744E+02 -0.11230601632E+03  0.28060317484E+03  0.17275379772E+03 0.  0.
        -24    2    3    3    0    0  0.17711330357E+03  0.48054523648E+02 -0.44763120604E+02  0.20527314977E+03  0.80342824869E+02 0.  0.
          6    2    1    2  501    0 -0.17251172348E+03 -0.80754758744E+02  0.13716666745E+03  0.29222170024E+03  0.17406091358E+03 0.  0.
         24    2    5    5    0    0 -0.14574002052E+03 -0.97000750487E+02  0.50290236971E+02  0.19975408159E+03  0.81995646230E+02 0.  0.
          5    1    5    5  501    0 -0.26771702965E+02  0.16245991743E+02  0.86876430479E+02  0.92467618658E+02  0.47000000000E+01 0. -1.
        -11    1    6    6    0    0 -0.52652042996E+02 -0.20429345290E+01 -0.10195353271E+02  0.53668952305E+02  0.00000000000E+00 0.  1.
         12    1    6    6    0    0 -0.93087977521E+02 -0.94957815958E+02  0.60485590242E+02  0.14608512928E+03  0.00000000000E+00 0. -1.
         -5    1    3    3    0  503 -0.46015800837E+01  0.32700235096E+02 -0.67542895716E+02  0.75330025065E+02  0.47000000000E+01 0.  1.
         11    1    4    4    0    0  0.10739802684E+03  0.53742593553E+02 -0.59136658770E+02  0.13386465904E+03  0.00000000000E+00 0. -1.
        -12    1    4    4    0    0  0.69715276731E+02 -0.56880699052E+01  0.14373538166E+02  0.71408490730E+02  0.00000000000E+00 0.  1.
<mgrwt>
<rscale>  2 0.25780847E+03</rscale>
<asrwt>0</asrwt>
<pdfrwt beam="1">  1       21 0.45975810E-01 0.25802873E+03</pdfrwt>
<pdfrwt beam="2">  1       21 0.42151094E-01 0.25802873E+03</pdfrwt>
<totfact> 0.23743268E+04</totfact>
</mgrwt>
</event>
<event>
12    1  0.1026879E-001  0.1746554E+03  0.7546771E-02  0.1173133E+00
         21   -1    0    0  501  502  0.00000000000E+00  0.00000000000E+00  0.20125316734E+03  0.20125316734E+03  0.00000000000E+00 0.  1.
         21   -1    0    0  502  503 -0.00000000000E+00 -0.00000000000E+00 -0.15155978886E+03  0.15155978886E+03  0.00000000000E+00 0.  1.
         -6    2    1    2    0  503 -0.85658555575E+01  0.28392675157E+02  0.30878816900E+02  0.17736402200E+03  0.17211907821E+03 0.  0.
        -24    2    3    3    0    0 -0.66289281839E+02  0.32696479558E+02  0.46269427085E+02  0.11728509428E+03  0.78432166841E+02 0.  0.
          6    2    1    2  501    0  0.85658555575E+01 -0.28392675157E+02  0.18814561578E+02  0.17544893420E+03  0.17189771057E+03 0.  0.
         24    2    5    5    0    0 -0.56996767235E+02 -0.14199941349E+02  0.35696381241E+02  0.10611656776E+03  0.80846920227E+02 0.  0.
          5    1    5    5  501    0  0.65562622792E+02 -0.14192733808E+02 -0.16881819663E+02  0.69332366435E+02  0.47000000000E+01 0. -1.
        -11    1    6    6    0    0  0.35666685328E+01  0.18897853149E+02  0.31582056756E+02  0.36976699244E+02  0.00000000000E+00 0.  1.
         12    1    6    6    0    0 -0.60563435768E+02 -0.33097794498E+02  0.41143244854E+01  0.69139868517E+02  0.00000000000E+00 0. -1.
         -5    1    3    3    0  503  0.57723426282E+02 -0.43038044002E+01 -0.15390610185E+02  0.60078927719E+02  0.47000000000E+01 0.  1.
         11    1    4    4    0    0 -0.52726639879E+01 -0.17894280236E+02  0.31572802807E+02  0.36672171026E+02  0.00000000000E+00 0. -1.
        -12    1    4    4    0    0 -0.61016617852E+02  0.50590759793E+02  0.14696624278E+02  0.80612923255E+02  0.00000000000E+00 0.  1.
<mgrwt>
<rscale>  2 0.17460080E+03</rscale>
<asrwt>0</asrwt>
<pdfrwt beam="1">  1       21 0.30962025E-01 0.17465536E+03</pdfrwt>
<pdfrwt beam="2">  1       21 0.23316891E-01 0.17465536E+03</pdfrwt>
<totfact> 0.17422586E+05</totfact>
</mgrwt>
</event>
<event>
12    1  0.1026879E-001  0.1979315E+03  0.7546771E-02  0.1151677E+00
         21   -1    0    0  501  502  0.00000000000E+00  0.00000000000E+00  0.26845722911E+03  0.26845722911E+03  0.00000000000E+00 0. -1.
         21   -1    0    0  502  503 -0.00000000000E+00 -0.00000000000E+00 -0.16270755978E+03  0.16270755978E+03  0.00000000000E+00 0.  1.
         -6    2    1    2    0  503 -0.65329365551E+02  0.67232624702E+02 -0.17514181680E+02  0.19870488228E+03  0.17432364113E+03 0.  0.
        -24    2    3    3    0    0 -0.11177290976E+03  0.60903431051E+02 -0.14512651060E+02  0.15150148540E+03  0.80868237070E+02 0.  0.
          6    2    1    2  501    0  0.65329365551E+02 -0.67232624702E+02  0.12326385101E+03  0.23245990660E+03  0.17336516196E+03 0.  0.
         24    2    5    5    0    0  0.24417761690E+02 -0.23953429577E+02 -0.82320920221E+01  0.88029573583E+02  0.80693522737E+02 0.  0.
          5    1    5    5  501    0  0.40911603861E+02 -0.43279195124E+02  0.13149594303E+03  0.14443033301E+03  0.47000000000E+01 0. -1.
        -13    1    6    6    0    0  0.54043296711E+02 -0.12541902294E+02 -0.10973653100E+01  0.55490372526E+02  0.00000000000E+00 0.  1.
         14    1    6    6    0    0 -0.29625535020E+02 -0.11411527283E+02 -0.71347267121E+01  0.32539201057E+02  0.00000000000E+00 0. -1.
         -5    1    3    3    0  503  0.46443544213E+02  0.63291936506E+01 -0.30015306197E+01  0.47203396884E+02  0.47000000000E+01 0.  1.
         11    1    4    4    0    0  0.10055534802E+02  0.50849309558E+01  0.10242008989E+02  0.15227246997E+02  0.00000000000E+00 0. -1.
        -12    1    4    4    0    0 -0.12182844457E+03  0.55818500095E+02 -0.24754660049E+02  0.13627423840E+03  0.00000000000E+00 0.  1.
<mgrwt>
<rscale>  2 0.19772027E+03</rscale>
<asrwt>0</asrwt>
<pdfrwt beam="1">  1       21 0.41301112E-01 0.19793151E+03</pdfrwt>
<pdfrwt beam="2">  1       21 0.25031932E-01 0.19793151E+03</pdfrwt>
<totfact> 0.85113344E+04</totfact>
</mgrwt>
</event>
<event>
12    1  0.1026879E-001  0.1951043E+03  0.7546771E-02  0.1154356E+00
         21   -1    0    0  501  502  0.00000000000E+00  0.00000000000E+00  0.28687809138E+02  0.28687809138E+02  0.00000000000E+00 0.  1.
         21   -1    0    0  502  503 -0.00000000000E+00 -0.00000000000E+00 -0.13146590018E+04  0.13146590018E+04  0.00000000000E+00 0.  1.
         -6    2    1    2    0  503  0.90615300527E+02  0.52461476284E+01 -0.63015417689E+03  0.65966656170E+03  0.17270504108E+03 0.  0.
        -24    2    3    3    0    0  0.42493557022E+02 -0.88327388909E+01 -0.58448142855E+03  0.59168121633E+03  0.81144326816E+02 0.  0.
          6    2    1    2  501    0 -0.90615300527E+02 -0.52461476284E+01 -0.65581701578E+03  0.68368024925E+03  0.17054052384E+03 0.  0.
         24    2    5    5    0    0 -0.12465806324E+03  0.19625628470E+02 -0.54048734294E+03  0.56079600137E+03  0.80254527909E+02 0.  0.
          5    1    5    5  501    0  0.34042762714E+02 -0.24871776098E+02 -0.11532967284E+03  0.12288424788E+03  0.47000000000E+01 0. -1.
        -13    1    6    6    0    0 -0.10355465925E+03  0.48022827475E+02 -0.41675309418E+03  0.43210288233E+03  0.00000000000E+00 0.  1.
         14    1    6    6    0    0 -0.21103403987E+02 -0.28397199005E+02 -0.12373424876E+03  0.12869311904E+03  0.00000000000E+00 0. -1.
         -5    1    3    3    0  503  0.48121743504E+02  0.14078886519E+02 -0.45672748338E+02  0.67985345364E+02  0.47000000000E+01 0.  1.
         13    1    4    4    0    0  0.16117997952E+02 -0.35236100245E+02 -0.12952156336E+03  0.13519322466E+03  0.00000000000E+00 0. -1.
        -14    1    4    4    0    0  0.26375559070E+02  0.26403361354E+02 -0.45495986519E+03  0.45648799167E+03  0.00000000000E+00 0.  1.
<mgrwt>
<rscale>  2 0.19462418E+03</rscale>
<asrwt>0</asrwt>
<pdfrwt beam="1">  1       21 0.44135097E-02 0.19510430E+03</pdfrwt>
<pdfrwt beam="2">  1       21 0.20225520E+00 0.19510430E+03</pdfrwt>
<totfact> 0.43066916E+04</totfact>
</mgrwt>
</event>
<event>
12    1  0.1026879E-001  0.1935529E+03  0.7546771E-02  0.1155424E+00
         21   -1    0    0  501  502  0.00000000000E+00  0.00000000000E+00  0.38501040117E+03  0.38501040117E+03  0.00000000000E+00 0. -1.
         21   -1    0    0  502  503 -0.00000000000E+00 -0.00000000000E+00 -0.61751456830E+03  0.61751456830E+03  0.00000000000E+00 0. -1.
         -6    2    1    2    0  503 -0.74424804591E+02  0.41343590496E+02 -0.57643225796E+03  0.60787415103E+03  0.17317185529E+03 0.  0.
        -24    2    3    3    0    0 -0.11130857778E+03  0.62682698462E+02 -0.48302587356E+03  0.50509957781E+03  0.74113890771E+02 0.  0.
          6    2    1    2  501    0  0.74424804591E+02 -0.41343590496E+02  0.34392809083E+03  0.39465081843E+03  0.17382287770E+03 0.  0.
         24    2    5    5    0    0 -0.54715105481E+01 -0.60585038446E+02  0.25131601089E+03  0.27074463681E+03  0.80264791303E+02 0.  0.
          5    1    5    5  501    0  0.79896315139E+02  0.19241447950E+02  0.92612079946E+02  0.12390618162E+03  0.47000000000E+01 0. -1.
        -13    1    6    6    0    0 -0.25426658215E+02 -0.22781084647E+02  0.30343014108E+02  0.45674842866E+02  0.00000000000E+00 0.  1.
         14    1    6    6    0    0  0.19955147667E+02 -0.37803953799E+02  0.22097299678E+03  0.22506979395E+03  0.00000000000E+00 0. -1.
         -5    1    3    3    0  503  0.36883773191E+02 -0.21339107966E+02 -0.93406384404E+02  0.10277457322E+03  0.47000000000E+01 0.  1.
         11    1    4    4    0    0 -0.24208404567E+02 -0.64046377398E+01 -0.19088159964E+03  0.19251714552E+03  0.00000000000E+00 0. -1.
        -12    1    4    4    0    0 -0.87100173215E+02  0.69087336202E+02 -0.29214427392E+03  0.31258243230E+03  0.00000000000E+00 0.  1.
<mgrwt>
<rscale>  2 0.19340665E+03</rscale>
<asrwt>0</asrwt>
<pdfrwt beam="1">  1       21 0.59232369E-01 0.19355293E+03</pdfrwt>
<pdfrwt beam="2">  1       21 0.95002241E-01 0.19355293E+03</pdfrwt>
<totfact> 0.24656199E+03</totfact>
</mgrwt>
</event>
<event>
12    1  0.1026879E-001  0.1979231E+03  0.7546771E-02  0.1155781E+00
         21   -1    0    0  501  502  0.00000000000E+00  0.00000000000E+00  0.42973673777E+03  0.42973673777E+03  0.00000000000E+00 0. -1.
         21   -1    0    0  502  503 -0.00000000000E+00 -0.00000000000E+00 -0.20348104541E+03  0.20348104541E+03  0.00000000000E+00 0. -1.
         -6    2    1    2    0  503 -0.87194332641E+02  0.40354292094E+02  0.35468516243E+03  0.39727781715E+03  0.15098602258E+03 0.  0.
        -24    2    3    3    0    0 -0.10917352354E+03  0.59122880949E+02  0.27728215131E+03  0.31452118061E+03  0.81386782259E+02 0.  0.
          6    2    1    2  501    0  0.87194332641E+02 -0.40354292094E+02 -0.12842947007E+03  0.23593996603E+03  0.17303819883E+03 0.  0.
         24    2    5    5    0    0  0.11555730540E+03 -0.33536269399E+02 -0.14262630700E+03  0.20315912047E+03  0.80331765737E+02 0.  0.
          5    1    5    5  501    0 -0.28362972760E+02 -0.68180226954E+01  0.14196836924E+02  0.32780845564E+02  0.47000000000E+01 0. -1.
        -11    1    6    6    0    0  0.68655516491E+02 -0.22311906127E+02 -0.25615993740E+02  0.76600132082E+02  0.00000000000E+00 0.  1.
         12    1    6    6    0    0  0.46901788910E+02 -0.11224363272E+02 -0.11701031326E+03  0.12655898839E+03  0.00000000000E+00 0. -1.
         -5    1    3    3    0  503  0.21979190897E+02 -0.18768588855E+02  0.77403011128E+02  0.82756636542E+02  0.47000000000E+01 0.  1.
         13    1    4    4    0    0 -0.57843674983E+02 -0.38014285326E+01  0.17234975106E+03  0.18183723020E+03  0.00000000000E+00 0. -1.
        -14    1    4    4    0    0 -0.51329848556E+02  0.62924309482E+02  0.10493240024E+03  0.13268395041E+03  0.00000000000E+00 0.  1.
<mgrwt>
<rscale>  2 0.19300284E+03</rscale>
<asrwt>0</asrwt>
<pdfrwt beam="1">  1       21 0.66113344E-01 0.19792306E+03</pdfrwt>
<pdfrwt beam="2">  1       21 0.31304776E-01 0.19792306E+03</pdfrwt>
<totfact> 0.20529724E+04</totfact>
</mgrwt>
</event>
<event>
12    1  0.1026879E-001  0.2261193E+03  0.7546771E-02  0.1129899E+00
         21   -1    0    0  501  502  0.00000000000E+00  0.00000000000E+00  0.50762584161E+02  0.50762584161E+02  0.00000000000E+00 0.  1.
         21   -1    0    0  502  503 -0.00000000000E+00 -0.00000000000E+00 -0.18124861411E+04  0.18124861411E+04  0.00000000000E+00 0. -1.
         -6    2    1    2    0  503 -0.79885782838E+02 -0.11495893538E+03 -0.15094630504E+04  0.15263055571E+04  0.17757437348E+03 0.  0.
        -24    2    3    3    0    0 -0.81352256695E+02 -0.10340760569E+02 -0.97364175036E+03  0.98034432352E+03  0.79822387884E+02 0.  0.
          6    2    1    2  501    0  0.79885782838E+02  0.11495893538E+03 -0.25226050663E+03  0.33694316821E+03  0.17406332260E+03 0.  0.
         24    2    5    5    0    0  0.10830152116E+03  0.12624974080E+03 -0.24136409512E+03  0.30414441433E+03  0.81110922938E+02 0.  0.
          5    1    5    5  501    0 -0.28415738326E+02 -0.11290805428E+02 -0.10896411510E+02  0.32798753872E+02  0.47000000000E+01 0. -1.
        -13    1    6    6    0    0  0.21255423013E+02  0.69897723692E+02 -0.57170283977E+02  0.92768131138E+02  0.00000000000E+00 0.  1.
         14    1    6    6    0    0  0.87046098151E+02  0.56352017111E+02 -0.18419381114E+03  0.21137628320E+03  0.00000000000E+00 0. -1.
         -5    1    3    3    0  503  0.14664738570E+01 -0.10461817481E+03 -0.53582130000E+03  0.54596123359E+03  0.47000000000E+01 0.  1.
         13    1    4    4    0    0 -0.31939484482E+02 -0.22537208078E+01 -0.76899677744E+03  0.76966307800E+03  0.00000000000E+00 0. -1.
        -14    1    4    4    0    0 -0.49412772214E+02 -0.80870397607E+01 -0.20464497292E+03  0.21068124551E+03  0.00000000000E+00 0.  1.
<mgrwt>
<rscale>  2 0.22542951E+03</rscale>
<asrwt>0</asrwt>
<pdfrwt beam="1">  1       21 0.78096287E-02 0.22611933E+03</pdfrwt>
<pdfrwt beam="2">  1       21 0.27884401E+00 0.22611933E+03</pdfrwt>
<totfact> 0.54635375E+03</totfact>
</mgrwt>
</event>
<event>
12    1  0.1026879E-001  0.1889605E+03  0.7546771E-02  0.1159489E+00
         21   -1    0    0  501  502  0.00000000000E+00  0.00000000000E+00  0.44045399273E+03  0.44045399273E+03  0.00000000000E+00 0.  1.
         21   -1    0    0  502  503 -0.00000000000E+00 -0.00000000000E+00 -0.14867466456E+04  0.14867466456E+04  0.00000000000E+00 0.  1.
         -6    2    1    2    0  503 -0.74101509266E+02 -0.63731992707E+01 -0.14601906584E+04  0.14723664009E+04  0.17370782471E+03 0.  0.
        -24    2    3    3    0    0 -0.78764416761E+02 -0.61210816194E+02 -0.11780092521E+04  0.11848297198E+04  0.78517956618E+02 0.  0.
          6    2    1    2  501    0  0.74101509266E+02  0.63731992707E+01  0.41389800547E+03  0.45483423745E+03  0.17329446984E+03 0.  0.
         24    2    5    5    0    0 -0.13177417322E+00 -0.48657915976E+02  0.19168627642E+03  0.21412871914E+03  0.82096709080E+02 0.  0.
          5    1    5    5  501    0  0.74233283439E+02  0.55031115246E+02  0.22221172905E+03  0.24070551831E+03  0.47000000000E+01 0. -1.
        -13    1    6    6    0    0 -0.20546370401E+02 -0.24480847084E+01  0.57844521626E+01  0.21485026000E+02  0.00000000000E+00 0.  1.
         14    1    6    6    0    0  0.20414596228E+02 -0.46209831267E+02  0.18590182426E+03  0.19264369314E+03  0.00000000000E+00 0. -1.
         -5    1    3    3    0  503  0.46629074954E+01  0.54837616923E+02 -0.28218140625E+03  0.28753668109E+03  0.47000000000E+01 0.  1.
         11    1    4    4    0    0 -0.61408361111E+02 -0.38051710395E+01 -0.42421098847E+03  0.42864954086E+03  0.00000000000E+00 0. -1.
        -12    1    4    4    0    0 -0.17356055650E+02 -0.57405645154E+02 -0.75379826368E+03  0.75618017898E+03  0.00000000000E+00 0.  1.
<mgrwt>
<rscale>  2 0.18886542E+03</rscale>
<asrwt>0</asrwt>
<pdfrwt beam="1">  1       21 0.67762152E-01 0.18896047E+03</pdfrwt>
<pdfrwt beam="2">  1       21 0.22873025E+00 0.18896047E+03</pdfrwt>
<totfact> 0.17809193E+02</totfact>
</mgrwt>
</event>
<event>
12    1  0.1026879E-001  0.3171801E+03  0.7546771E-02  0.1076999E+00
         21   -1    0    0  503  502  0.00000000000E+00  0.00000000000E+00  0.30264215586E+03  0.30264215586E+03  0.00000000000E+00 0.  1.
         21   -1    0    0  501  503 -0.00000000000E+00 -0.00000000000E+00 -0.13925631119E+04  0.13925631119E+04  0.00000000000E+00 0. -1.
          6    2    1    2  501    0  0.33612639270E+02  0.26288070669E+03 -0.12847278103E+04  0.13233022125E+04  0.17426165267E+03 0.  0.
         24    2    3    3    0    0 -0.81864480094E+01  0.92895305144E+02 -0.34526541261E+03  0.36765903270E+03  0.85254932591E+02 0.  0.
         -6    2    1    2    0  502 -0.33612639270E+02 -0.26288070669E+03  0.19480685430E+03  0.37190305521E+03  0.17356870837E+03 0.  0.
        -24    2    5    5    0    0  0.37196831044E+02 -0.10559129358E+03  0.50291613544E+02  0.14682376835E+03  0.80590613847E+02 0.  0.
          5    1    3    3  501    0  0.41799087280E+02  0.16998540155E+03 -0.93946239773E+03  0.95564317984E+03  0.47000000000E+01 0. -1.
        -13    1    4    4    0    0  0.27740835056E+02  0.62351649932E+01 -0.12599226320E+03  0.12916068131E+03  0.00000000000E+00 0.  1.
         14    1    4    4    0    0 -0.35927283066E+02  0.86660140150E+02 -0.21927314942E+03  0.23849835139E+03  0.00000000000E+00 0. -1.
         -5    1    5    5    0  502 -0.70809470314E+02 -0.15728941311E+03  0.14451524075E+03  0.22507928686E+03  0.47000000000E+01 0.  1.
         11    1    6    6    0    0  0.51387718933E+02 -0.27790735024E+02  0.27161709009E+02  0.64426555446E+02  0.00000000000E+00 0. -1.
        -12    1    6    6    0    0 -0.14190887889E+02 -0.77800558557E+02  0.23129904535E+02  0.82397212906E+02  0.00000000000E+00 0.  1.
<mgrwt>
<rscale>  2 0.31708499E+03</rscale>
<asrwt>0</asrwt>
<pdfrwt beam="1">  1       21 0.46560331E-01 0.31718007E+03</pdfrwt>
<pdfrwt beam="2">  1       21 0.21424048E+00 0.31718007E+03</pdfrwt>
<totfact> 0.42732816E+02</totfact>
</mgrwt>
</event>
<event>
12    1  0.1026879E-001  0.2124040E+03  0.7546771E-02  0.1140199E+00
         21   -1    0    0  503  502  0.00000000000E+00  0.00000000000E+00  0.33260743961E+03  0.33260743961E+03  0.00000000000E+00 0.  1.
         21   -1    0    0  501  503 -0.00000000000E+00 -0.00000000000E+00 -0.13952820835E+03  0.13952820835E+03  0.00000000000E+00 0. -1.
          6    2    1    2  501    0  0.11293137628E+03 -0.46777532601E+02  0.49913100725E+02  0.21818977136E+03  0.17370614669E+03 0.  0.
         24    2    3    3    0    0  0.76866110281E+02  0.64479318342E+01  0.86392481842E+02  0.14411893552E+03  0.85770810429E+02 0.  0.
         -6    2    1    2    0  502 -0.11293137628E+03  0.46777532601E+02  0.14316613054E+03  0.25394587659E+03  0.17044158530E+03 0.  0.
        -24    2    5    5    0    0 -0.13507765234E+03  0.73284427451E+02  0.13157401778E+03  0.21720978948E+03  0.79068268108E+02 0.  0.
          5    1    3    3  501    0  0.36065265997E+02 -0.53225464435E+02 -0.36479381117E+02  0.74070835843E+02  0.47000000000E+01 0. -1.
        -11    1    4    4    0    0  0.13185309285E+02 -0.35653463852E+02  0.37903077100E+02  0.53681143051E+02  0.00000000000E+00 0.  1.
         12    1    4    4    0    0  0.63680800996E+02  0.42101395686E+02  0.48489404742E+02  0.90437792468E+02  0.00000000000E+00 0. -1.
         -5    1    5    5    0  502  0.22146276065E+02 -0.26506894850E+02  0.11592112757E+02  0.36736087112E+02  0.47000000000E+01 0.  1.
         11    1    6    6    0    0 -0.95767525165E+02  0.78256044259E+02  0.64946676997E+02  0.13969072336E+03  0.00000000000E+00 0. -1.
        -12    1    6    6    0    0 -0.39310127178E+02 -0.49716168086E+01  0.66627340784E+02  0.77519066121E+02  0.00000000000E+00 0.  1.
<mgrwt>
<rscale>  2 0.21173551E+03</rscale>
<asrwt>0</asrwt>
<pdfrwt beam="1">  1       21 0.51170375E-01 0.21240400E+03</pdfrwt>
<pdfrwt beam="2">  1       21 0.21465878E-01 0.21240400E+03</pdfrwt>
<totfact> 0.72769877E+04</totfact>
</mgrwt>
</event>
<event>
12    1  0.1026879E-001  0.3161312E+03  0.7546771E-02  0.1077719E+00
         21   -1    0    0  501  502  0.00000000000E+00  0.00000000000E+00  0.22521652304E+03  0.22521652304E+03  0.00000000000E+00 0.  1.
         21   -1    0    0  502  503 -0.00000000000E+00 -0.00000000000E+00 -0.45994835806E+03  0.45994835806E+03  0.00000000000E+00 0. -1.
         -6    2    1    2    0  503 -0.12915988695E+03  0.22964421135E+03 -0.46436963680E+02  0.31720578614E+03  0.17042411495E+03 0.  0.
        -24    2    3    3    0    0 -0.13153550780E+02  0.12043542033E+03  0.16051160704E+02  0.14600156377E+03  0.79881853340E+02 0.  0.
          6    2    1    2  501    0  0.12915988695E+03 -0.22964421135E+03 -0.18829487134E+03  0.36795909497E+03  0.17470030564E+03 0.  0.
         24    2    5    5    0    0  0.38999640006E+02 -0.15257091052E+03 -0.46079192702E+02  0.18271181946E+03  0.80383221593E+02 0.  0.
          5    1    5    5  501    0  0.90160246947E+02 -0.77073300834E+02 -0.14221567864E+03  0.18524727551E+03  0.47000000000E+01 0. -1.
        -11    1    6    6    0    0  0.57743178316E+02 -0.10764346252E+03 -0.53704840499E+02  0.13343762422E+03  0.00000000000E+00 0.  1.
         12    1    6    6    0    0 -0.18743538310E+02 -0.44927447999E+02  0.76256477968E+01  0.49274195239E+02  0.00000000000E+00 0. -1.
         -5    1    3    3    0  503 -0.11600633617E+03  0.10920879102E+03 -0.62488124384E+02  0.17120422237E+03  0.47000000000E+01 0.  1.
         11    1    4    4    0    0  0.18256042318E+02  0.71942445485E+01 -0.14712094739E+02  0.24525210852E+02  0.00000000000E+00 0. -1.
        -12    1    4    4    0    0 -0.31409593097E+02  0.11324117579E+03  0.30763255443E+02  0.12147635291E+03  0.00000000000E+00 0.  1.
<mgrwt>
<rscale>  2 0.31554385E+03</rscale>
<asrwt>0</asrwt>
<pdfrwt beam="1">  1       21 0.34648696E-01 0.31613120E+03</pdfrwt>
<pdfrwt beam="2">  1       21 0.70761286E-01 0.31613120E+03</pdfrwt>
<totfact> 0.13625150E+04</totfact>
</mgrwt>
</event>
<event>
12    1  0.1026879E-001  0.2228825E+03  0.7546771E-02  0.1131944E+00
         21   -1    0    0  503  502  0.00000000000E+00  0.00000000000E+00  0.64435835598E+03  0.64435835598E+03  0.00000000000E+00 0. -1.
         21   -1    0    0  501  503 -0.00000000000E+00 -0.00000000000E+00 -0.25444010764E+03  0.25444010764E+03  0.00000000000E+00 0.  1.
          6    2    1    2  501    0  0.24590630830E+02 -0.13678155003E+03  0.57039068747E+03  0.61201124513E+03  0.17291135377E+03 0.  0.
         24    2    3    3    0    0  0.75818268710E+02 -0.67467418134E+02  0.39623526427E+03  0.41763809576E+03  0.84373763730E+02 0.  0.
         -6    2    1    2    0  502 -0.24590630830E+02  0.13678155003E+03 -0.18047243913E+03  0.28678721848E+03  0.17424900529E+03 0.  0.
        -24    2    5    5    0    0 -0.66645281539E+02  0.33709851632E+02 -0.10953739833E+03  0.15470300795E+03  0.79728485427E+02 0.  0.
          5    1    3    3  501    0 -0.51227637881E+02 -0.69314131895E+02  0.17415542321E+03  0.19437314937E+03  0.47000000000E+01 0. -1.
        -11    1    4    4    0    0  0.72886242459E+02 -0.84280391037E+02  0.30266085786E+03  0.32252005137E+03  0.00000000000E+00 0.  1.
         12    1    4    4    0    0  0.29320262511E+01  0.16812972903E+02  0.93574406406E+02  0.95118044397E+02  0.00000000000E+00 0. -1.
         -5    1    5    5    0  502  0.42054650710E+02  0.10307169840E+03 -0.70935040809E+02  0.13208421053E+03  0.47000000000E+01 0.  1.
         13    1    6    6    0    0 -0.46383300955E+02  0.33386502102E+02 -0.16499302088E+02  0.59483578402E+02  0.00000000000E+00 0. -1.
        -14    1    6    6    0    0 -0.20261980585E+02  0.32334953009E+00 -0.93038096237E+02  0.95219429549E+02  0.00000000000E+00 0.  1.
<mgrwt>
<rscale>  2 0.22262099E+03</rscale>
<asrwt>0</asrwt>
<pdfrwt beam="1">  1       21 0.99132054E-01 0.22288250E+03</pdfrwt>
<pdfrwt beam="2">  1       21 0.39144632E-01 0.22288250E+03</pdfrwt>
<totfact> 0.51541578E+03</totfact>
</mgrwt>
</event>
<event>
12    1  0.1026879E-001  0.1878541E+03  0.7546771E-02  0.1160453E+00
         21   -1    0    0  503  502  0.00000000000E+00  0.00000000000E+00  0.95263873056E+03  0.95263873056E+03  0.00000000000E+00 0. -1.
         21   -1    0    0  501  503 -0.00000000000E+00 -0.00000000000E+00 -0.37064363584E+02  0.37064363584E+02  0.00000000000E+00 0. -1.
          6    2    1    2  501    0 -0.10258110634E+02 -0.72348212466E+02  0.43813737111E+03  0.47663852276E+03  0.17285957518E+03 0.  0.
         24    2    3    3    0    0 -0.37673933016E+02 -0.10907006935E+03  0.32553587005E+03  0.35497788766E+03  0.81976172052E+02 0.  0.
         -6    2    1    2    0  502  0.10258110634E+02  0.72348212466E+02  0.47743699587E+03  0.51306457139E+03  0.17305974896E+03 0.  0.
        -24    2    5    5    0    0 -0.70513223556E+01  0.94541673071E+02  0.46519602594E+03  0.48201465176E+03  0.83324263405E+02 0.  0.
          5    1    3    3  501    0  0.27415822382E+02  0.36721856887E+02  0.11260150106E+03  0.12166063510E+03  0.47000000000E+01 0. -1.
        -11    1    4    4    0    0  0.55237394974E+01 -0.88027630515E+02  0.16108739866E+03  0.18365327506E+03  0.00000000000E+00 0.  1.
         12    1    4    4    0    0 -0.43197672513E+02 -0.21042438837E+02  0.16444847138E+03  0.17132461260E+03  0.00000000000E+00 0. -1.
         -5    1    5    5    0  502  0.17309432989E+02 -0.22193460605E+02  0.12240969935E+02  0.31049919630E+02  0.47000000000E+01 0.  1.
         11    1    6    6    0    0 -0.12891878558E+02 -0.11040931842E+02  0.11360855371E+03  0.11486951809E+03  0.00000000000E+00 0. -1.
        -12    1    6    6    0    0  0.58405562024E+01  0.10558260491E+03  0.35158747222E+03  0.36714513367E+03  0.00000000000E+00 0.  1.
<mgrwt>
<rscale>  2 0.18780800E+03</rscale>
<asrwt>0</asrwt>
<pdfrwt beam="1">  1       21 0.14655979E+00 0.18785412E+03</pdfrwt>
<pdfrwt beam="2">  1       21 0.57022105E-02 0.18785412E+03</pdfrwt>
<totfact> 0.68499427E+04</totfact>
</mgrwt>
</event>
<event>
12    1  0.1026879E-001  0.2280582E+03  0.7546771E-02  0.1128210E+00
         21   -1    0    0  503  502  0.00000000000E+00  0.00000000000E+00  0.18756811045E+03  0.18756811045E+03  0.00000000000E+00 0.  1.
         21   -1    0    0  501  503 -0.00000000000E+00 -0.00000000000E+00 -0.27596161230E+03  0.27596161230E+03  0.00000000000E+00 0. -1.
          6    2    1    2  501    0 -0.60236734625E+02  0.13412949443E+03 -0.42974703390E+02  0.23099285854E+03  0.17289213427E+03 0.  0.
         24    2    3    3    0    0  0.28559596058E+02  0.78980405125E+02  0.82975409327E+01  0.11447185859E+03  0.77339526128E+02 0.  0.
         -6    2    1    2    0  502  0.60236734625E+02 -0.13412949443E+03 -0.45418798466E+02  0.23253686421E+03  0.17433112312E+03 0.  0.
        -24    2    5    5    0    0  0.13808980192E+02 -0.44756620160E+02 -0.82837619951E+02  0.12499475507E+03  0.81041807319E+02 0.  0.
          5    1    3    3  501    0 -0.88796330683E+02  0.55149089302E+02 -0.51272244322E+02  0.11652099996E+03  0.47000000000E+01 0. -1.
        -11    1    4    4    0    0  0.15518429484E+02  0.64285829608E+02  0.39917139906E+02  0.77245502137E+02  0.00000000000E+00 0.  1.
         12    1    4    4    0    0  0.13041166574E+02  0.14694575517E+02 -0.31619598973E+02  0.37226356449E+02  0.00000000000E+00 0. -1.
         -5    1    5    5    0  502  0.46427754433E+02 -0.89372874267E+02  0.37418821485E+02  0.10754210914E+03  0.47000000000E+01 0.  1.
         11    1    6    6    0    0 -0.33322577291E+02 -0.19992249460E+02 -0.24137739223E+02  0.45746198209E+02  0.00000000000E+00 0. -1.
        -12    1    6    6    0    0  0.47131557483E+02 -0.24764370700E+02 -0.58699880729E+02  0.79248556861E+02  0.00000000000E+00 0.  1.
<mgrwt>
<rscale>  2 0.22778314E+03</rscale>
<asrwt>0</asrwt>
<pdfrwt beam="1">  1       21 0.28856632E-01 0.22805816E+03</pdfrwt>
<pdfrwt beam="2">  1       21 0.42455633E-01 0.22805816E+03</pdfrwt>
<totfact> 0.60388334E+04</totfact>
</mgrwt>
</event>
<event>
12    1  0.1026879E-001  0.2191731E+03  0.7546771E-02  0.1134922E+00
         21   -1    0    0  503  502  0.00000000000E+00  0.00000000000E+00  0.45169233235E+03  0.45169233235E+03  0.00000000000E+00 0.  1.
         21   -1    0    0  501  503 -0.00000000000E+00 -0.00000000000E+00 -0.10704654074E+03  0.10704654074E+03  0.00000000000E+00 0. -1.
          6    2    1    2  501    0 -0.78218959036E+02 -0.10862700157E+03  0.20748509061E+03  0.30018540375E+03  0.17071374513E+03 0.  0.
         24    2    3    3    0    0 -0.11015124150E+03 -0.12369037229E+03  0.16681258830E+03  0.24612138388E+03  0.72915648412E+02 0.  0.
         -6    2    1    2    0  502  0.78218959036E+02  0.10862700157E+03  0.13716070100E+03  0.25855346934E+03  0.17354770983E+03 0.  0.
        -24    2    5    5    0    0 -0.32008891330E+01  0.10567320505E+03  0.61075729352E+02  0.14697869844E+03  0.81825553003E+02 0.  0.
          5    1    3    3  501    0  0.31932282465E+02  0.15063370724E+02  0.40672502309E+02  0.54064019875E+02  0.47000000000E+01 0. -1.
        -13    1    4    4    0    0 -0.83626564497E+02 -0.50186280029E+02  0.12145858711E+03  0.15576987313E+03  0.00000000000E+00 0.  1.
         14    1    4    4    0    0 -0.26524677004E+02 -0.73504092264E+02  0.45354001190E+02  0.90351510744E+02  0.00000000000E+00 0. -1.
         -5    1    5    5    0  502  0.81419848169E+02  0.29537965228E+01  0.76084971649E+02  0.11157477090E+03  0.47000000000E+01 0.  1.
         13    1    6    6    0    0 -0.37543032923E+02  0.23270133500E+02  0.24442740077E+02  0.50481937132E+02  0.00000000000E+00 0. -1.
        -14    1    6    6    0    0  0.34342143790E+02  0.82403071545E+02  0.36632989275E+02  0.96496761311E+02  0.00000000000E+00 0.  1.
<mgrwt>
<rscale>  2 0.21861165E+03</rscale>
<asrwt>0</asrwt>
<pdfrwt beam="1">  1       21 0.69491127E-01 0.21917308E+03</pdfrwt>
<pdfrwt beam="2">  1       21 0.16468699E-01 0.21917308E+03</pdfrwt>
<totfact> 0.61519820E+04</totfact>
</mgrwt>
</event>
<event>
12    1  0.1026879E-001  0.1790234E+03  0.7546771E-02  0.1168960E+00
         21   -1    0    0  503  502  0.00000000000E+00  0.00000000000E+00  0.24047603227E+03  0.24047603227E+03  0.00000000000E+00 0. -1.
         21   -1    0    0  501  503 -0.00000000000E+00 -0.00000000000E+00 -0.13540551165E+03  0.13540551165E+03  0.00000000000E+00 0. -1.
          6    2    1    2  501    0  0.41573040291E+02  0.93224587768E+01  0.25557168714E+02  0.17999442340E+03  0.17300172735E+03 0.  0.
         24    2    3    3    0    0 -0.15104987766E+02  0.26853970277E+01  0.71848208580E+02  0.10636426773E+03  0.76914370313E+02 0.  0.
         -6    2    1    2    0  502 -0.41573040291E+02 -0.93224587768E+01  0.79513351903E+02  0.19588712052E+03  0.17387974275E+03 0.  0.
        -24    2    5    5    0    0 -0.87859604709E+02  0.17588254399E+01  0.22113409874E+02  0.12117377332E+03  0.80446732919E+02 0.  0.
          5    1    3    3  501    0  0.56678028056E+02  0.66370617492E+01 -0.46291039866E+02  0.73630155676E+02  0.47000000000E+01 0. -1.
        -13    1    4    4    0    0 -0.14036386034E+02  0.17885681294E+02 -0.87327320078E+01  0.24355252751E+02  0.00000000000E+00 0.  1.
         14    1    4    4    0    0 -0.10686017312E+01 -0.15200284267E+02  0.80580940588E+02  0.82009014977E+02  0.00000000000E+00 0. -1.
         -5    1    5    5    0  502  0.46286564418E+02 -0.11081284217E+02  0.57399942029E+02  0.74713347204E+02  0.47000000000E+01 0.  1.
         11    1    6    6    0    0 -0.79611519365E+02  0.31954917391E+02  0.25981392165E+02  0.89633383847E+02  0.00000000000E+00 0. -1.
        -12    1    6    6    0    0 -0.82480853437E+01 -0.30196091951E+02 -0.38679822911E+01  0.31540389470E+02  0.00000000000E+00 0.  1.
<mgrwt>
<rscale>  2 0.17880989E+03</rscale>
<asrwt>0</asrwt>
<pdfrwt beam="1">  1       21 0.36996313E-01 0.17902344E+03</pdfrwt>
<pdfrwt beam="2">  1       21 0.20831617E-01 0.17902344E+03</pdfrwt>
<totfact> 0.15137019E+05</totfact>
</mgrwt>
</event>
<event>
12    1  0.1026879E-001  0.1955685E+03  0.7546771E-02  0.1153575E+00
         21   -1    0    0  503  502  0.00000000000E+00  0.00000000000E+00  0.29347231672E+03  0.29347231672E+03  0.00000000000E+00 0. -1.
         21   -1    0    0  501  503 -0.00000000000E+00 -0.00000000000E+00 -0.15210103487E+03  0.15210103487E+03  0.00000000000E+00 0. -1.
          6    2    1    2  501    0  0.75162505079E+02 -0.55306439625E+02 -0.13891043069E+02  0.19586670072E+03  0.17164672714E+03 0.  0.
         24    2    3    3    0    0  0.58546252901E+02 -0.93042825169E+02 -0.45449138400E+02  0.14373093553E+03  0.80674200360E+02 0.  0.
         -6    2    1    2    0  502 -0.75162505079E+02  0.55306439625E+02  0.15526232492E+03  0.24970665088E+03  0.17186860540E+03 0.  0.
        -24    2    5    5    0    0 -0.61025662064E+02  0.61736083421E+02  0.37190414731E+02  0.13052503894E+03  0.90100962342E+02 0.  0.
          5    1    3    3  501    0  0.16616252178E+02  0.37736385544E+02  0.31558095331E+02  0.52135765184E+02  0.47000000000E+01 0. -1.
        -13    1    4    4    0    0 -0.68405935661E+01  0.15500173181E+01 -0.26219944195E+02  0.27141881800E+02  0.00000000000E+00 0.  1.
         14    1    4    4    0    0  0.65386846467E+02 -0.94592842488E+02 -0.19229194205E+02  0.11658905373E+03  0.00000000000E+00 0. -1.
         -5    1    5    5    0  502 -0.14136843015E+02 -0.64296437963E+01  0.11807191019E+03  0.11918161194E+03  0.47000000000E+01 0.  1.
         11    1    6    6    0    0 -0.28213221246E+02  0.13822862344E+01 -0.25103592785E+02  0.37790037563E+02  0.00000000000E+00 0. -1.
        -12    1    6    6    0    0 -0.32812440818E+02  0.60353797187E+02  0.62294007516E+02  0.92735001373E+02  0.00000000000E+00 0.  1.
<mgrwt>
<rscale>  2 0.19551970E+03</rscale>
<asrwt>0</asrwt>
<pdfrwt beam="1">  1       21 0.45149587E-01 0.19556846E+03</pdfrwt>
<pdfrwt beam="2">  1       21 0.23400159E-01 0.19556846E+03</pdfrwt>
<totfact> 0.80748562E+04</totfact>
</mgrwt>
</event>
<event>
12    1  0.1026879E-001  0.2025467E+03  0.7546771E-02  0.1147862E+00
         21   -1    0    0  501  502  0.00000000000E+00  0.00000000000E+00  0.40430754284E+03  0.40430754284E+03  0.00000000000E+00 0.  1.
         21   -1    0    0  502  503 -0.00000000000E+00 -0.00000000000E+00 -0.16625661225E+03  0.16625661225E+03  0.00000000000E+00 0.  1.
         -6    2    1    2    0  503 -0.10198228025E+03 -0.24517248902E+02 -0.59677620623E+02  0.21115535611E+03  0.17327344006E+03 0.  0.
        -24    2    3    3    0    0  0.88979883939E+01 -0.16282348605E+02 -0.23841748194E+02  0.94242793435E+02  0.89269177682E+02 0.  0.
          6    2    1    2  501    0  0.10198228025E+03  0.24517248902E+02  0.29772855121E+03  0.35940879898E+03  0.17184560977E+03 0.  0.
         24    2    5    5    0    0  0.27804462580E+02  0.12233301522E+01  0.25782305860E+03  0.27189026594E+03  0.81712927303E+02 0.  0.
          5    1    5    5  501    0  0.74177817672E+02  0.23293918749E+02  0.39905492608E+02  0.87518533041E+02  0.47000000000E+01 0. -1.
        -11    1    6    6    0    0  0.53471190072E+02  0.74800892053E+01  0.12041300906E+03  0.13196367929E+03  0.00000000000E+00 0.  1.
         12    1    6    6    0    0 -0.25666727492E+02 -0.62567590532E+01  0.13741004955E+03  0.13992658665E+03  0.00000000000E+00 0. -1.
         -5    1    3    3    0  503 -0.11088026865E+03 -0.82349002963E+01 -0.35835872429E+02  0.11691256267E+03  0.47000000000E+01 0.  1.
         13    1    4    4    0    0  0.18250771993E+02 -0.30318917136E+02  0.24500903717E+02  0.43042092161E+02  0.00000000000E+00 0. -1.
        -14    1    4    4    0    0 -0.93527835994E+01  0.14036568531E+02 -0.48342651911E+02  0.51200701274E+02  0.00000000000E+00 0.  1.
<mgrwt>
<rscale>  2 0.20224098E+03</rscale>
<asrwt>0</asrwt>
<pdfrwt beam="1">  1       21 0.62201160E-01 0.20254670E+03</pdfrwt>
<pdfrwt beam="2">  1       21 0.25577940E-01 0.20254670E+03</pdfrwt>
<totfact> 0.34581484E+04</totfact>
</mgrwt>
</event>
<event>
12    1  0.1026879E-001  0.1931852E+03  0.7546771E-02  0.1156073E+00
         21   -1    0    0  501  502  0.00000000000E+00  0.00000000000E+00  0.31696868012E+03  0.31696868012E+03  0.00000000000E+00 0.  1.
         21   -1    0    0  502  503 -0.00000000000E+00 -0.00000000000E+00 -0.14647765887E+03  0.14647765887E+03  0.00000000000E+00 0. -1.
         -6    2    1    2    0  503  0.83862097146E+02 -0.16016880762E+02 -0.19221978056E+02  0.19413915892E+03  0.17329494158E+03 0.  0.
        -24    2    3    3    0    0  0.83758607625E+02 -0.28165322310E+02 -0.59888575518E+02  0.15143719771E+03  0.10741412216E+03 0.  0.
          6    2    1    2  501    0 -0.83862097146E+02  0.16016880762E+02  0.18971299931E+03  0.26930718007E+03  0.17101445356E+03 0.  0.
         24    2    5    5    0    0 -0.33597622410E+01  0.16901115288E+02  0.25198685011E+02  0.86090211962E+02  0.80496056855E+02 0.  0.
          5    1    5    5  501    0 -0.80502334904E+02 -0.88423452579E+00  0.16451431429E+03  0.18321696811E+03  0.47000000000E+01 0. -1.
        -13    1    6    6    0    0 -0.20784885591E+02  0.43146615598E+02  0.26162462611E+02  0.54572120688E+02  0.00000000000E+00 0.  1.
         14    1    6    6    0    0  0.17425123350E+02 -0.26245500310E+02 -0.96377759927E+00  0.31518091274E+02  0.00000000000E+00 0. -1.
         -5    1    3    3    0  503  0.10348952011E+00  0.12148441548E+02  0.40666597462E+02  0.42701961211E+02  0.47000000000E+01 0.  1.
         11    1    4    4    0    0  0.35347181049E+02  0.49250859302E+01  0.28289522953E+02  0.45540935305E+02  0.00000000000E+00 0. -1.
        -12    1    4    4    0    0  0.48411426576E+02 -0.33090408240E+02 -0.88178098471E+02  0.10589626240E+03  0.00000000000E+00 0.  1.
<mgrwt>
<rscale>  2 0.19267242E+03</rscale>
<asrwt>0</asrwt>
<pdfrwt beam="1">  1       21 0.48764412E-01 0.19318522E+03</pdfrwt>
<pdfrwt beam="2">  1       21 0.22535025E-01 0.19318522E+03</pdfrwt>
<totfact> 0.74038610E+04</totfact>
</mgrwt>
</event>
<event>
12    1  0.1026879E-001  0.2012419E+03  0.7546771E-02  0.1148880E+00
         21   -1    0    0  501  502  0.00000000000E+00  0.00000000000E+00  0.59859464190E+03  0.59859464190E+03  0.00000000000E+00 0. -1.
         21   -1    0    0  502  503 -0.00000000000E+00 -0.00000000000E+00 -0.89615844079E+02  0.89615844079E+02  0.00000000000E+00 0.  1.
         -6    2    1    2    0  503  0.31705344958E+02 -0.97588428024E+02  0.83425816369E+02  0.21784896182E+03  0.17311722371E+03 0.  0.
        -24    2    3    3    0    0  0.76437586003E+02 -0.78046035305E+02  0.97255892779E+02  0.16689565461E+03  0.80383845810E+02 0.  0.
          6    2    1    2  501    0 -0.31705344958E+02  0.97588428024E+02  0.42555298145E+03  0.47036152416E+03  0.17209268783E+03 0.  0.
         24    2    5    5    0    0 -0.74380684562E+02  0.19593077805E+02  0.22846459122E+03  0.25409691117E+03  0.80329296600E+02 0.  0.
          5    1    5    5  501    0  0.42675339603E+02  0.77995350220E+02  0.19708839023E+03  0.21626461299E+03  0.47000000000E+01 0. -1.
        -13    1    6    6    0    0 -0.21971662110E+01  0.16051588009E+02  0.19327099109E+01  0.16316138777E+02  0.00000000000E+00 0.  1.
         14    1    6    6    0    0 -0.72183518351E+02  0.35414897952E+01  0.22653188131E+03  0.23778077240E+03  0.00000000000E+00 0. -1.
         -5    1    3    3    0  503 -0.44732241044E+02 -0.19542392720E+02 -0.13830076410E+02  0.50953307209E+02  0.47000000000E+01 0.  1.
         13    1    4    4    0    0  0.73290201848E+02 -0.34991786524E+02  0.93071770035E+02  0.12352422106E+03  0.00000000000E+00 0. -1.
        -14    1    4    4    0    0  0.31473841543E+01 -0.43054248781E+02  0.41841227436E+01  0.43371433551E+02  0.00000000000E+00 0.  1.
<mgrwt>
<rscale>  2 0.20102137E+03</rscale>
<asrwt>0</asrwt>
<pdfrwt beam="1">  1       21 0.92091481E-01 0.20124190E+03</pdfrwt>
<pdfrwt beam="2">  1       21 0.13787053E-01 0.20124190E+03</pdfrwt>
<totfact> 0.45331815E+04</totfact>
</mgrwt>
</event>
<event>
12    1  0.1026879E-001  0.1978373E+03  0.7546771E-02  0.1151727E+00
         21   -1    0    0  503  502  0.00000000000E+00  0.00000000000E+00  0.68958762607E+03  0.68958762607E+03  0.00000000000E+00 0. -1.
         21   -1    0    0  501  503 -0.00000000000E+00 -0.00000000000E+00 -0.56625227695E+02  0.56625227695E+02  0.00000000000E+00 0. -1.
          6    2    1    2  501    0 -0.95085969605E+02  0.48860305721E+01  0.32994639312E+03  0.38471316402E+03  0.17341966822E+03 0.  0.
         24    2    3    3    0    0  0.40800175221E+00  0.19484132444E+02  0.72016947967E+02  0.10924648396E+03  0.79803230396E+02 0.  0.
         -6    2    1    2    0  502  0.95085969605E+02 -0.48860305721E+01  0.30301600526E+03  0.36149968975E+03  0.17262129456E+03 0.  0.
        -24    2    5    5    0    0  0.39868303387E+02  0.60725691955E+02  0.20517600453E+03  0.23131272981E+03  0.78302585264E+02 0.  0.
          5    1    3    3  501    0 -0.95493971357E+02 -0.14598101872E+02  0.25792944515E+03  0.27546668006E+03  0.47000000000E+01 0. -1.
        -13    1    4    4    0    0 -0.13411220263E+02 -0.88377855021E+01  0.75821642223E+02  0.77504120606E+02  0.00000000000E+00 0.  1.
         14    1    4    4    0    0  0.13819222015E+02  0.28321917946E+02 -0.38046942557E+01  0.31742363359E+02  0.00000000000E+00 0. -1.
         -5    1    5    5    0  502  0.55217666218E+02 -0.65611722527E+02  0.97840000732E+02  0.13018695994E+03  0.47000000000E+01 0.  1.
         11    1    6    6    0    0  0.53412342792E+02  0.71255613534E+02  0.16218166830E+03  0.18502198343E+03  0.00000000000E+00 0. -1.
        -12    1    6    6    0    0 -0.13544039405E+02 -0.10529921579E+02  0.42994336229E+02  0.46290746371E+02  0.00000000000E+00 0.  1.
<mgrwt>
<rscale>  2 0.19766220E+03</rscale>
<asrwt>0</asrwt>
<pdfrwt beam="1">  1       21 0.10609040E+00 0.19783730E+03</pdfrwt>
<pdfrwt beam="2">  1       21 0.87115740E-02 0.19783730E+03</pdfrwt>
<totfact> 0.73526081E+04</totfact>
</mgrwt>
</event>
<event>
12    1  0.1026879E-001  0.1872302E+03  0.7546771E-02  0.1162436E+00
         21   -1    0    0  503  502  0.00000000000E+00  0.00000000000E+00  0.12713230269E+03  0.12713230269E+03  0.00000000000E+00 0.  1.
         21   -1    0    0  501  503 -0.00000000000E+00 -0.00000000000E+00 -0.52378381165E+03  0.52378381165E+03  0.00000000000E+00 0.  1.
          6    2    1    2  501    0 -0.29109889560E+02  0.64615217547E+02  0.31384425165E+02  0.18372247740E+03  0.16657267048E+03 0.  0.
         24    2    3    3    0    0 -0.17470086832E+02  0.10215294156E+03  0.49991440913E+02  0.13998603074E+03  0.79727769522E+02 0.  0.
         -6    2    1    2    0  502  0.29109889560E+02 -0.64615217547E+02 -0.42803593412E+03  0.46719363694E+03  0.17329922530E+03 0.  0.
        -24    2    5    5    0    0  0.14247306224E+02 -0.27384404281E+02 -0.83044059947E+02  0.11984868868E+03  0.80712458470E+02 0.  0.
          5    1    3    3  501    0 -0.11639802728E+02 -0.37537724015E+02 -0.18607015748E+02  0.43736446664E+02  0.47000000000E+01 0. -1.
        -11    1    4    4    0    0 -0.37708178900E+02  0.10345517155E+03  0.45904476730E+02  0.11929836654E+03  0.00000000000E+00 0.  1.
         12    1    4    4    0    0  0.20238092068E+02 -0.13022299870E+01  0.40869641828E+01  0.20687664192E+02  0.00000000000E+00 0. -1.
         -5    1    5    5    0  502  0.14862583336E+02 -0.37230813266E+02 -0.34499187417E+03  0.34734494826E+03  0.47000000000E+01 0.  1.
         13    1    6    6    0    0  0.23065254955E+02 -0.50999293007E+02 -0.74601836301E+02  0.93265040893E+02  0.00000000000E+00 0. -1.
        -14    1    6    6    0    0 -0.88179487309E+01  0.23614888726E+02 -0.84422236465E+01  0.26583647783E+02  0.00000000000E+00 0.  1.
<mgrwt>
<rscale>  2 0.18565844E+03</rscale>
<asrwt>0</asrwt>
<pdfrwt beam="1">  1       21 0.19558816E-01 0.18723016E+03</pdfrwt>
<pdfrwt beam="2">  1       21 0.80582124E-01 0.18723016E+03</pdfrwt>
<totfact> 0.32653340E+04</totfact>
</mgrwt>
</event>
<event>
12    1  0.1026879E-001  0.1884780E+03  0.7546771E-02  0.1160934E+00
         21   -1    0    0  503  502  0.00000000000E+00  0.00000000000E+00  0.35593446350E+03  0.35593446350E+03  0.00000000000E+00 0. -1.
         21   -1    0    0  501  503 -0.00000000000E+00 -0.00000000000E+00 -0.19128975758E+03  0.19128975758E+03  0.00000000000E+00 0. -1.
          6    2    1    2  501    0  0.39087507916E+02  0.58209236627E+02 -0.10891385702E+03  0.21768370684E+03  0.17495090588E+03 0.  0.
         24    2    3    3    0    0  0.77858258455E+02  0.75015562709E+02 -0.11178945466E+03  0.17506935766E+03  0.80393748263E+02 0.  0.
         -6    2    1    2    0  502 -0.39087507916E+02 -0.58209236627E+02  0.27355856294E+03  0.32954051425E+03  0.16984261735E+03 0.  0.
        -24    2    5    5    0    0 -0.21256906710E+02 -0.87377201026E+02  0.26892292531E+03  0.29472270813E+03  0.80344903928E+02 0.  0.
          5    1    3    3  501    0 -0.38770750539E+02 -0.16806326083E+02  0.28755976446E+01  0.42614349175E+02  0.47000000000E+01 0. -1.
        -11    1    4    4    0    0  0.37434093218E+02  0.84741802341E+02 -0.69948116201E+02  0.11608282973E+03  0.00000000000E+00 0.  1.
         12    1    4    4    0    0  0.40424165238E+02 -0.97262396320E+01 -0.41841338463E+02  0.58986527927E+02  0.00000000000E+00 0. -1.
         -5    1    5    5    0  502 -0.17830601206E+02  0.29167964400E+02  0.46356376314E+01  0.34817806118E+02  0.47000000000E+01 0.  1.
         11    1    6    6    0    0  0.19468936722E+02 -0.51539047516E+02  0.19745707454E+03  0.20499904683E+03  0.00000000000E+00 0. -1.
        -12    1    6    6    0    0 -0.40725843432E+02 -0.35838153511E+02  0.71465850773E+02  0.89723661299E+02  0.00000000000E+00 0.  1.
<mgrwt>
<rscale>  2 0.18728377E+03</rscale>
<asrwt>0</asrwt>
<pdfrwt beam="1">  1       21 0.54759148E-01 0.18847803E+03</pdfrwt>
<pdfrwt beam="2">  1       21 0.29429194E-01 0.18847803E+03</pdfrwt>
<totfact> 0.34902654E+04</totfact>
</mgrwt>
</event>
<event>
12    1  0.1026879E-001  0.2948297E+03  0.7546771E-02  0.1087970E+00
         21   -1    0    0  503  502  0.00000000000E+00  0.00000000000E+00  0.21823105649E+03  0.21823105649E+03  0.00000000000E+00 0.  1.
         21   -1    0    0  501  503 -0.00000000000E+00 -0.00000000000E+00 -0.61286054462E+03  0.61286054462E+03  0.00000000000E+00 0.  1.
          6    2    1    2  501    0  0.29656957870E+02 -0.23739365627E+03 -0.44407596288E+03  0.53303661511E+03  0.17230580098E+03 0.  0.
         24    2    3    3    0    0 -0.52499747861E+01 -0.19866059611E+03 -0.23635262459E+03  0.31881752360E+03  0.79299782608E+02 0.  0.
         -6    2    1    2    0  502 -0.29656957870E+02  0.23739365627E+03  0.49446474745E+02  0.29805498600E+03  0.17075285540E+03 0.  0.
        -24    2    5    5    0    0  0.43429962187E+02  0.13460379125E+03  0.60141438355E+02  0.17139036394E+03  0.75850655960E+02 0.  0.
          5    1    3    3  501    0  0.34906932656E+02 -0.38733060160E+02 -0.20772333829E+03  0.21421909151E+03  0.47000000000E+01 0. -1.
        -11    1    4    4    0    0  0.34380880198E+02 -0.10746817643E+03 -0.14554623166E+03  0.18416068913E+03  0.00000000000E+00 0.  1.
         12    1    4    4    0    0 -0.39630854984E+02 -0.91192419680E+02 -0.90806392925E+02  0.13465683447E+03  0.00000000000E+00 0. -1.
         -5    1    5    5    0  502 -0.73086920057E+02  0.10278986502E+03 -0.10694963610E+02  0.12666462206E+03  0.47000000000E+01 0.  1.
         13    1    6    6    0    0  0.51895443893E+02  0.10896825369E+03  0.18998655314E+02  0.12218087539E+03  0.00000000000E+00 0. -1.
        -14    1    6    6    0    0 -0.84654817061E+01  0.25635537567E+02  0.41142783041E+02  0.49209488549E+02  0.00000000000E+00 0.  1.
<mgrwt>
<rscale>  2 0.29460325E+03</rscale>
<asrwt>0</asrwt>
<pdfrwt beam="1">  1       21 0.33574009E-01 0.29482973E+03</pdfrwt>
<pdfrwt beam="2">  1       21 0.94286237E-01 0.29482973E+03</pdfrwt>
<totfact> 0.75727136E+03</totfact>
</mgrwt>
</event>
<event>
12    1  0.1026879E-001  0.1967142E+03  0.7546771E-02  0.1152674E+00
         21   -1    0    0  501  502  0.00000000000E+00  0.00000000000E+00  0.85514172823E+03  0.85514172823E+03  0.00000000000E+00 0.  1.
         21   -1    0    0  502  503 -0.00000000000E+00 -0.00000000000E+00 -0.46632788219E+02  0.46632788219E+02  0.00000000000E+00 0.  1.
         -6    2    1    2    0  503  0.72539286546E+02 -0.56516433448E+02  0.48510879480E+03  0.52324563373E+03  0.17320333452E+03 0.  0.
        -24    2    3    3    0    0  0.30360226147E+02 -0.14509559145E+02  0.44129595505E+03  0.44918278507E+03  0.76751441829E+02 0.  0.
          6    2    1    2  501    0 -0.72539286546E+02  0.56516433448E+02  0.32340014521E+03  0.37852888272E+03  0.17389768769E+03 0.  0.
         24    2    5    5    0    0 -0.30322432227E+02  0.97164684845E+02  0.15849150983E+03  0.20345321007E+03  0.76897490994E+02 0.  0.
          5    1    5    5  501    0 -0.42216854319E+02 -0.40648251396E+02  0.16490863538E+03  0.17507567265E+03  0.47000000000E+01 0. -1.
        -13    1    6    6    0    0 -0.55854585009E+02  0.59484933964E+02  0.93346274533E+02  0.12398273672E+03  0.00000000000E+00 0.  1.
         14    1    6    6    0    0  0.25532152783E+02  0.37679750880E+02  0.65145235297E+02  0.79470473347E+02  0.00000000000E+00 0. -1.
         -5    1    3    3    0  503  0.42179060399E+02 -0.42006874303E+02  0.43812839746E+02  0.74062848659E+02  0.47000000000E+01 0.  1.
         11    1    4    4    0    0 -0.20754779937E+02  0.13587727530E+02  0.15903614171E+03  0.16095925447E+03  0.00000000000E+00 0. -1.
        -12    1    4    4    0    0  0.51115006084E+02 -0.28097286675E+02  0.28225981334E+03  0.28822353060E+03  0.00000000000E+00 0.  1.
<mgrwt>
<rscale>  2 0.19656059E+03</rscale>
<asrwt>0</asrwt>
<pdfrwt beam="1">  1       21 0.13156025E+00 0.19671416E+03</pdfrwt>
<pdfrwt beam="2">  1       21 0.71742757E-02 0.19671416E+03</pdfrwt>
<totfact> 0.60675488E+04</totfact>
</mgrwt>
</event>
<event>
12    1  0.1026879E-001  0.2227717E+03  0.7546771E-02  0.1132025E+00
         21   -1    0    0  501  502  0.00000000000E+00  0.00000000000E+00  0.28818637188E+03  0.28818637188E+03  0.00000000000E+00 0.  1.
         21   -1    0    0  502  503 -0.00000000000E+00 -0.00000000000E+00 -0.18389943949E+03  0.18389943949E+03  0.00000000000E+00 0. -1.
         -6    2    1    2    0  503 -0.12518168101E+03  0.49289556855E+02 -0.92756449521E+01  0.22296472819E+03  0.17755933868E+03 0.  0.
        -24    2    3    3    0    0 -0.26639907323E+02 -0.14587474561E+02 -0.25058058797E+02  0.10438171553E+03  0.96670353009E+02 0.  0.
          6    2    1    2  501    0  0.12518168101E+03 -0.49289556855E+02  0.11356257734E+03  0.24912108317E+03  0.17625249341E+03 0.  0.
         24    2    5    5    0    0  0.72267388312E+02  0.11068464248E+02 -0.20169418759E+01  0.10832432062E+03  0.79906220465E+02 0.  0.
          5    1    5    5  501    0  0.52914292703E+02 -0.60358021104E+02  0.11557951921E+03  0.14079676255E+03  0.47000000000E+01 0. -1.
        -13    1    6    6    0    0  0.51264332363E+02  0.11299022910E+02  0.36855074654E+02  0.64140441370E+02  0.00000000000E+00 0.  1.
         14    1    6    6    0    0  0.21003055948E+02 -0.23055866168E+00 -0.38872016530E+02  0.44183879250E+02  0.00000000000E+00 0. -1.
         -5    1    3    3    0  503 -0.98541773691E+02  0.63877031416E+02  0.15782413845E+02  0.11858301266E+03  0.47000000000E+01 0.  1.
         13    1    4    4    0    0  0.17687106991E+02  0.13154174713E+02 -0.43636063873E+02  0.48887341269E+02  0.00000000000E+00 0. -1.
        -14    1    4    4    0    0 -0.44327014314E+02 -0.27741649274E+02  0.18578005076E+02  0.55494374265E+02  0.00000000000E+00 0.  1.
<mgrwt>
<rscale>  2 0.22251120E+03</rscale>
<asrwt>0</asrwt>
<pdfrwt beam="1">  1       21 0.44336365E-01 0.22277170E+03</pdfrwt>
<pdfrwt beam="2">  1       21 0.28292221E-01 0.22277170E+03</pdfrwt>
<totfact> 0.57543361E+04</totfact>
</mgrwt>
</event>
<event>
12    1  0.1026879E-001  0.2445251E+03  0.7546771E-02  0.1117024E+00
         21   -1    0    0  501  502  0.00000000000E+00  0.00000000000E+00  0.94293022347E+02  0.94293022347E+02  0.00000000000E+00 0. -1.
         21   -1    0    0  502  503 -0.00000000000E+00 -0.00000000000E+00 -0.82360149534E+03  0.82360149534E+03  0.00000000000E+00 0.  1.
         -6    2    1    2    0  503  0.87596026806E+02  0.14751045042E+03 -0.58745207754E+03  0.63631160849E+03  0.17424156448E+03 0.  0.
        -24    2    3    3    0    0  0.97475756016E+02  0.34147598138E+02 -0.30963391663E+03  0.33605544143E+03  0.79953210785E+02 0.  0.
          6    2    1    2  501    0 -0.87596026806E+02 -0.14751045042E+03 -0.14185639545E+03  0.28158290920E+03  0.17243346812E+03 0.  0.
         24    2    5    5    0    0 -0.14438713793E+02 -0.14764011490E+03 -0.10350631113E+03  0.19884943213E+03  0.82592131773E+02 0.  0.
          5    1    5    5  501    0 -0.73157313013E+02  0.12966448658E+00 -0.38350084319E+02  0.82733477066E+02  0.47000000000E+01 0. -1.
        -11    1    6    6    0    0 -0.25664186727E+02 -0.71530256628E+02 -0.94687631671E+02  0.12141241981E+03  0.00000000000E+00 0.  1.
         12    1    6    6    0    0  0.11225472935E+02 -0.76109858275E+02 -0.88186794583E+01  0.77437012317E+02  0.00000000000E+00 0. -1.
         -5    1    3    3    0  503 -0.98797292101E+01  0.11336285228E+03 -0.27781816091E+03  0.30025616706E+03  0.47000000000E+01 0.  1.
         11    1    4    4    0    0  0.53848931806E+02  0.46535968791E+02 -0.10769949847E+03  0.12909099821E+03  0.00000000000E+00 0. -1.
        -12    1    4    4    0    0  0.43626824209E+02 -0.12388370653E+02 -0.20193441816E+03  0.20696444322E+03  0.00000000000E+00 0.  1.
<mgrwt>
<rscale>  2 0.24420318E+03</rscale>
<asrwt>0</asrwt>
<pdfrwt beam="1">  1       21 0.14506619E-01 0.24452509E+03</pdfrwt>
<pdfrwt beam="2">  1       21 0.12670792E+00 0.24452509E+03</pdfrwt>
<totfact> 0.18632157E+04</totfact>
</mgrwt>
</event>
<event>
12    1  0.1026879E-001  0.1938649E+03  0.7546771E-02  0.1155159E+00
         21   -1    0    0  503  502  0.00000000000E+00  0.00000000000E+00  0.29129776109E+03  0.29129776109E+03  0.00000000000E+00 0.  1.
         21   -1    0    0  501  503 -0.00000000000E+00 -0.00000000000E+00 -0.94574719645E+03  0.94574719645E+03  0.00000000000E+00 0.  1.
          6    2    1    2  501    0  0.50953700217E+02  0.69585543959E+02 -0.90208550582E+03  0.92254978802E+03  0.17292028241E+03 0.  0.
         24    2    3    3    0    0 -0.41269495646E+02  0.31656148436E+02 -0.47704254881E+03  0.48594085292E+03  0.76574383198E+02 0.  0.
         -6    2    1    2    0  502 -0.50953700217E+02 -0.69585543959E+02  0.24763607046E+03  0.31449516952E+03  0.17362361812E+03 0.  0.
        -24    2    5    5    0    0 -0.73766252310E+02  0.16770813565E+01  0.19155677672E+03  0.22086957748E+03  0.81517476440E+02 0.  0.
          5    1    3    3  501    0  0.92223195863E+02  0.37929395523E+02 -0.42504295701E+03  0.43660893510E+03  0.47000000000E+01 0. -1.
        -11    1    4    4    0    0 -0.18016047091E-01 -0.57563976232E+01 -0.30613009616E+03  0.30618421288E+03  0.00000000000E+00 0.  1.
         12    1    4    4    0    0 -0.41251479599E+02  0.37412546059E+02 -0.17091245264E+03  0.17975664004E+03  0.00000000000E+00 0. -1.
         -5    1    5    5    0  502  0.22812552094E+02 -0.71262625316E+02  0.56079293732E+02  0.93625592043E+02  0.47000000000E+01 0.  1.
         13    1    6    6    0    0 -0.31243071744E+02  0.25423101982E+02  0.25161303449E+02  0.47492681938E+02  0.00000000000E+00 0. -1.
        -14    1    6    6    0    0 -0.42523180566E+02 -0.23746020626E+02  0.16639547328E+03  0.17337689554E+03  0.00000000000E+00 0.  1.
<mgrwt>
<rscale>  2 0.19370727E+03</rscale>
<asrwt>0</asrwt>
<pdfrwt beam="1">  1       21 0.44815040E-01 0.19386487E+03</pdfrwt>
<pdfrwt beam="2">  1       21 0.14549957E+00 0.19386487E+03</pdfrwt>
<totfact> 0.15453763E+03</totfact>
</mgrwt>
</event>
<event>
12    1  0.1026879E-001  0.1817089E+03  0.7546771E-02  0.1166244E+00
         21   -1    0    0  501  502  0.00000000000E+00  0.00000000000E+00  0.27249783015E+03  0.27249783015E+03  0.00000000000E+00 0.  1.
         21   -1    0    0  502  503 -0.00000000000E+00 -0.00000000000E+00 -0.12465264038E+03  0.12465264038E+03  0.00000000000E+00 0.  1.
         -6    2    1    2    0  503 -0.53446701698E+02  0.17460547983E+02  0.39546305525E+02  0.18561610780E+03  0.17241812125E+03 0.  0.
        -24    2    3    3    0    0 -0.73705638734E+02 -0.41798363523E+02  0.38346983324E+02  0.12280232351E+03  0.80189121182E+02 0.  0.
          6    2    1    2  501    0  0.53446701698E+02 -0.17460547983E+02  0.10829888424E+03  0.21153436272E+03  0.17279096511E+03 0.  0.
         24    2    5    5    0    0 -0.13627297807E+02 -0.29224566111E+02 -0.60937728792E+00  0.83002604148E+02  0.76480601755E+02 0.  0.
          5    1    5    5  501    0  0.67073999505E+02  0.11764018128E+02  0.10890826153E+03  0.12853175857E+03  0.47000000000E+01 0. -1.
        -13    1    6    6    0    0  0.26435628335E+02  0.84448102323E+01 -0.32910438746E+01  0.27946166734E+02  0.00000000000E+00 0.  1.
         14    1    6    6    0    0 -0.40062926141E+02 -0.37669376343E+02  0.26816665867E+01  0.55056437414E+02  0.00000000000E+00 0. -1.
         -5    1    3    3    0  503  0.20258937036E+02  0.59258911506E+02  0.11993222011E+01  0.62813784287E+02  0.47000000000E+01 0.  1.
         13    1    4    4    0    0  0.94605690627E+01  0.12408251399E+02 -0.18254367093E+01  0.15709846878E+02  0.00000000000E+00 0. -1.
        -14    1    4    4    0    0 -0.83166207796E+02 -0.54206614922E+02  0.40172420033E+02  0.10709247664E+03  0.00000000000E+00 0.  1.
<mgrwt>
<rscale>  2 0.18162025E+03</rscale>
<asrwt>0</asrwt>
<pdfrwt beam="1">  1       21 0.41922743E-01 0.18170894E+03</pdfrwt>
<pdfrwt beam="2">  1       21 0.19177329E-01 0.18170894E+03</pdfrwt>
<totfact> 0.13721656E+05</totfact>
</mgrwt>
</event>
<event>
12    1  0.1026879E-001  0.2040622E+03  0.7546771E-02  0.1146759E+00
         21   -1    0    0  501  502  0.00000000000E+00  0.00000000000E+00  0.20727793272E+03  0.20727793272E+03  0.00000000000E+00 0. -1.
         21   -1    0    0  502  503 -0.00000000000E+00 -0.00000000000E+00 -0.20467578712E+03  0.20467578712E+03  0.00000000000E+00 0.  1.
         -6    2    1    2    0  503  0.18499751307E+02 -0.10731818068E+03 -0.33057165339E+02  0.20479926582E+03  0.17026605767E+03 0.  0.
        -24    2    3    3    0    0 -0.10023057816E+02  0.10281014180E+02 -0.11643709322E+02  0.81820619821E+02  0.79704936613E+02 0.  0.
          6    2    1    2  501    0 -0.18499751307E+02  0.10731818068E+03  0.35659310937E+02  0.20715445403E+03  0.17257447281E+03 0.  0.
         24    2    5    5    0    0  0.73977779843E+01 -0.41849440127E+01 -0.13584391064E+02  0.82452164452E+02  0.80880052342E+02 0.  0.
          5    1    5    5  501    0 -0.25897529291E+02  0.11150312469E+03  0.49243702001E+02  0.12470228958E+03  0.47000000000E+01 0. -1.
        -13    1    6    6    0    0 -0.23520362710E+00  0.30951674849E+02 -0.29838335473E+02  0.42992880346E+02  0.00000000000E+00 0.  1.
         14    1    6    6    0    0  0.76329816114E+01 -0.35136618862E+02  0.16253944408E+02  0.39459284106E+02  0.00000000000E+00 0. -1.
         -5    1    3    3    0  503  0.28522809123E+02 -0.11759919486E+03 -0.21413456017E+02  0.12297864599E+03  0.47000000000E+01 0.  1.
         11    1    4    4    0    0  0.12926368328E+02 -0.10690556935E+01  0.30142460638E+02  0.32814658485E+02  0.00000000000E+00 0. -1.
        -12    1    4    4    0    0 -0.22949426144E+02  0.11350069874E+02 -0.41786169960E+02  0.49005961336E+02  0.00000000000E+00 0.  1.
<mgrwt>
<rscale>  2 0.20357333E+03</rscale>
<asrwt>0</asrwt>
<pdfrwt beam="1">  1       21 0.31888913E-01 0.20406220E+03</pdfrwt>
<pdfrwt beam="2">  1       21 0.31488583E-01 0.20406220E+03</pdfrwt>
<totfact> 0.91239867E+04</totfact>
</mgrwt>
</event>
<event>
12    1  0.1026879E-001  0.2092234E+03  0.7546771E-02  0.1142242E+00
         21   -1    0    0  501  502  0.00000000000E+00  0.00000000000E+00  0.12017975632E+03  0.12017975632E+03  0.00000000000E+00 0. -1.
         21   -1    0    0  502  503 -0.00000000000E+00 -0.00000000000E+00 -0.49003314937E+03  0.49003314937E+03  0.00000000000E+00 0. -1.
         -6    2    1    2    0  503  0.56775352553E+02 -0.10293898098E+03 -0.30119800639E+02  0.21138028432E+03  0.17307382167E+03 0.  0.
        -24    2    3    3    0    0 -0.94689951482E+01 -0.19953667847E+01  0.14018501312E+02  0.82740451655E+02  0.80968022104E+02 0.  0.
          6    2    1    2  501    0 -0.56775352553E+02  0.10293898098E+03 -0.33973359241E+03  0.39883262137E+03  0.17270979010E+03 0.  0.
         24    2    5    5    0    0 -0.95282880646E+02  0.72959310399E+02 -0.17873155628E+03  0.23053123693E+03  0.82448733591E+02 0.  0.
          5    1    5    5  501    0  0.38507528093E+02  0.29979670577E+02 -0.16100203613E+03  0.16830138444E+03  0.47000000000E+01 0. -1.
        -13    1    6    6    0    0 -0.12468205186E+02  0.52122745065E+02 -0.37220770441E+02  0.65250459353E+02  0.00000000000E+00 0.  1.
         14    1    6    6    0    0 -0.82814675460E+02  0.20836565334E+02 -0.14151078584E+03  0.16528077758E+03  0.00000000000E+00 0. -1.
         -5    1    3    3    0  503  0.66244347701E+02 -0.10094361419E+03 -0.44138301951E+02  0.12863983266E+03  0.47000000000E+01 0.  1.
         13    1    4    4    0    0  0.11835672498E+02  0.26929845563E+02  0.31233039930E+02  0.42904574450E+02  0.00000000000E+00 0. -1.
        -14    1    4    4    0    0 -0.21304667647E+02 -0.28925212347E+02 -0.17214538618E+02  0.39835877205E+02  0.00000000000E+00 0.  1.
<mgrwt>
<rscale>  2 0.20914808E+03</rscale>
<asrwt>0</asrwt>
<pdfrwt beam="1">  1       21 0.18489194E-01 0.20922338E+03</pdfrwt>
<pdfrwt beam="2">  1       21 0.75389714E-01 0.20922338E+03</pdfrwt>
<totfact> 0.41631195E+04</totfact>
</mgrwt>
</event>
<event>
12    1  0.1026879E-001  0.1842532E+03  0.7546771E-02  0.1167331E+00
         21   -1    0    0  501  502  0.00000000000E+00  0.00000000000E+00  0.65202547898E+02  0.65202547898E+02  0.00000000000E+00 0. -1.
         21   -1    0    0  502  503 -0.00000000000E+00 -0.00000000000E+00 -0.78118924441E+03  0.78118924441E+03  0.00000000000E+00 0. -1.
         -6    2    1    2    0  503 -0.56719319319E+02 -0.32291125424E+02 -0.61145129057E+03  0.63455016429E+03  0.15659320642E+03 0.  0.
        -24    2    3    3    0    0  0.15711236439E+02  0.46773631650E+01 -0.38859277029E+03  0.39727213198E+03  0.80944950732E+02 0.  0.
          6    2    1    2  501    0  0.56719319319E+02  0.32291125424E+02 -0.10453540595E+03  0.21184162802E+03  0.17230619926E+03 0.  0.
         24    2    5    5    0    0  0.80181382470E+01  0.67635613116E+02 -0.19481387150E+02  0.10754726594E+03  0.80919857046E+02 0.  0.
          5    1    5    5  501    0  0.48701181072E+02 -0.35344487692E+02 -0.85054018795E+02  0.10429436208E+03  0.47000000000E+01 0. -1.
        -11    1    6    6    0    0 -0.18760343598E+02  0.51062192424E+02  0.19181027035E+02  0.57681971059E+02  0.00000000000E+00 0.  1.
         12    1    6    6    0    0  0.26778481845E+02  0.16573420692E+02 -0.38662414186E+02  0.49865294886E+02  0.00000000000E+00 0. -1.
         -5    1    3    3    0  503 -0.72430555758E+02 -0.36968488589E+02 -0.22285852028E+03  0.23727803231E+03  0.47000000000E+01 0.  1.
         11    1    4    4    0    0 -0.31597715727E+02  0.13376759090E+02 -0.14923735315E+03  0.15313112322E+03  0.00000000000E+00 0. -1.
        -12    1    4    4    0    0  0.47308952166E+02 -0.86993959247E+01 -0.23935541714E+03  0.24414100876E+03  0.00000000000E+00 0.  1.
<mgrwt>
<rscale>  2 0.18048864E+03</rscale>
<asrwt>0</asrwt>
<pdfrwt beam="1">  1       21 0.10031161E-01 0.18425315E+03</pdfrwt>
<pdfrwt beam="2">  1       21 0.12018296E+00 0.18425315E+03</pdfrwt>
<totfact> 0.42648857E+04</totfact>
</mgrwt>
</event>
<event>
12    1  0.1026879E-001  0.1756723E+03  0.7546771E-02  0.1172553E+00
         21   -1    0    0  503  502  0.00000000000E+00  0.00000000000E+00  0.13680819100E+04  0.13680819100E+04  0.00000000000E+00 0. -1.
         21   -1    0    0  501  503 -0.00000000000E+00 -0.00000000000E+00 -0.22458580307E+02  0.22458580307E+02  0.00000000000E+00 0. -1.
          6    2    1    2  501    0  0.10496747493E+02  0.20791402557E+02  0.72646141418E+03  0.74693950370E+03  0.17213358697E+03 0.  0.
         24    2    3    3    0    0 -0.44546621557E+02  0.20543240779E+02  0.25662877463E+03  0.27387012904E+03  0.82098071681E+02 0.  0.
         -6    2    1    2    0  502 -0.10496747493E+02 -0.20791402557E+02  0.61916191555E+03  0.64360098665E+03  0.17412147546E+03 0.  0.
        -24    2    5    5    0    0  0.13380611573E+02  0.19738732311E+02  0.14586500286E+03  0.16794893139E+03  0.79759552257E+02 0.  0.
          5    1    3    3  501    0  0.55043369049E+02  0.24816177826E+00  0.46983263955E+03  0.47306937467E+03  0.47000000000E+01 0. -1.
        -13    1    4    4    0    0  0.60311275600E+01  0.34355814777E+02  0.51885508804E+02  0.62520416925E+02  0.00000000000E+00 0.  1.
         14    1    4    4    0    0 -0.50577749117E+02 -0.13812573998E+02  0.20474326583E+03  0.21134971211E+03  0.00000000000E+00 0. -1.
         -5    1    5    5    0  502 -0.23877359066E+02 -0.40530134868E+02  0.47329691269E+03  0.47565205526E+03  0.47000000000E+01 0.  1.
         11    1    6    6    0    0  0.25984928492E+02 -0.24358537323E+02  0.47062326598E+02  0.59020483174E+02  0.00000000000E+00 0. -1.
        -12    1    6    6    0    0 -0.12604316918E+02  0.44097269634E+02  0.98802676260E+02  0.10892844821E+03  0.00000000000E+00 0.  1.
<mgrwt>
<rscale>  2 0.17517767E+03</rscale>
<asrwt>0</asrwt>
<pdfrwt beam="1">  1       21 0.21047408E+00 0.17567229E+03</pdfrwt>
<pdfrwt beam="2">  1       21 0.34551673E-02 0.17567229E+03</pdfrwt>
<totfact> 0.58340117E+04</totfact>
</mgrwt>
</event>
<event>
12    1  0.1026879E-001  0.1887983E+03  0.7546771E-02  0.1160381E+00
         21   -1    0    0  501  502  0.00000000000E+00  0.00000000000E+00  0.19469040215E+03  0.19469040215E+03  0.00000000000E+00 0. -1.
         21   -1    0    0  502  503 -0.00000000000E+00 -0.00000000000E+00 -0.18094443706E+03  0.18094443706E+03  0.00000000000E+00 0. -1.
         -6    2    1    2    0  503  0.40726175167E+02 -0.48236578789E+02 -0.94335576918E+01  0.18541890011E+03  0.17408557560E+03 0.  0.
        -24    2    3    3    0    0 -0.25340668024E+02 -0.59981435103E+02  0.28619497095E+02  0.10813439715E+03  0.81449679072E+02 0.  0.
          6    2    1    2  501    0 -0.40726175167E+02  0.48236578789E+02  0.23179522785E+02  0.19021593910E+03  0.17793095384E+03 0.  0.
         24    2    5    5    0    0 -0.54693900595E+02  0.61084050606E+02 -0.42247109989E+02  0.12193058810E+03  0.79746887151E+02 0.  0.
          5    1    5    5  501    0  0.13967725428E+02 -0.12847471817E+02  0.65426632774E+02  0.68285351005E+02  0.47000000000E+01 0. -1.
        -13    1    6    6    0    0  0.18636609939E+02 -0.35417420308E+00 -0.85003891864E+01  0.20486709977E+02  0.00000000000E+00 0.  1.
         14    1    6    6    0    0 -0.73330510534E+02  0.61438224809E+02 -0.33746720802E+02  0.10144387812E+03  0.00000000000E+00 0. -1.
         -5    1    3    3    0  503  0.66066843191E+02  0.11744856315E+02 -0.38053054787E+02  0.77284502959E+02  0.47000000000E+01 0.  1.
         13    1    4    4    0    0 -0.27670024367E+02 -0.68368245488E+01 -0.20989143434E+02  0.35396561421E+02  0.00000000000E+00 0. -1.
        -14    1    4    4    0    0  0.23293563432E+01 -0.53144610554E+02  0.49608640529E+02  0.72737835733E+02  0.00000000000E+00 0.  1.
<mgrwt>
<rscale>  2 0.18788687E+03</rscale>
<asrwt>0</asrwt>
<pdfrwt beam="1">  1       21 0.29952370E-01 0.18879834E+03</pdfrwt>
<pdfrwt beam="2">  1       21 0.27837606E-01 0.18879834E+03</pdfrwt>
<totfact> 0.13187891E+05</totfact>
</mgrwt>
</event>
<event>
12    1  0.1026879E-001  0.1828610E+03  0.7546771E-02  0.1166303E+00
         21   -1    0    0  503  502  0.00000000000E+00  0.00000000000E+00  0.88677295515E+02  0.88677295515E+02  0.00000000000E+00 0. -1.
         21   -1    0    0  501  503 -0.00000000000E+00 -0.00000000000E+00 -0.90615352489E+03  0.90615352489E+03  0.00000000000E+00 0.  1.
          6    2    1    2  501    0 -0.59811076328E+01  0.41146534263E+02 -0.79493998543E+03  0.81570076761E+03  0.17807119621E+03 0.  0.
         24    2    3    3    0    0  0.52958185044E+01  0.57683463716E+02 -0.78769748545E+03  0.79390207718E+03  0.80360138633E+02 0.  0.
         -6    2    1    2    0  502  0.59811076328E+01 -0.41146534263E+02 -0.22536243946E+02  0.17913005279E+03  0.17277407963E+03 0.  0.
        -24    2    5    5    0    0 -0.25067936262E+02 -0.60357783322E+02  0.36168824729E+02  0.10983726597E+03  0.80526875502E+02 0.  0.
          5    1    3    3  501    0 -0.11276926137E+02 -0.16536929453E+02 -0.72424999811E+01  0.21798690438E+02  0.47000000000E+01 0. -1.
        -13    1    4    4    0    0 -0.36360518616E+02  0.32053869246E+02 -0.31934262727E+03  0.32300038923E+03  0.00000000000E+00 0.  1.
         14    1    4    4    0    0  0.41656337121E+02  0.25629594470E+02 -0.46835485818E+03  0.47090168795E+03  0.00000000000E+00 0. -1.
         -5    1    5    5    0  502  0.31049043895E+02  0.19211249059E+02 -0.58705068675E+02  0.69292786820E+02  0.47000000000E+01 0.  1.
         13    1    6    6    0    0 -0.30239548000E+02 -0.92625674694E+01  0.47671705453E+02  0.57208538875E+02  0.00000000000E+00 0. -1.
        -14    1    6    6    0    0  0.51716117378E+01 -0.51095215853E+02 -0.11502880724E+02  0.52628727098E+02  0.00000000000E+00 0.  1.
<mgrwt>
<rscale>  2 0.18155863E+03</rscale>
<asrwt>0</asrwt>
<pdfrwt beam="1">  1       21 0.13642661E-01 0.18286105E+03</pdfrwt>
<pdfrwt beam="2">  1       21 0.13940823E+00 0.18286105E+03</pdfrwt>
<totfact> 0.16968521E+04</totfact>
</mgrwt>
</event>
<event>
12    1  0.1026879E-001  0.1971933E+03  0.7546771E-02  0.1152269E+00
         21   -1    0    0  503  502  0.00000000000E+00  0.00000000000E+00  0.17896447430E+03  0.17896447430E+03  0.00000000000E+00 0. -1.
         21   -1    0    0  501  503 -0.00000000000E+00 -0.00000000000E+00 -0.30915070323E+03  0.30915070323E+03  0.00000000000E+00 0.  1.
          6    2    1    2  501    0  0.74578187712E+02  0.55414501552E+02 -0.19857912896E+03  0.27939820492E+03  0.17319645894E+03 0.  0.
         24    2    3    3    0    0 -0.14767098853E+02  0.63522564761E+02 -0.87347080746E+02  0.13641925727E+03  0.82021447176E+02 0.  0.
         -6    2    1    2    0  502 -0.74578187712E+02 -0.55414501552E+02  0.68392900031E+02  0.20871697262E+03  0.17393249500E+03 0.  0.
        -24    2    5    5    0    0 -0.31922151099E+02  0.25012022205E+02  0.74486121609E+02  0.11735406695E+03  0.81112081288E+02 0.  0.
          5    1    3    3  501    0  0.89345286566E+02 -0.81080632092E+01 -0.11123204821E+03  0.14297894765E+03  0.47000000000E+01 0. -1.
        -11    1    4    4    0    0 -0.73841441224E+01 -0.28492572148E+01 -0.65761643850E+02  0.66236226137E+02  0.00000000000E+00 0.  1.
         12    1    4    4    0    0 -0.73829547311E+01  0.66371821976E+02 -0.21585436896E+02  0.70183031132E+02  0.00000000000E+00 0. -1.
         -5    1    5    5    0  502 -0.42656036614E+02 -0.80426523757E+02 -0.60932215780E+01  0.91362905669E+02  0.47000000000E+01 0.  1.
         13    1    6    6    0    0 -0.52328007497E+02  0.66333607151E+01  0.20135497684E+02  0.56459366893E+02  0.00000000000E+00 0. -1.
        -14    1    6    6    0    0  0.20405856398E+02  0.18378661490E+02  0.54350623926E+02  0.60894700053E+02  0.00000000000E+00 0.  1.
<mgrwt>
<rscale>  2 0.19703084E+03</rscale>
<asrwt>0</asrwt>
<pdfrwt beam="1">  1       21 0.27532996E-01 0.19719327E+03</pdfrwt>
<pdfrwt beam="2">  1       21 0.47561646E-01 0.19719327E+03</pdfrwt>
<totfact> 0.53091719E+04</totfact>
</mgrwt>
</event>
<event>
12    1  0.1026879E-001  0.1946362E+03  0.7546771E-02  0.1155125E+00
         21   -1    0    0  503  502  0.00000000000E+00  0.00000000000E+00  0.38352122351E+02  0.38352122351E+02  0.00000000000E+00 0. -1.
         21   -1    0    0  501  503 -0.00000000000E+00 -0.00000000000E+00 -0.97045988834E+03  0.97045988834E+03  0.00000000000E+00 0. -1.
          6    2    1    2  501    0  0.16129604177E+02  0.81979952211E+02 -0.44989136832E+03  0.48879672052E+03  0.17186946791E+03 0.  0.
         24    2    3    3    0    0 -0.40537608840E+02  0.36501474801E+02 -0.13505060149E+03  0.16564619306E+03  0.78894492318E+02 0.  0.
         -6    2    1    2    0  502 -0.16129604177E+02 -0.81979952211E+02 -0.48221639767E+03  0.52001529018E+03  0.17579070266E+03 0.  0.
        -24    2    5    5    0    0 -0.15993932108E+02 -0.66975762139E+02 -0.13326298780E+03  0.17070780903E+03  0.81489714492E+02 0.  0.
          5    1    3    3  501    0  0.56667213017E+02  0.45478477410E+02 -0.31484076683E+03  0.32315052746E+03  0.47000000000E+01 0. -1.
        -11    1    4    4    0    0 -0.13045284721E+02 -0.14682195917E+02 -0.11384581445E+01  0.19673393641E+02  0.00000000000E+00 0.  1.
         12    1    4    4    0    0 -0.27492324119E+02  0.51183670718E+02 -0.13391214335E+03  0.14597279942E+03  0.00000000000E+00 0. -1.
         -5    1    5    5    0  502 -0.13567206909E+00 -0.15004190072E+02 -0.34895340987E+03  0.34930748115E+03  0.47000000000E+01 0.  1.
         13    1    6    6    0    0 -0.48142365614E+02 -0.49936999451E+02 -0.76305985536E+02  0.10312126216E+03  0.00000000000E+00 0. -1.
        -14    1    6    6    0    0  0.32148433506E+02 -0.17038762688E+02 -0.56957002262E+02  0.67586546868E+02  0.00000000000E+00 0.  1.
<mgrwt>
<rscale>  2 0.19374658E+03</rscale>
<asrwt>0</asrwt>
<pdfrwt beam="1">  1       21 0.59003269E-02 0.19463619E+03</pdfrwt>
<pdfrwt beam="2">  1       21 0.14930151E+00 0.19463619E+03</pdfrwt>
<totfact> 0.61335314E+04</totfact>
</mgrwt>
</event>
<event>
12    1  0.1026879E-001  0.2306806E+03  0.7546771E-02  0.1126274E+00
         21   -1    0    0  501  502  0.00000000000E+00  0.00000000000E+00  0.69335577117E+03  0.69335577117E+03  0.00000000000E+00 0. -1.
         21   -1    0    0  502  503 -0.00000000000E+00 -0.00000000000E+00 -0.20473792023E+03  0.20473792023E+03  0.00000000000E+00 0. -1.
         -6    2    1    2    0  503  0.12593253673E+03  0.84627140710E+02 -0.11090194209E+03  0.25595466420E+03  0.17376073382E+03 0.  0.
        -24    2    3    3    0    0  0.31008086545E+02 -0.26397319153E+02 -0.84392562133E+02  0.10742211169E+03  0.52526999223E+02 0.  0.
          6    2    1    2  501    0 -0.12593253673E+03 -0.84627140710E+02  0.59951979302E+03  0.64213902720E+03  0.17290977784E+03 0.  0.
         24    2    5    5    0    0 -0.11544428240E+03 -0.12004825474E+03  0.42184373899E+03  0.46060244968E+03  0.80395962121E+02 0.  0.
          5    1    5    5  501    0 -0.10488254326E+02  0.35421114033E+02  0.17767605403E+03  0.18153657751E+03  0.47000000000E+01 0. -1.
        -13    1    6    6    0    0  0.71712949526E+01 -0.27706481165E+02  0.10023273142E+03  0.10423855821E+03  0.00000000000E+00 0.  1.
         14    1    6    6    0    0 -0.12261557735E+03 -0.92341773578E+02  0.32161100757E+03  0.35636389147E+03  0.00000000000E+00 0. -1.
         -5    1    3    3    0  503  0.94924450181E+02  0.11102445986E+03 -0.26509379955E+02  0.14853255251E+03  0.47000000000E+01 0.  1.
         13    1    4    4    0    0  0.33519891146E+02  0.18671746749E+01 -0.64671731256E+02  0.72866331508E+02  0.00000000000E+00 0. -1.
        -14    1    4    4    0    0 -0.25118046008E+01 -0.28264493828E+02 -0.19720830877E+02  0.34555780185E+02  0.00000000000E+00 0.  1.
<mgrwt>
<rscale>  2 0.23052038E+03</rscale>
<asrwt>0</asrwt>
<pdfrwt beam="1">  1       21 0.10667012E+00 0.23068062E+03</pdfrwt>
<pdfrwt beam="2">  1       21 0.31498142E-01 0.23068062E+03</pdfrwt>
<totfact> 0.66309012E+03</totfact>
</mgrwt>
</event>
<event>
12    1  0.1026879E-001  0.2503007E+03  0.7546771E-02  0.1113214E+00
         21   -1    0    0  501  502  0.00000000000E+00  0.00000000000E+00  0.80389182973E+02  0.80389182973E+02  0.00000000000E+00 0. -1.
         21   -1    0    0  502  503 -0.00000000000E+00 -0.00000000000E+00 -0.92709128343E+03  0.92709128343E+03  0.00000000000E+00 0. -1.
         -6    2    1    2    0  503  0.11368485407E+03  0.14056222258E+03 -0.62622277947E+03  0.67439263796E+03  0.17311405530E+03 0.  0.
        -24    2    3    3    0    0  0.13712613120E+03  0.81374086416E+02 -0.51813560625E+03  0.54886313565E+03  0.85795788997E+02 0.  0.
          6    2    1    2  501    0 -0.11368485407E+03 -0.14056222258E+03 -0.22047932098E+03  0.33308782844E+03  0.17220448895E+03 0.  0.
         24    2    5    5    0    0 -0.10767224979E+03 -0.15461102938E+03 -0.23505783421E+03  0.31145120600E+03  0.79068226977E+02 0.  0.
          5    1    5    5  501    0 -0.60126042829E+01  0.14048806804E+02  0.14578513224E+02  0.21636622442E+02  0.47000000000E+01 0. -1.
        -13    1    6    6    0    0 -0.45706410039E+02 -0.50185822600E+02 -0.32437354953E+02  0.75232138778E+02  0.00000000000E+00 0.  1.
         14    1    6    6    0    0 -0.61965839746E+02 -0.10442520678E+03 -0.20262047925E+03  0.23621906722E+03  0.00000000000E+00 0. -1.
         -5    1    3    3    0  503 -0.23441277132E+02  0.59188136160E+02 -0.10808717323E+03  0.12552950232E+03  0.47000000000E+01 0.  1.
         11    1    4    4    0    0  0.43345936302E+02  0.72134670990E+02 -0.29182329451E+03  0.30371551849E+03  0.00000000000E+00 0. -1.
        -12    1    4    4    0    0  0.93780194898E+02  0.92394154254E+01 -0.22631231174E+03  0.24514761716E+03  0.00000000000E+00 0.  1.
<mgrwt>
<rscale>  2 0.25014354E+03</rscale>
<asrwt>0</asrwt>
<pdfrwt beam="1">  1       21 0.12367567E-01 0.25030074E+03</pdfrwt>
<pdfrwt beam="2">  1       21 0.14262942E+00 0.25030074E+03</pdfrwt>
<totfact> 0.18301091E+04</totfact>
</mgrwt>
</event>
<event>
12    1  0.1026879E-001  0.1862194E+03  0.7546771E-02  0.1161923E+00
         21   -1    0    0  501  502  0.00000000000E+00  0.00000000000E+00  0.66842653590E+03  0.66842653590E+03  0.00000000000E+00 0. -1.
         21   -1    0    0  502  503 -0.00000000000E+00 -0.00000000000E+00 -0.81912773372E+02  0.81912773372E+02  0.00000000000E+00 0.  1.
         -6    2    1    2    0  503 -0.67061954122E+02 -0.17301587184E+02  0.66039315855E+02  0.19755425399E+03  0.17282893688E+03 0.  0.
        -24    2    3    3    0    0 -0.52969848329E+01 -0.37318122988E+02  0.90191093307E+02  0.12812103794E+03  0.82824312253E+02 0.  0.
          6    2    1    2  501    0  0.67061954122E+02  0.17301587184E+02  0.52047444667E+03  0.55278505528E+03  0.17286126544E+03 0.  0.
         24    2    5    5    0    0 -0.13827457031E+02  0.15055816786E+01  0.39016391028E+03  0.39852703597E+03  0.80015349583E+02 0.  0.
          5    1    5    5  501    0  0.80889411153E+02  0.15796005505E+02  0.13031053639E+03  0.15425801931E+03  0.47000000000E+01 0. -1.
        -13    1    6    6    0    0  0.12888315668E+02  0.35496443823E+02  0.19654457634E+03  0.20013964298E+03  0.00000000000E+00 0.  1.
         14    1    6    6    0    0 -0.26715772699E+02 -0.33990862144E+02  0.19361933394E+03  0.19838739299E+03  0.00000000000E+00 0. -1.
         -5    1    3    3    0  503 -0.61764969289E+02  0.20016535805E+02 -0.24151777452E+02  0.69433216050E+02  0.47000000000E+01 0.  1.
         11    1    4    4    0    0  0.77641646780E+01  0.12788013660E+02 -0.81090831299E+01  0.17016838006E+02  0.00000000000E+00 0. -1.
        -12    1    4    4    0    0 -0.13061149511E+02 -0.50106136648E+02  0.98300176437E+02  0.11110419994E+03  0.00000000000E+00 0.  1.
<mgrwt>
<rscale>  2 0.18621190E+03</rscale>
<asrwt>0</asrwt>
<pdfrwt beam="1">  1       21 0.10283485E+00 0.18621941E+03</pdfrwt>
<pdfrwt beam="2">  1       21 0.12601966E-01 0.18621941E+03</pdfrwt>
<totfact> 0.41422824E+04</totfact>
</mgrwt>
</event>
<event>
12    1  0.1026879E-001  0.2039551E+03  0.7546771E-02  0.1146909E+00
         21   -1    0    0  503  502  0.00000000000E+00  0.00000000000E+00  0.39886347887E+03  0.39886347887E+03  0.00000000000E+00 0.  1.
         21   -1    0    0  501  503 -0.00000000000E+00 -0.00000000000E+00 -0.20923709630E+03  0.20923709630E+03  0.00000000000E+00 0.  1.
          6    2    1    2  501    0  0.75221115736E+02 -0.72840084617E+02 -0.12195011895E+03  0.23570618831E+03  0.17239977237E+03 0.  0.
         24    2    3    3    0    0  0.99732272104E+02 -0.39543650918E+02 -0.13701344478E+03  0.19145188830E+03  0.79818012118E+02 0.  0.
         -6    2    1    2    0  502 -0.75221115736E+02  0.72840084617E+02  0.31157650152E+03  0.37239438686E+03  0.17502505217E+03 0.  0.
        -24    2    5    5    0    0 -0.12318728975E+02  0.92182907160E+02  0.24505285994E+03  0.27870159134E+03  0.94732430517E+02 0.  0.
          5    1    3    3  501    0 -0.24511156368E+02 -0.33296433699E+02  0.15063325829E+02  0.44254300001E+02  0.47000000000E+01 0. -1.
        -11    1    4    4    0    0  0.22393699595E+02 -0.49461511100E+02 -0.42654062485E+02  0.69045549519E+02  0.00000000000E+00 0.  1.
         12    1    4    4    0    0  0.77338572509E+02  0.99178601818E+01 -0.94359382292E+02  0.12240633879E+03  0.00000000000E+00 0. -1.
         -5    1    5    5    0  502 -0.62902386761E+02 -0.19342822543E+02  0.66523641579E+02  0.93692795524E+02  0.47000000000E+01 0.  1.
         13    1    6    6    0    0  0.10532938033E+02 -0.16559345622E+02  0.21852431155E+02  0.29371473548E+02  0.00000000000E+00 0. -1.
        -14    1    6    6    0    0 -0.22851667008E+02  0.10874225278E+03  0.22320042879E+03  0.24933011779E+03  0.00000000000E+00 0.  1.
<mgrwt>
<rscale>  2 0.20339061E+03</rscale>
<asrwt>0</asrwt>
<pdfrwt beam="1">  1       21 0.61363612E-01 0.20395505E+03</pdfrwt>
<pdfrwt beam="2">  1       21 0.32190323E-01 0.20395505E+03</pdfrwt>
<totfact> 0.22768766E+04</totfact>
</mgrwt>
</event>
<event>
12    1  0.1026879E-001  0.2402546E+03  0.7546771E-02  0.1119688E+00
         21   -1    0    0  501  502  0.00000000000E+00  0.00000000000E+00  0.33556695913E+03  0.33556695913E+03  0.00000000000E+00 0. -1.
         21   -1    0    0  502  503 -0.00000000000E+00 -0.00000000000E+00 -0.18901758083E+03  0.18901758083E+03  0.00000000000E+00 0. -1.
         -6    2    1    2    0  503  0.23516943128E+02 -0.16445768500E+03 -0.59839860802E+01  0.24032914496E+03  0.17355953750E+03 0.  0.
        -24    2    3    3    0    0 -0.17504690717E+02 -0.28682271675E+02  0.38566712104E+02  0.91585768584E+02  0.75970223240E+02 0.  0.
          6    2    1    2  501    0 -0.23516943128E+02  0.16445768500E+03  0.15253336438E+03  0.28425539501E+03  0.17301828103E+03 0.  0.
         24    2    5    5    0    0 -0.58455314471E+02  0.34653215961E+02  0.60847274573E+02  0.12147235216E+03  0.80220149274E+02 0.  0.
          5    1    5    5  501    0  0.34938371343E+02  0.12980446904E+03  0.91686089804E+02  0.16278304285E+03  0.47000000000E+01 0. -1.
        -11    1    6    6    0    0 -0.71992901966E+02  0.38990663454E+02  0.67182497545E+02  0.10590910134E+03  0.00000000000E+00 0.  1.
         12    1    6    6    0    0  0.13537587496E+02 -0.43374474928E+01 -0.63352229713E+01  0.15563250819E+02  0.00000000000E+00 0. -1.
         -5    1    3    3    0  503  0.41021633845E+02 -0.13577541333E+03 -0.44550698184E+02  0.14874337638E+03  0.47000000000E+01 0.  1.
         13    1    4    4    0    0 -0.29674641734E+02  0.18006802690E+02  0.13822003752E+02  0.37361438581E+02  0.00000000000E+00 0. -1.
        -14    1    4    4    0    0  0.12169951017E+02 -0.46689074365E+02  0.24744708352E+02  0.54224330003E+02  0.00000000000E+00 0.  1.
<mgrwt>
<rscale>  2 0.24015690E+03</rscale>
<asrwt>0</asrwt>
<pdfrwt beam="1">  1       21 0.51625686E-01 0.24025464E+03</pdfrwt>
<pdfrwt beam="2">  1       21 0.29079628E-01 0.24025464E+03</pdfrwt>
<totfact> 0.39438166E+04</totfact>
</mgrwt>
</event>
<event>
12    1  0.1026879E-001  0.2018862E+03  0.7546771E-02  0.1148175E+00
         21   -1    0    0  501  502  0.00000000000E+00  0.00000000000E+00  0.14982661189E+04  0.14982661189E+04  0.00000000000E+00 0.  1.
         21   -1    0    0  502  503 -0.00000000000E+00 -0.00000000000E+00 -0.27954442645E+02  0.27954442645E+02  0.00000000000E+00 0.  1.
         -6    2    1    2    0  503  0.52643904822E+02 -0.90056885415E+02  0.86103691074E+03  0.88436872103E+03  0.17274793702E+03 0.  0.
        -24    2    3    3    0    0  0.53320799806E+02  0.11089571707E+02  0.35154118092E+03  0.36490837348E+03  0.81307028322E+02 0.  0.
          6    2    1    2  501    0 -0.52643904822E+02  0.90056885415E+02  0.60927476555E+03  0.64185184056E+03  0.17284797356E+03 0.  0.
         24    2    5    5    0    0  0.33246987878E+02  0.15073637030E+02  0.23033512647E+03  0.24610309065E+03  0.78612238262E+02 0.  0.
          5    1    5    5  501    0 -0.85890892700E+02  0.74983248385E+02  0.37893963908E+03  0.39574874990E+03  0.47000000000E+01 0. -1.
        -11    1    6    6    0    0  0.45612959999E+02  0.17105163798E+02  0.70020829064E+02  0.85299737697E+02  0.00000000000E+00 0.  1.
         12    1    6    6    0    0 -0.12365972121E+02 -0.20315267679E+01  0.16031429741E+03  0.16080335296E+03  0.00000000000E+00 0. -1.
         -5    1    3    3    0  503 -0.67689498370E+00 -0.10114645712E+03  0.50949572982E+03  0.51946034755E+03  0.47000000000E+01 0.  1.
         13    1    4    4    0    0  0.34562295759E+02 -0.12437315168E+02  0.50925212541E+02  0.62790256960E+02  0.00000000000E+00 0. -1.
        -14    1    4    4    0    0  0.18758504046E+02  0.23526886875E+02  0.30061596838E+03  0.30211811652E+03  0.00000000000E+00 0.  1.
<mgrwt>
<rscale>  2 0.20186480E+03</rscale>
<asrwt>0</asrwt>
<pdfrwt beam="1">  1       21 0.23050242E+00 0.20188622E+03</pdfrwt>
<pdfrwt beam="2">  1       21 0.43006847E-02 0.20188622E+03</pdfrwt>
<totfact> 0.29915434E+04</totfact>
</mgrwt>
</event>
<event>
12    1  0.1026879E-001  0.2068460E+03  0.7546771E-02  0.1147217E+00
         21   -1    0    0  501  502  0.00000000000E+00  0.00000000000E+00  0.10665907164E+03  0.10665907164E+03  0.00000000000E+00 0. -1.
         21   -1    0    0  502  503 -0.00000000000E+00 -0.00000000000E+00 -0.37608567792E+03  0.37608567792E+03  0.00000000000E+00 0.  1.
         -6    2    1    2    0  503 -0.86715499938E+02 -0.62111102320E+00 -0.16230317584E+03  0.26292125485E+03  0.18779057925E+03 0.  0.
        -24    2    3    3    0    0  0.44318628877E+01 -0.57386985626E+02 -0.53983838886E+02  0.11032579283E+03  0.77101350019E+02 0.  0.
          6    2    1    2  501    0  0.86715499938E+02  0.62111102320E+00 -0.10712343043E+03  0.21982349472E+03  0.17125120663E+03 0.  0.
         24    2    5    5    0    0 -0.62084620753E+01  0.31678861001E+02 -0.89373706818E+02  0.12014105274E+03  0.73512705347E+02 0.  0.
          5    1    5    5  501    0  0.92923962013E+02 -0.31057749978E+02 -0.17749723613E+02  0.99682441976E+02  0.47000000000E+01 0. -1.
        -13    1    6    6    0    0 -0.27801128485E+02  0.24176360817E+02 -0.10923189932E+02  0.38428052848E+02  0.00000000000E+00 0.  1.
         14    1    6    6    0    0  0.21592666410E+02  0.75025001847E+01 -0.78450516886E+02  0.81712999892E+02  0.00000000000E+00 0. -1.
         -5    1    3    3    0  503 -0.91147362825E+02  0.56765874603E+02 -0.10831933696E+03  0.15259546202E+03  0.47000000000E+01 0.  1.
         13    1    4    4    0    0  0.29784956744E+02 -0.62838445640E+02 -0.45231729816E+02  0.82956152760E+02  0.00000000000E+00 0. -1.
        -14    1    4    4    0    0 -0.25353093856E+02  0.54514600141E+01 -0.87521090700E+01  0.27369640069E+02  0.00000000000E+00 0.  1.
<mgrwt>
<rscale>  2 0.20301845E+03</rscale>
<asrwt>0</asrwt>
<pdfrwt beam="1">  1       21 0.16409088E-01 0.20684599E+03</pdfrwt>
<pdfrwt beam="2">  1       21 0.57859334E-01 0.20684599E+03</pdfrwt>
<totfact> 0.92695015E+04</totfact>
</mgrwt>
</event>
<event>
12    1  0.1026879E-001  0.2341630E+03  0.7546771E-02  0.1123769E+00
         21   -1    0    0  501  502  0.00000000000E+00  0.00000000000E+00  0.55268372349E+02  0.55268372349E+02  0.00000000000E+00 0. -1.
         21   -1    0    0  502  503 -0.00000000000E+00 -0.00000000000E+00 -0.10163824186E+04  0.10163824186E+04  0.00000000000E+00 0.  1.
         -6    2    1    2    0  503  0.14919113951E+03  0.50948022484E+02 -0.56428036336E+03  0.61088049313E+03  0.17294204609E+03 0.  0.
        -24    2    3    3    0    0  0.91998791728E+02  0.39742895856E+02 -0.52449049661E+03  0.54015678421E+03  0.81460389415E+02 0.  0.
          6    2    1    2  501    0 -0.14919113951E+03 -0.50948022484E+02 -0.39683368292E+03  0.46077029785E+03  0.17314328858E+03 0.  0.
         24    2    5    5    0    0 -0.91197633120E+02 -0.10747868632E+02 -0.35877745636E+03  0.38046048816E+03  0.87157299708E+02 0.  0.
          5    1    5    5  501    0 -0.57993506386E+02 -0.40200153853E+02 -0.38056226558E+02  0.80309809690E+02  0.47000000000E+01 0. -1.
        -13    1    6    6    0    0 -0.92690941562E+02 -0.36866207239E+02 -0.26694261100E+03  0.28497207838E+03  0.00000000000E+00 0.  1.
         14    1    6    6    0    0  0.14933084427E+01  0.26118338608E+02 -0.91834845355E+02  0.95488409784E+02  0.00000000000E+00 0. -1.
         -5    1    3    3    0  503  0.57192347777E+02  0.11205126628E+02 -0.39789866754E+02  0.70723708919E+02  0.47000000000E+01 0.  1.
         11    1    4    4    0    0 -0.76063020003E+01 -0.78026101686E+01 -0.13182291117E+03  0.13227250835E+03  0.00000000000E+00 0. -1.
        -12    1    4    4    0    0  0.99605093729E+02  0.47545506025E+02 -0.39266758544E+03  0.40788427586E+03  0.00000000000E+00 0.  1.
<mgrwt>
<rscale>  2 0.23412577E+03</rscale>
<asrwt>0</asrwt>
<pdfrwt beam="1">  1       21 0.85028265E-02 0.23416297E+03</pdfrwt>
<pdfrwt beam="2">  1       21 0.15636653E+00 0.23416297E+03</pdfrwt>
<totfact> 0.28168817E+04</totfact>
</mgrwt>
</event>
<event>
12    1  0.1026879E-001  0.2383867E+03  0.7546771E-02  0.1121384E+00
         21   -1    0    0  503  502  0.00000000000E+00  0.00000000000E+00  0.62612468508E+03  0.62612468508E+03  0.00000000000E+00 0.  1.
         21   -1    0    0  501  503 -0.00000000000E+00 -0.00000000000E+00 -0.89670205387E+02  0.89670205387E+02  0.00000000000E+00 0.  1.
          6    2    1    2  501    0 -0.77413199276E+02 -0.13935124223E+03  0.27900848110E+03  0.36697947503E+03  0.17724737074E+03 0.  0.
         24    2    3    3    0    0 -0.89624244145E+02 -0.83552236197E+02  0.27248057597E+03  0.30929635587E+03  0.80031807179E+02 0.  0.
         -6    2    1    2    0  502  0.77413199276E+02  0.13935124223E+03  0.25744599859E+03  0.34881541544E+03  0.17315363040E+03 0.  0.
        -24    2    5    5    0    0  0.80041841820E+02  0.92196510079E+02  0.84661966488E+02  0.16963145891E+03  0.81855301417E+02 0.  0.
          5    1    3    3  501    0  0.12211044869E+02 -0.55799006031E+02  0.65279051292E+01  0.57683119162E+02  0.47000000000E+01 0. -1.
        -11    1    4    4    0    0 -0.74016897226E+01 -0.55711492953E+01  0.11450739153E+03  0.11488152780E+03  0.00000000000E+00 0.  1.
         12    1    4    4    0    0 -0.82222554422E+02 -0.77981086901E+02  0.15797318445E+03  0.19441482807E+03  0.00000000000E+00 0. -1.
         -5    1    5    5    0  502 -0.26286425446E+01  0.47154732149E+02  0.17278403210E+03  0.17918395653E+03  0.47000000000E+01 0.  1.
         11    1    6    6    0    0  0.28907601459E+02  0.37016273072E+01 -0.95091204741E+01  0.30655747243E+02  0.00000000000E+00 0. -1.
        -12    1    6    6    0    0  0.51134240361E+02  0.88494882772E+02  0.94171086962E+02  0.13897571167E+03  0.00000000000E+00 0.  1.
<mgrwt>
<rscale>  2 0.23762606E+03</rscale>
<asrwt>0</asrwt>
<pdfrwt beam="1">  1       21 0.96326872E-01 0.23838667E+03</pdfrwt>
<pdfrwt beam="2">  1       21 0.13795417E-01 0.23838667E+03</pdfrwt>
<totfact> 0.40020335E+04</totfact>
</mgrwt>
</event>
<event>
12    1  0.1026879E-001  0.1959479E+03  0.7546771E-02  0.1153311E+00
         21   -1    0    0  501  502  0.00000000000E+00  0.00000000000E+00  0.58628429274E+02  0.58628429274E+02  0.00000000000E+00 0.  1.
         21   -1    0    0  502  503 -0.00000000000E+00 -0.00000000000E+00 -0.77868703978E+03  0.77868703978E+03  0.00000000000E+00 0.  1.
         -6    2    1    2    0  503  0.58993644783E+01  0.91112192082E+02 -0.52845313342E+03  0.56361181625E+03  0.17337627042E+03 0.  0.
        -24    2    3    3    0    0 -0.62775558012E+01  0.13045384284E+02 -0.42509212004E+03  0.43342620662E+03  0.83338924323E+02 0.  0.
          6    2    1    2  501    0 -0.58993644783E+01 -0.91112192082E+02 -0.19160547709E+03  0.27370365281E+03  0.17281434160E+03 0.  0.
         24    2    5    5    0    0  0.56565000824E+02 -0.85567267681E+02 -0.14634691386E+03  0.19622481270E+03  0.81027164002E+02 0.  0.
          5    1    5    5  501    0 -0.62464365302E+02 -0.55449244006E+01 -0.45258563232E+02  0.77478840112E+02  0.47000000000E+01 0. -1.
        -13    1    6    6    0    0  0.27093889063E+02 -0.68561802028E+02 -0.38563363776E+02  0.83198152309E+02  0.00000000000E+00 0.  1.
         14    1    6    6    0    0  0.29471111761E+02 -0.17005465653E+02 -0.10778355008E+03  0.11302666039E+03  0.00000000000E+00 0. -1.
         -5    1    3    3    0  503  0.12176920280E+02  0.78066807798E+02 -0.10336101338E+03  0.13018560963E+03  0.47000000000E+01 0.  1.
         13    1    4    4    0    0  0.50251212920E+01  0.14404325047E+02 -0.10140519305E+02  0.18318475805E+02  0.00000000000E+00 0. -1.
        -14    1    4    4    0    0 -0.11302677093E+02 -0.13589407636E+01 -0.41495160073E+03  0.41510773081E+03  0.00000000000E+00 0.  1.
<mgrwt>
<rscale>  2 0.19582349E+03</rscale>
<asrwt>0</asrwt>
<pdfrwt beam="1">  1       21 0.90197583E-02 0.19594786E+03</pdfrwt>
<pdfrwt beam="2">  1       21 0.11979801E+00 0.19594786E+03</pdfrwt>
<totfact> 0.51514565E+04</totfact>
</mgrwt>
</event>
<event>
12    1  0.1026879E-001  0.2344243E+03  0.7546771E-02  0.1123749E+00
         21   -1    0    0  503  502  0.00000000000E+00  0.00000000000E+00  0.16574455652E+03  0.16574455652E+03  0.00000000000E+00 0. -1.
         21   -1    0    0  501  503 -0.00000000000E+00 -0.00000000000E+00 -0.45658860778E+03  0.45658860778E+03  0.00000000000E+00 0. -1.
          6    2    1    2  501    0  0.15801500253E+03  0.74508321542E+01 -0.30947994675E+03  0.38824295506E+03  0.17300433171E+03 0.  0.
         24    2    3    3    0    0  0.17420076501E+03  0.52225878559E+01 -0.19938806342E+03  0.27684611150E+03  0.80715473526E+02 0.  0.
         -6    2    1    2    0  502 -0.15801500253E+03 -0.74508321542E+01  0.18635895489E+02  0.23409020923E+03  0.17154204597E+03 0.  0.
        -24    2    5    5    0    0 -0.94652280685E+02  0.60077600979E+02 -0.11919511533E+02  0.13646517812E+03  0.76891467063E+02 0.  0.
          5    1    3    3  501    0 -0.16185762481E+02  0.22282442983E+01 -0.11009188333E+03  0.11139684356E+03  0.47000000000E+01 0. -1.
        -13    1    4    4    0    0  0.32637789066E+02 -0.39995514979E+01 -0.92640716161E+00  0.32894983167E+02  0.00000000000E+00 0.  1.
         14    1    4    4    0    0  0.14156297594E+03  0.92221393538E+01 -0.19846165626E+03  0.24395112834E+03  0.00000000000E+00 0. -1.
         -5    1    5    5    0  502 -0.63362721844E+02 -0.67528433134E+02  0.30555407021E+02  0.97625031110E+02  0.47000000000E+01 0.  1.
         11    1    6    6    0    0 -0.53023270898E+01  0.25112237249E+02  0.22897747479E+02  0.34395435334E+02  0.00000000000E+00 0. -1.
        -12    1    6    6    0    0 -0.89349953595E+02  0.34965363730E+02 -0.34817259012E+02  0.10206974279E+03  0.00000000000E+00 0.  1.
<mgrwt>
<rscale>  2 0.23415457E+03</rscale>
<asrwt>0</asrwt>
<pdfrwt beam="1">  1       21 0.25499163E-01 0.23442430E+03</pdfrwt>
<pdfrwt beam="2">  1       21 0.70244400E-01 0.23442430E+03</pdfrwt>
<totfact> 0.26221677E+04</totfact>
</mgrwt>
</event>
<event>
12    1  0.1026879E-001  0.2040349E+03  0.7546771E-02  0.1146612E+00
         21   -1    0    0  501  502  0.00000000000E+00  0.00000000000E+00  0.34338542163E+03  0.34338542163E+03  0.00000000000E+00 0.  1.
         21   -1    0    0  502  503 -0.00000000000E+00 -0.00000000000E+00 -0.19824795044E+03  0.19824795044E+03  0.00000000000E+00 0.  1.
         -6    2    1    2    0  503  0.67550279786E+02 -0.84207554733E+02 -0.96835186863E+02  0.22584797187E+03  0.17313665242E+03 0.  0.
        -24    2    3    3    0    0  0.20463820572E+02 -0.86492177985E+02 -0.12282613938E+03  0.17181119035E+03  0.80827964280E+02 0.  0.
          6    2    1    2  501    0 -0.67550279786E+02  0.84207554733E+02  0.24197265806E+03  0.31578540019E+03  0.17180133630E+03 0.  0.
         24    2    5    5    0    0 -0.26217893485E+02  0.12043749474E+03  0.18806844366E+03  0.23865739595E+03  0.79969025623E+02 0.  0.
          5    1    5    5  501    0 -0.41332386302E+02 -0.36229940007E+02  0.53904214392E+02  0.77128004249E+02  0.47000000000E+01 0. -1.
        -11    1    6    6    0    0 -0.18541102343E+02  0.26083375039E+01  0.66896217074E+02  0.69467112791E+02  0.00000000000E+00 0.  1.
         12    1    6    6    0    0 -0.76767911420E+01  0.11782915724E+03  0.12117222659E+03  0.16919028315E+03  0.00000000000E+00 0. -1.
         -5    1    3    3    0  503  0.47086459214E+02  0.22846232521E+01  0.25990952516E+02  0.54036781524E+02  0.47000000000E+01 0.  1.
         13    1    4    4    0    0  0.10317834449E+02  0.12492685981E+02 -0.37449718276E+01  0.16629784266E+02  0.00000000000E+00 0. -1.
        -14    1    4    4    0    0  0.10145986124E+02 -0.98984863967E+02 -0.11908116755E+03  0.15518140608E+03  0.00000000000E+00 0.  1.
<mgrwt>
<rscale>  2 0.20375137E+03</rscale>
<asrwt>0</asrwt>
<pdfrwt beam="1">  1       21 0.52828526E-01 0.20403493E+03</pdfrwt>
<pdfrwt beam="2">  1       21 0.30499685E-01 0.20403493E+03</pdfrwt>
<totfact> 0.34826454E+04</totfact>
</mgrwt>
</event>
<event>
12    1  0.1026879E-001  0.2775040E+03  0.7546771E-02  0.1097492E+00
         21   -1    0    0  501  502  0.00000000000E+00  0.00000000000E+00  0.22618329140E+03  0.22618329140E+03  0.00000000000E+00 0.  1.
         21   -1    0    0  502  503 -0.00000000000E+00 -0.00000000000E+00 -0.50829821090E+03  0.50829821090E+03  0.00000000000E+00 0.  1.
         -6    2    1    2    0  503  0.21468816805E+03 -0.23959815448E+02 -0.35497963275E+03  0.45057628852E+03  0.17419348393E+03 0.  0.
        -24    2    3    3    0    0  0.82712337246E+02  0.49325496999E+02 -0.16810315496E+03  0.21029881373E+03  0.81808220623E+02 0.  0.
          6    2    1    2  501    0 -0.21468816805E+03  0.23959815448E+02  0.72864713252E+02  0.28390521378E+03  0.16919758189E+03 0.  0.
         24    2    5    5    0    0 -0.18434830771E+03  0.74976339832E+02  0.46298817018E+02  0.21870529255E+03  0.77991502379E+02 0.  0.
          5    1    5    5  501    0 -0.30339860341E+02 -0.51016524384E+02  0.26565896234E+02  0.65199921230E+02  0.47000000000E+01 0. -1.
        -13    1    6    6    0    0 -0.10413691812E+03  0.21820595936E+02  0.58972259094E+02  0.12164852430E+03  0.00000000000E+00 0.  1.
         14    1    6    6    0    0 -0.80211389593E+02  0.53155743895E+02 -0.12673442076E+02  0.97056768252E+02  0.00000000000E+00 0. -1.
         -5    1    3    3    0  503  0.13197583080E+03 -0.73285312448E+02 -0.18687647780E+03  0.24027747479E+03  0.47000000000E+01 0.  1.
         13    1    4    4    0    0 -0.11557140126E+02 -0.48980090733E+01 -0.41716198653E+02  0.43563737338E+02  0.00000000000E+00 0. -1.
        -14    1    4    4    0    0  0.94269477372E+02  0.54223506073E+02 -0.12638695630E+03  0.16673507639E+03  0.00000000000E+00 0.  1.
<mgrwt>
<rscale>  2 0.27672357E+03</rscale>
<asrwt>0</asrwt>
<pdfrwt beam="1">  1       21 0.34797430E-01 0.27750397E+03</pdfrwt>
<pdfrwt beam="2">  1       21 0.78199724E-01 0.27750397E+03</pdfrwt>
<totfact> 0.10969246E+04</totfact>
</mgrwt>
</event>
<event>
12    1  0.1026879E-001  0.2020788E+03  0.7546771E-02  0.1148178E+00
         21   -1    0    0  501  502  0.00000000000E+00  0.00000000000E+00  0.16601692729E+02  0.16601692729E+02  0.00000000000E+00 0. -1.
         21   -1    0    0  502  503 -0.00000000000E+00 -0.00000000000E+00 -0.26276270984E+04  0.26276270984E+04  0.00000000000E+00 0. -1.
         -6    2    1    2    0  503  0.36403916785E+02 -0.97518345652E+02 -0.95832630326E+03  0.97922123073E+03  0.17219129561E+03 0.  0.
        -24    2    3    3    0    0  0.63964302135E+01 -0.93544424762E+02 -0.92561650822E+03  0.93440759453E+03  0.86949173057E+02 0.  0.
          6    2    1    2  501    0 -0.36403916785E+02  0.97518345652E+02 -0.16526991025E+04  0.16650075604E+04  0.17320733299E+03 0.  0.
         24    2    5    5    0    0  0.39953257939E+02  0.52153052835E+02 -0.65294026198E+03  0.66130030380E+03  0.81675592212E+02 0.  0.
          5    1    5    5  501    0 -0.76357174724E+02  0.45365292817E+02 -0.99975884048E+03  0.10037072566E+04  0.47000000000E+01 0. -1.
        -13    1    6    6    0    0  0.77207404801E+01 -0.95740473740E+01 -0.35950967442E+03  0.35971999975E+03  0.00000000000E+00 0.  1.
         14    1    6    6    0    0  0.32232517458E+02  0.61727100209E+02 -0.29343058755E+03  0.30158030406E+03  0.00000000000E+00 0. -1.
         -5    1    3    3    0  503  0.30007486572E+02 -0.39739208899E+01 -0.32709795038E+02  0.44813636195E+02  0.47000000000E+01 0.  1.
         13    1    4    4    0    0 -0.19873447157E+02  0.66638580649E+01 -0.25219290580E+03  0.25306248762E+03  0.00000000000E+00 0. -1.
        -14    1    4    4    0    0  0.26269877371E+02 -0.10020828283E+03 -0.67342360243E+03  0.68134510691E+03  0.00000000000E+00 0.  1.
<mgrwt>
<rscale>  2 0.20186093E+03</rscale>
<asrwt>0</asrwt>
<pdfrwt beam="1">  1       21 0.25541093E-02 0.20207883E+03</pdfrwt>
<pdfrwt beam="2">  1       21 0.40424989E+00 0.20207883E+03</pdfrwt>
<totfact> 0.66800972E+03</totfact>
</mgrwt>
</event>
<event>
12    1  0.1026879E-001  0.1877254E+03  0.7546771E-02  0.1160683E+00
         21   -1    0    0  503  502  0.00000000000E+00  0.00000000000E+00  0.64569846216E+02  0.64569846216E+02  0.00000000000E+00 0. -1.
         21   -1    0    0  501  503 -0.00000000000E+00 -0.00000000000E+00 -0.63998909293E+03  0.63998909293E+03  0.00000000000E+00 0. -1.
          6    2    1    2  501    0  0.37019553325E+02 -0.61864770912E+02 -0.42469726088E+03  0.46433671380E+03  0.17332952192E+03 0.  0.
         24    2    3    3    0    0 -0.46210407919E+02 -0.33331971091E+02 -0.24469581001E+03  0.26392723440E+03  0.80840110878E+02 0.  0.
         -6    2    1    2    0  502 -0.37019553325E+02  0.61864770912E+02 -0.15072198583E+03  0.24022222535E+03  0.17260331205E+03 0.  0.
        -24    2    5    5    0    0  0.29644993062E+02  0.39831235628E+02 -0.13933733808E+03  0.16893871655E+03  0.81609087861E+02 0.  0.
          5    1    3    3  501    0  0.83229961244E+02 -0.28532799821E+02 -0.18000145087E+03  0.20040947939E+03  0.47000000000E+01 0. -1.
        -11    1    4    4    0    0  0.53169478102E+01  0.12560934903E+02 -0.50490655810E+01  0.14544417585E+02  0.00000000000E+00 0.  1.
         12    1    4    4    0    0 -0.51527355729E+02 -0.45892905994E+02 -0.23964674443E+03  0.24938281682E+03  0.00000000000E+00 0. -1.
         -5    1    5    5    0  502 -0.66664546387E+02  0.22033535284E+02 -0.11384647751E+02  0.71283508797E+02  0.47000000000E+01 0.  1.
         11    1    6    6    0    0  0.57864262148E+02  0.27754557432E+02 -0.84664828666E+02  0.10623898298E+03  0.00000000000E+00 0. -1.
        -12    1    6    6    0    0 -0.28219269086E+02  0.12076678196E+02 -0.54672509415E+02  0.62699733570E+02  0.00000000000E+00 0.  1.
<mgrwt>
<rscale>  2 0.18755758E+03</rscale>
<asrwt>0</asrwt>
<pdfrwt beam="1">  1       21 0.99338227E-02 0.18772539E+03</pdfrwt>
<pdfrwt beam="2">  1       21 0.98459859E-01 0.18772539E+03</pdfrwt>
<totfact> 0.70078640E+04</totfact>
</mgrwt>
</event>
<event>
12    1  0.1026879E-001  0.2519312E+03  0.7546771E-02  0.1112459E+00
         21   -1    0    0  503  502  0.00000000000E+00  0.00000000000E+00  0.39995136731E+02  0.39995136731E+02  0.00000000000E+00 0. -1.
         21   -1    0    0  501  503 -0.00000000000E+00 -0.00000000000E+00 -0.16196445577E+04  0.16196445577E+04  0.00000000000E+00 0.  1.
          6    2    1    2  501    0  0.31622959907E+02 -0.17742676051E+03 -0.93542819463E+03  0.96875964370E+03  0.17603713532E+03 0.  0.
         24    2    3    3    0    0  0.84744235463E+02 -0.90217385344E+02 -0.49128672799E+03  0.51300633606E+03  0.80573504812E+02 0.  0.
         -6    2    1    2    0  502 -0.31622959907E+02  0.17742676051E+03 -0.64422122631E+03  0.69088005070E+03  0.17266727858E+03 0.  0.
        -24    2    5    5    0    0 -0.43485284367E+02  0.17001040476E+03 -0.64738967490E+03  0.67578547748E+03  0.82329294436E+02 0.  0.
          5    1    3    3  501    0 -0.53121275556E+02 -0.87209375169E+02 -0.44414146664E+03  0.45575330764E+03  0.47000000000E+01 0. -1.
        -11    1    4    4    0    0  0.61822901770E+02 -0.10360510930E+02 -0.17127484693E+03  0.18238553824E+03  0.00000000000E+00 0.  1.
         12    1    4    4    0    0  0.22921333693E+02 -0.79856874414E+02 -0.32001188106E+03  0.33062079781E+03  0.00000000000E+00 0. -1.
         -5    1    5    5    0  502  0.11862324460E+02  0.74163557576E+01  0.31684485904E+01  0.15094573223E+02  0.47000000000E+01 0.  1.
         13    1    6    6    0    0  0.22376779021E+01  0.24649426221E+02 -0.25650122773E+02  0.35644497664E+02  0.00000000000E+00 0. -1.
        -14    1    6    6    0    0 -0.45722962269E+02  0.14536097853E+03 -0.62173955213E+03  0.64014097982E+03  0.00000000000E+00 0.  1.
<mgrwt>
<rscale>  2 0.25134340E+03</rscale>
<asrwt>0</asrwt>
<pdfrwt beam="1">  1       21 0.61530985E-02 0.25193122E+03</pdfrwt>
<pdfrwt beam="2">  1       21 0.24917606E+00 0.25193122E+03</pdfrwt>
<totfact> 0.12091102E+04</totfact>
</mgrwt>
</event>
<event>
12    1  0.1026879E-001  0.1811104E+03  0.7546771E-02  0.1166861E+00
         21   -1    0    0  503  502  0.00000000000E+00  0.00000000000E+00  0.41040317238E+03  0.41040317238E+03  0.00000000000E+00 0. -1.
         21   -1    0    0  501  503 -0.00000000000E+00 -0.00000000000E+00 -0.94460689253E+02  0.94460689253E+02  0.00000000000E+00 0. -1.
          6    2    1    2  501    0 -0.25042198242E+02  0.44464628631E+02  0.58342507153E+02  0.19027565710E+03  0.17377215730E+03 0.  0.
         24    2    3    3    0    0  0.11285518370E+02 -0.70753161612E+01 -0.25795158257E+02  0.85026877325E+02  0.79917186227E+02 0.  0.
         -6    2    1    2    0  502  0.25042198242E+02 -0.44464628631E+02  0.25759997597E+03  0.31458820453E+03  0.17321598055E+03 0.  0.
        -24    2    5    5    0    0 -0.54410189285E+02 -0.14163012850E+02  0.16094595304E+03  0.18576677793E+03  0.73787779146E+02 0.  0.
          5    1    3    3  501    0 -0.36327716612E+02  0.51539944793E+02  0.84137665409E+02  0.10524877977E+03  0.47000000000E+01 0. -1.
        -11    1    4    4    0    0 -0.73075275338E+01 -0.36120140316E+02  0.69151597939E+01  0.37495118750E+02  0.00000000000E+00 0.  1.
         12    1    4    4    0    0  0.18593045904E+02  0.29044824155E+02 -0.32710318051E+02  0.47531758574E+02  0.00000000000E+00 0. -1.
         -5    1    5    5    0  502  0.79452387527E+02 -0.30301615781E+02  0.96654022931E+02  0.12882142660E+03  0.47000000000E+01 0.  1.
         11    1    6    6    0    0 -0.19027545808E+02  0.26754743776E+02  0.94765313054E+02  0.10029121782E+03  0.00000000000E+00 0. -1.
        -12    1    6    6    0    0 -0.35382643477E+02 -0.40917756626E+02  0.66180639985E+02  0.85475560107E+02  0.00000000000E+00 0.  1.
<mgrwt>
<rscale>  2 0.18097686E+03</rscale>
<asrwt>0</asrwt>
<pdfrwt beam="1">  1       21 0.63138949E-01 0.18111040E+03</pdfrwt>
<pdfrwt beam="2">  1       21 0.14532414E-01 0.18111040E+03</pdfrwt>
<totfact> 0.96894756E+04</totfact>
</mgrwt>
</event>
<event>
12    1  0.1026879E-001  0.2417469E+03  0.7546771E-02  0.1118792E+00
         21   -1    0    0  503  502  0.00000000000E+00  0.00000000000E+00  0.42920779667E+02  0.42920779667E+02  0.00000000000E+00 0. -1.
         21   -1    0    0  501  503 -0.00000000000E+00 -0.00000000000E+00 -0.14370135737E+04  0.14370135737E+04  0.00000000000E+00 0.  1.
          6    2    1    2  501    0 -0.23274100001E+02 -0.16618911126E+03 -0.87374362689E+03  0.90657018394E+03  0.17401456392E+03 0.  0.
         24    2    3    3    0    0  0.35841618091E+02 -0.43204815312E+02 -0.26931886823E+03  0.28691609975E+03  0.81467280911E+02 0.  0.
         -6    2    1    2    0  502  0.23274100001E+02  0.16618911126E+03 -0.52034916718E+03  0.57336416946E+03  0.17269253199E+03 0.  0.
        -24    2    5    5    0    0  0.69675110345E+01  0.95752485851E+02 -0.14448891680E+03  0.19058454506E+03  0.78919813609E+02 0.  0.
          5    1    3    3  501    0 -0.59115718092E+02 -0.12298429594E+03 -0.60442475866E+03  0.61965408419E+03  0.47000000000E+01 0. -1.
        -11    1    4    4    0    0  0.20283324447E+02 -0.34237354679E+02 -0.26561628459E+03  0.26858075201E+03  0.00000000000E+00 0.  1.
         12    1    4    4    0    0  0.15558293644E+02 -0.89674606330E+01 -0.37025836320E+01  0.18335347744E+02  0.00000000000E+00 0. -1.
         -5    1    5    5    0  502  0.16306588967E+02  0.70436625405E+02 -0.37586025038E+03  0.38277962440E+03  0.47000000000E+01 0.  1.
         13    1    6    6    0    0  0.23051707593E+02  0.13623301717E+01 -0.54471753891E+02  0.59164255580E+02  0.00000000000E+00 0. -1.
        -14    1    6    6    0    0 -0.16084196558E+02  0.94390155679E+02 -0.90017162913E+02  0.13142028948E+03  0.00000000000E+00 0.  1.
<mgrwt>
<rscale>  2 0.24150910E+03</rscale>
<asrwt>0</asrwt>
<pdfrwt beam="1">  1       21 0.66031957E-02 0.24174692E+03</pdfrwt>
<pdfrwt beam="2">  1       21 0.22107905E+00 0.24174692E+03</pdfrwt>
<totfact> 0.15965031E+04</totfact>
</mgrwt>
</event>
<event>
12    1  0.1026879E-001  0.1979492E+03  0.7546771E-02  0.1151803E+00
         21   -1    0    0  503  502  0.00000000000E+00  0.00000000000E+00  0.18454511202E+03  0.18454511202E+03  0.00000000000E+00 0.  1.
         21   -1    0    0  501  503 -0.00000000000E+00 -0.00000000000E+00 -0.22297070655E+03  0.22297070655E+03  0.00000000000E+00 0. -1.
          6    2    1    2  501    0 -0.92130630509E+02 -0.29120294217E+02 -0.66906141026E+02  0.20752825841E+03  0.17104239743E+03 0.  0.
         24    2    3    3    0    0 -0.52891770468E+02  0.48832739131E+02 -0.22494056843E+02  0.10949312814E+03  0.79376235247E+02 0.  0.
         -6    2    1    2    0  502  0.92130630509E+02  0.29120294217E+02  0.28480546494E+02  0.19998756016E+03  0.17276526872E+03 0.  0.
        -24    2    5    5    0    0  0.64008565630E+02  0.29449172629E+02  0.86047251111E+02  0.13574603017E+03  0.77836399208E+02 0.  0.
          5    1    3    3  501    0 -0.39238860041E+02 -0.77953033348E+02 -0.44412084183E+02  0.98035130270E+02  0.47000000000E+01 0. -1.
        -13    1    4    4    0    0 -0.67735624149E+02  0.39431215418E+02  0.31116742419E+01  0.78438625975E+02  0.00000000000E+00 0.  1.
         14    1    4    4    0    0  0.14843853681E+02  0.94015237133E+01 -0.25605731085E+02  0.31054502164E+02  0.00000000000E+00 0. -1.
         -5    1    5    5    0  502  0.28122064879E+02 -0.32887841142E+00 -0.57566704616E+02  0.64241529982E+02  0.47000000000E+01 0.  1.
         11    1    6    6    0    0  0.30387084392E+02 -0.15151140122E+02  0.96456334368E+00  0.33968549090E+02  0.00000000000E+00 0. -1.
        -12    1    6    6    0    0  0.33621481238E+02  0.44600312751E+02  0.85082687767E+02  0.10177748108E+03  0.00000000000E+00 0.  1.
<mgrwt>
<rscale>  2 0.19757265E+03</rscale>
<asrwt>0</asrwt>
<pdfrwt beam="1">  1       21 0.28391556E-01 0.19794919E+03</pdfrwt>
<pdfrwt beam="2">  1       21 0.34303185E-01 0.19794919E+03</pdfrwt>
<totfact> 0.96923103E+04</totfact>
</mgrwt>
</event>
<event>
12    1  0.1026879E-001  0.2488473E+03  0.7546771E-02  0.1114078E+00
         21   -1    0    0  501  502  0.00000000000E+00  0.00000000000E+00  0.17136743604E+04  0.17136743604E+04  0.00000000000E+00 0.  1.
         21   -1    0    0  502  503 -0.00000000000E+00 -0.00000000000E+00 -0.39836247190E+02  0.39836247190E+02  0.00000000000E+00 0. -1.
         -6    2    1    2    0  503  0.11365183242E+03 -0.13854707160E+03  0.56790982015E+03  0.61993115784E+03  0.17228188115E+03 0.  0.
        -24    2    3    3    0    0  0.18925035495E+02 -0.26506819992E+02  0.32158575332E+03  0.33318419633E+03  0.80830337550E+02 0.  0.
          6    2    1    2  501    0 -0.11365183242E+03  0.13854707160E+03  0.11059282931E+04  0.11335794498E+04  0.17266426801E+03 0.  0.
         24    2    5    5    0    0 -0.51601265137E+02  0.47022366792E+01  0.55063857060E+03  0.55900701863E+03  0.81247829834E+02 0.  0.
          5    1    5    5  501    0 -0.62050567282E+02  0.13384483492E+03  0.55528972250E+03  0.57457243116E+03  0.47000000000E+01 0. -1.
        -13    1    6    6    0    0 -0.37259440667E+02  0.15683303804E+02  0.53016612369E+03  0.53170513505E+03  0.00000000000E+00 0.  1.
         14    1    6    6    0    0 -0.14341824470E+02 -0.10981067125E+02  0.20472446918E+02  0.27301883583E+02  0.00000000000E+00 0. -1.
         -5    1    3    3    0  503  0.94726796924E+02 -0.11204025161E+03  0.24632406683E+03  0.28674696151E+03  0.47000000000E+01 0.  1.
         13    1    4    4    0    0  0.39615304796E+02  0.94142909907E+01  0.10404396649E+03  0.11172800997E+03  0.00000000000E+00 0. -1.
        -14    1    4    4    0    0 -0.20690269301E+02 -0.35921110983E+02  0.21754178683E+03  0.22145618636E+03  0.00000000000E+00 0.  1.
<mgrwt>
<rscale>  2 0.24878098E+03</rscale>
<asrwt>0</asrwt>
<pdfrwt beam="1">  1       21 0.26364215E+00 0.24884730E+03</pdfrwt>
<pdfrwt beam="2">  1       21 0.61286547E-02 0.24884730E+03</pdfrwt>
<totfact> 0.10014557E+04</totfact>
</mgrwt>
</event>
<event>
12    1  0.1026879E-001  0.1944181E+03  0.7546771E-02  0.1155189E+00
         21   -1    0    0  501  502  0.00000000000E+00  0.00000000000E+00  0.54588605617E+02  0.54588605617E+02  0.00000000000E+00 0. -1.
         21   -1    0    0  502  503 -0.00000000000E+00 -0.00000000000E+00 -0.77209007937E+03  0.77209007937E+03  0.00000000000E+00 0. -1.
         -6    2    1    2    0  503  0.24125388033E+02  0.86404233820E+02 -0.49757207499E+03  0.53313591708E+03  0.16913961777E+03 0.  0.
        -24    2    3    3    0    0  0.38087852744E+02  0.29606577354E+02 -0.12541636426E+03  0.15638283185E+03  0.79994323071E+02 0.  0.
          6    2    1    2  501    0 -0.24125388033E+02 -0.86404233820E+02 -0.21992939876E+03  0.29354276790E+03  0.17248388383E+03 0.  0.
         24    2    5    5    0    0 -0.23798017219E+02  0.33318460863E+02 -0.11830692538E+03  0.13643500906E+03  0.54235759840E+02 0.  0.
          5    1    5    5  501    0 -0.32737081446E+00 -0.11972269468E+03 -0.10162247337E+03  0.15710775884E+03  0.47000000000E+01 0. -1.
        -13    1    6    6    0    0 -0.18561591829E+02  0.28372442224E+00 -0.92076319610E+02  0.93929025459E+02  0.00000000000E+00 0.  1.
         14    1    6    6    0    0 -0.52364253897E+01  0.33034736441E+02 -0.26230605774E+02  0.42505983601E+02  0.00000000000E+00 0. -1.
         -5    1    3    3    0  503 -0.13962464711E+02  0.56797656466E+02 -0.37215571074E+03  0.37675308524E+03  0.47000000000E+01 0.  1.
         13    1    4    4    0    0  0.53127451727E+02  0.40200433301E+02 -0.11991874847E+03  0.13718275110E+03  0.00000000000E+00 0. -1.
        -14    1    4    4    0    0 -0.15039598983E+02 -0.10593855947E+02 -0.54976157881E+01  0.19200080748E+02  0.00000000000E+00 0.  1.
<mgrwt>
<rscale>  2 0.19367370E+03</rscale>
<asrwt>0</asrwt>
<pdfrwt beam="1">  1       21 0.83982470E-02 0.19441815E+03</pdfrwt>
<pdfrwt beam="2">  1       21 0.11878309E+00 0.19441815E+03</pdfrwt>
<totfact> 0.59664718E+04</totfact>
</mgrwt>
</event>
<event>
12    1  0.1026879E-001  0.2078214E+03  0.7546771E-02  0.1149496E+00
         21   -1    0    0  501  502  0.00000000000E+00  0.00000000000E+00  0.61017901202E+03  0.61017901202E+03  0.00000000000E+00 0.  1.
         21   -1    0    0  502  503 -0.00000000000E+00 -0.00000000000E+00 -0.11847071730E+03  0.11847071730E+03  0.00000000000E+00 0.  1.
         -6    2    1    2    0  503  0.52853838320E+02  0.77523959516E+02  0.27303838068E+01  0.20783930698E+03  0.18543524478E+03 0.  0.
        -24    2    3    3    0    0  0.46394749953E+02  0.11066361450E+03  0.46394370640E+02  0.15244444890E+03  0.81779972948E+02 0.  0.
          6    2    1    2  501    0 -0.52853838320E+02 -0.77523959516E+02  0.48897791092E+03  0.52081042234E+03  0.15277632712E+03 0.  0.
         24    2    5    5    0    0 -0.69735079609E+02 -0.86174847097E+02  0.31496017947E+03  0.34569881501E+03  0.89547029249E+02 0.  0.
          5    1    5    5  501    0  0.16881241289E+02  0.86508875807E+01  0.17401773145E+03  0.17511160733E+03  0.47000000000E+01 0. -1.
        -11    1    6    6    0    0 -0.50024264172E+02 -0.62509217327E+01  0.18595229707E+03  0.19266488475E+03  0.00000000000E+00 0.  1.
         12    1    6    6    0    0 -0.19710815437E+02 -0.79923925364E+02  0.12900788240E+03  0.15303393026E+03  0.00000000000E+00 0. -1.
         -5    1    3    3    0  503  0.64590883672E+01 -0.33139654988E+02 -0.43663986834E+02  0.55394858078E+02  0.47000000000E+01 0.  1.
         13    1    4    4    0    0  0.66518640123E+02  0.68508749006E+02  0.45374382872E+02  0.10572139233E+03  0.00000000000E+00 0. -1.
        -14    1    4    4    0    0 -0.20123890170E+02  0.42154865498E+02  0.10199877680E+01  0.46723056576E+02  0.00000000000E+00 0.  1.
<mgrwt>
<rscale>  2 0.20028818E+03</rscale>
<asrwt>0</asrwt>
<pdfrwt beam="1">  1       21 0.93873692E-01 0.20782137E+03</pdfrwt>
<pdfrwt beam="2">  1       21 0.18226265E-01 0.20782137E+03</pdfrwt>
<totfact> 0.25902632E+04</totfact>
</mgrwt>
</event>
<event>
12    1  0.1026879E-001  0.1847169E+03  0.7546771E-02  0.1164809E+00
         21   -1    0    0  501  502  0.00000000000E+00  0.00000000000E+00  0.35169503628E+02  0.35169503628E+02  0.00000000000E+00 0. -1.
         21   -1    0    0  502  503 -0.00000000000E+00 -0.00000000000E+00 -0.10194165741E+04  0.10194165741E+04  0.00000000000E+00 0. -1.
         -6    2    1    2    0  503  0.28565190657E+02  0.43800571189E+02 -0.63375093371E+03  0.65839436585E+03  0.17061194228E+03 0.  0.
        -24    2    3    3    0    0 -0.20241934005E+02  0.30324124908E+02 -0.57170673575E+03  0.57817390386E+03  0.78148467379E+02 0.  0.
          6    2    1    2  501    0 -0.28565190657E+02 -0.43800571189E+02 -0.35049613673E+03  0.39619171184E+03  0.17716057834E+03 0.  0.
         24    2    5    5    0    0  0.47776139133E+00  0.43469654788E+02 -0.15309504708E+03  0.17836410662E+03  0.80534600916E+02 0.  0.
          5    1    5    5  501    0 -0.29042952048E+02 -0.87270225978E+02 -0.19740108964E+03  0.21782760523E+03  0.47000000000E+01 0. -1.
        -11    1    6    6    0    0  0.32074206637E+02 -0.44709943807E+01 -0.39460625265E+02  0.51047874279E+02  0.00000000000E+00 0.  1.
         12    1    6    6    0    0 -0.31596445245E+02  0.47940649169E+02 -0.11363442182E+03  0.12731623234E+03  0.00000000000E+00 0. -1.
         -5    1    3    3    0  503  0.48807124661E+02  0.13476446281E+02 -0.62044197961E+02  0.80220461995E+02  0.47000000000E+01 0.  1.
         11    1    4    4    0    0  0.20624246591E+02  0.30042440459E+02 -0.40062189045E+03  0.40227578461E+03  0.00000000000E+00 0. -1.
        -12    1    4    4    0    0 -0.40866180595E+02  0.28168444881E+00 -0.17108484530E+03  0.17589811924E+03  0.00000000000E+00 0.  1.
<mgrwt>
<rscale>  2 0.18312875E+03</rscale>
<asrwt>0</asrwt>
<pdfrwt beam="1">  1       21 0.54106930E-02 0.18471689E+03</pdfrwt>
<pdfrwt beam="2">  1       21 0.15683332E+00 0.18471689E+03</pdfrwt>
<totfact> 0.62744982E+04</totfact>
</mgrwt>
</event>
<event>
12    1  0.1026879E-001  0.1775229E+03  0.7546771E-02  0.1171146E+00
         21   -1    0    0  503  502  0.00000000000E+00  0.00000000000E+00  0.59807706741E+03  0.59807706741E+03  0.00000000000E+00 0.  1.
         21   -1    0    0  501  503 -0.00000000000E+00 -0.00000000000E+00 -0.55869856202E+02  0.55869856202E+02  0.00000000000E+00 0. -1.
          6    2    1    2  501    0 -0.49856293910E+01 -0.38319447116E+02  0.17805162025E+03  0.24882509976E+03  0.16946478770E+03 0.  0.
         24    2    3    3    0    0  0.38467873887E+02 -0.67008746625E+02  0.13909781696E+03  0.18362715774E+03  0.91655774120E+02 0.  0.
         -6    2    1    2    0  502  0.49856293910E+01  0.38319447116E+02  0.36415559096E+03  0.40512182386E+03  0.17326615713E+03 0.  0.
        -24    2    5    5    0    0 -0.45592778730E+02  0.35557354514E+02  0.32899929957E+03  0.34328446179E+03  0.79124305063E+02 0.  0.
          5    1    3    3  501    0 -0.43453503278E+02  0.28689299509E+02  0.38953803285E+02  0.65197942022E+02  0.47000000000E+01 0. -1.
        -13    1    4    4    0    0  0.65369067281E+02 -0.63989774415E+02  0.11801201098E+03  0.14931390063E+03  0.00000000000E+00 0.  1.
         14    1    4    4    0    0 -0.26901193393E+02 -0.30189722094E+01  0.21085805984E+02  0.34313257105E+02  0.00000000000E+00 0. -1.
         -5    1    5    5    0  502  0.50578408121E+02  0.27620926016E+01  0.35156291391E+02  0.61837362071E+02  0.47000000000E+01 0.  1.
         11    1    6    6    0    0 -0.50686231068E+02  0.42197509014E+02  0.14728064444E+03  0.16137320723E+03  0.00000000000E+00 0. -1.
        -12    1    6    6    0    0  0.50934523384E+01 -0.66401544999E+01  0.18171865514E+03  0.18191125455E+03  0.00000000000E+00 0.  1.
<mgrwt>
<rscale>  2 0.17658854E+03</rscale>
<asrwt>0</asrwt>
<pdfrwt beam="1">  1       21 0.92011852E-01 0.17752295E+03</pdfrwt>
<pdfrwt beam="2">  1       21 0.85953629E-02 0.17752295E+03</pdfrwt>
<totfact> 0.10631002E+05</totfact>
</mgrwt>
</event>
<event>
12    1  0.1026879E-001  0.2093593E+03  0.7546771E-02  0.1142992E+00
         21   -1    0    0  501  502  0.00000000000E+00  0.00000000000E+00  0.11164094261E+03  0.11164094261E+03  0.00000000000E+00 0. -1.
         21   -1    0    0  502  503 -0.00000000000E+00 -0.00000000000E+00 -0.61889889916E+03  0.61889889916E+03  0.00000000000E+00 0. -1.
         -6    2    1    2    0  503  0.10825797647E+03  0.89795290174E+01 -0.26920151126E+02  0.20655917902E+03  0.17361330158E+03 0.  0.
        -24    2    3    3    0    0  0.13654706452E+03 -0.10459489633E+02 -0.47211612005E+02  0.16640969168E+03  0.81906943695E+02 0.  0.
          6    2    1    2  501    0 -0.10825797647E+03 -0.89795290174E+01 -0.48033780542E+03  0.52398066275E+03  0.17897180283E+03 0.  0.
         24    2    5    5    0    0 -0.12001224847E+03 -0.52645728136E+02 -0.29342313590E+03  0.33161620778E+03  0.81839233271E+02 0.  0.
          5    1    5    5  501    0  0.11754272000E+02  0.43666199119E+02 -0.18691466952E+03  0.19236445497E+03  0.47000000000E+01 0. -1.
        -13    1    6    6    0    0 -0.12986114460E+03 -0.52355031873E+02 -0.24488416327E+03  0.28208725540E+03  0.00000000000E+00 0.  1.
         14    1    6    6    0    0  0.98488961254E+01 -0.29069626297E+00 -0.48538972633E+02  0.49528952376E+02  0.00000000000E+00 0. -1.
         -5    1    3    3    0  503 -0.28289088045E+02  0.19439018651E+02  0.20291460879E+02  0.40149487333E+02  0.47000000000E+01 0.  1.
         11    1    4    4    0    0  0.17716674249E+02  0.15448984166E+02  0.16874624759E+02  0.28936216390E+02  0.00000000000E+00 0. -1.
        -12    1    4    4    0    0  0.11883039027E+03 -0.25908473799E+02 -0.64086236764E+02  0.13747347529E+03  0.00000000000E+00 0.  1.
<mgrwt>
<rscale>  2 0.20820942E+03</rscale>
<asrwt>0</asrwt>
<pdfrwt beam="1">  1       21 0.17175530E-01 0.20935933E+03</pdfrwt>
<pdfrwt beam="2">  1       21 0.95215216E-01 0.20935933E+03</pdfrwt>
<totfact> 0.27939526E+04</totfact>
</mgrwt>
</event>
<event>
12    1  0.1026879E-001  0.1957269E+03  0.7546771E-02  0.1154619E+00
         21   -1    0    0  501  502  0.00000000000E+00  0.00000000000E+00  0.57164083674E+03  0.57164083674E+03  0.00000000000E+00 0. -1.
         21   -1    0    0  502  503 -0.00000000000E+00 -0.00000000000E+00 -0.78488740207E+02  0.78488740207E+02  0.00000000000E+00 0. -1.
         -6    2    1    2    0  503 -0.85144779656E+02 -0.98574258840E+01  0.11541449466E+03  0.22722127736E+03  0.17596079382E+03 0.  0.
        -24    2    3    3    0    0 -0.63797993822E+02 -0.34097668966E+02  0.11074804344E+01  0.10834546759E+03  0.80651588879E+02 0.  0.
          6    2    1    2  501    0  0.85144779656E+02  0.98574258840E+01  0.37773760188E+03  0.42290829959E+03  0.16976139619E+03 0.  0.
         24    2    5    5    0    0  0.24787810534E+02 -0.36685309819E+00  0.34584961761E+03  0.35372424692E+03  0.69959379131E+02 0.  0.
          5    1    5    5  501    0  0.60356969122E+02  0.10224278982E+02  0.31887984272E+02  0.69184052665E+02  0.47000000000E+01 0. -1.
        -13    1    6    6    0    0  0.11054615091E+02 -0.13412903683E+02  0.16944017641E+02  0.24273653080E+02  0.00000000000E+00 0.  1.
         14    1    6    6    0    0  0.13733195443E+02  0.13046050585E+02  0.32890559997E+03  0.32945059384E+03  0.00000000000E+00 0. -1.
         -5    1    3    3    0  503 -0.21346785834E+02  0.24240243082E+02  0.11430701422E+03  0.11887580978E+03  0.47000000000E+01 0.  1.
         11    1    4    4    0    0  0.11127311035E+02  0.88493136405E+01 -0.14810125885E+02  0.20529667106E+02  0.00000000000E+00 0. -1.
        -12    1    4    4    0    0 -0.74925304857E+02 -0.42946982606E+02  0.15917606319E+02  0.87815800479E+02  0.00000000000E+00 0.  1.
<mgrwt>
<rscale>  2 0.19432335E+03</rscale>
<asrwt>0</asrwt>
<pdfrwt beam="1">  1       21 0.87944742E-01 0.19572686E+03</pdfrwt>
<pdfrwt beam="2">  1       21 0.12075191E-01 0.19572686E+03</pdfrwt>
<totfact> 0.64213357E+04</totfact>
</mgrwt>
</event>
<event>
12    1  0.1026879E-001  0.2029348E+03  0.7546771E-02  0.1147468E+00
         21   -1    0    0  503  502  0.00000000000E+00  0.00000000000E+00  0.47132055713E+03  0.47132055713E+03  0.00000000000E+00 0.  1.
         21   -1    0    0  501  503 -0.00000000000E+00 -0.00000000000E+00 -0.93823813072E+02  0.93823813072E+02  0.00000000000E+00 0.  1.
          6    2    1    2  501    0 -0.12243801566E+02 -0.10412721528E+03  0.26457276873E+03  0.33290666482E+03  0.17273016498E+03 0.  0.
         24    2    3    3    0    0 -0.56604565615E+01 -0.37956932466E+02  0.24941068755E+03  0.26454128276E+03  0.79395401194E+02 0.  0.
         -6    2    1    2    0  502  0.12243801566E+02  0.10412721528E+03  0.11292397533E+03  0.23223770538E+03  0.17375310057E+03 0.  0.
        -24    2    5    5    0    0  0.98145314816E+01  0.95058754756E+02  0.64110044379E+01  0.12520854441E+03  0.80644818376E+02 0.  0.
          5    1    3    3  501    0 -0.65833450047E+01 -0.66170282815E+02  0.15162081180E+02  0.68365382065E+02  0.47000000000E+01 0. -1.
        -13    1    4    4    0    0 -0.13216752963E+02 -0.45126440823E+01  0.12484511640E+01  0.14021595694E+02  0.00000000000E+00 0.  1.
         14    1    4    4    0    0  0.75562964015E+01 -0.33444288383E+02  0.24816223638E+03  0.25051968706E+03  0.00000000000E+00 0. -1.
         -5    1    5    5    0  502  0.24292700847E+01  0.90684605243E+01  0.10651297090E+03  0.10702916097E+03  0.47000000000E+01 0.  1.
         13    1    6    6    0    0  0.61100524935E+01 -0.12445745544E+02  0.10763414740E+02  0.17552219816E+02  0.00000000000E+00 0. -1.
        -14    1    6    6    0    0  0.37044789881E+01  0.10750450030E+03 -0.43524103020E+01  0.10765632459E+03  0.00000000000E+00 0.  1.
<mgrwt>
<rscale>  2 0.20271564E+03</rscale>
<asrwt>0</asrwt>
<pdfrwt beam="1">  1       21 0.72510854E-01 0.20293479E+03</pdfrwt>
<pdfrwt beam="2">  1       21 0.14434433E-01 0.20293479E+03</pdfrwt>
<totfact> 0.71766797E+04</totfact>
</mgrwt>
</event>
<event>
12    1  0.1026879E-001  0.1776177E+03  0.7546771E-02  0.1170889E+00
         21   -1    0    0  501  502  0.00000000000E+00  0.00000000000E+00  0.10923570616E+04  0.10923570616E+04  0.00000000000E+00 0.  1.
         21   -1    0    0  502  503 -0.00000000000E+00 -0.00000000000E+00 -0.29136563629E+02  0.29136563629E+02  0.00000000000E+00 0.  1.
         -6    2    1    2    0  503 -0.30707152322E+01  0.18969382403E+02  0.61715539104E+03  0.64136642135E+03  0.17349594516E+03 0.  0.
        -24    2    3    3    0    0  0.63905141082E+02  0.27914198101E+02  0.38956394408E+03  0.40390962152E+03  0.80745565311E+02 0.  0.
          6    2    1    2  501    0  0.30707152322E+01 -0.18969382403E+02  0.44606510697E+03  0.48012720391E+03  0.17657515546E+03 0.  0.
         24    2    5    5    0    0 -0.46220089643E+02  0.33448363893E+02  0.17861058362E+03  0.20312320461E+03  0.78116617541E+02 0.  0.
          5    1    5    5  501    0  0.49290804876E+02 -0.52417746296E+02  0.26745452334E+03  0.27700399930E+03  0.47000000000E+01 0. -1.
        -13    1    6    6    0    0 -0.10330451248E+02  0.53781428416E+02  0.89449013733E+02  0.10488224980E+03  0.00000000000E+00 0.  1.
         14    1    6    6    0    0 -0.35889638395E+02 -0.20333064523E+02  0.89161569889E+02  0.98240954811E+02  0.00000000000E+00 0. -1.
         -5    1    3    3    0  503 -0.66975856314E+02 -0.89448156980E+01  0.22759144696E+03  0.23745679983E+03  0.47000000000E+01 0.  1.
         11    1    4    4    0    0 -0.10184904288E+01  0.48510883089E+01 -0.26975289390E+01  0.56433184307E+01  0.00000000000E+00 0. -1.
        -12    1    4    4    0    0  0.64923631510E+02  0.23063109792E+02  0.39226147302E+03  0.39826630309E+03  0.00000000000E+00 0.  1.
<mgrwt>
<rscale>  2 0.17684751E+03</rscale>
<asrwt>0</asrwt>
<pdfrwt beam="1">  1       21 0.16805490E+00 0.17761771E+03</pdfrwt>
<pdfrwt beam="2">  1       21 0.44825491E-02 0.17761771E+03</pdfrwt>
<totfact> 0.71852108E+04</totfact>
</mgrwt>
</event>
<event>
12    1  0.1026879E-001  0.2125618E+03  0.7546771E-02  0.1139622E+00
         21   -1    0    0  501  502  0.00000000000E+00  0.00000000000E+00  0.15809851937E+03  0.15809851937E+03  0.00000000000E+00 0.  1.
         21   -1    0    0  502  503 -0.00000000000E+00 -0.00000000000E+00 -0.28599894060E+03  0.28599894060E+03  0.00000000000E+00 0. -1.
         -6    2    1    2    0  503  0.11363639170E+03 -0.46454836872E+02 -0.74860694217E+02  0.22535891693E+03  0.17352589580E+03 0.  0.
        -24    2    3    3    0    0  0.72253277893E+02  0.17623803729E+02 -0.95999264331E+02  0.14606475929E+03  0.81166005996E+02 0.  0.
          6    2    1    2  501    0 -0.11363639170E+03  0.46454836872E+02 -0.53039727008E+02  0.21873854304E+03  0.17309551173E+03 0.  0.
         24    2    5    5    0    0 -0.12568889065E+03 -0.49295924828E+01 -0.75603943532E+02  0.16114638925E+03  0.66559780458E+02 0.  0.
          5    1    5    5  501    0  0.12052498951E+02  0.51384429355E+02  0.22564216524E+02  0.57592153792E+02  0.47000000000E+01 0. -1.
        -13    1    6    6    0    0 -0.64258140010E+02 -0.11398523677E+02 -0.23205054005E+01  0.65302524031E+02  0.00000000000E+00 0.  1.
         14    1    6    6    0    0 -0.61430750640E+02  0.64689311937E+01 -0.73283438132E+02  0.95843865215E+02  0.00000000000E+00 0. -1.
         -5    1    3    3    0  503  0.41383113805E+02 -0.64078640602E+02  0.21138570113E+02  0.79294157641E+02  0.47000000000E+01 0.  1.
         11    1    4    4    0    0  0.62592754541E+02  0.36051180644E+02 -0.32432523481E+02  0.79179600443E+02  0.00000000000E+00 0. -1.
        -12    1    4    4    0    0  0.96605233517E+01 -0.18427376914E+02 -0.63566740850E+02  0.66885158844E+02  0.00000000000E+00 0.  1.
<mgrwt>
<rscale>  2 0.21247394E+03</rscale>
<asrwt>0</asrwt>
<pdfrwt beam="1">  1       21 0.24322849E-01 0.21256180E+03</pdfrwt>
<pdfrwt beam="2">  1       21 0.43999837E-01 0.21256180E+03</pdfrwt>
<totfact> 0.78529142E+04</totfact>
</mgrwt>
</event>
<event>
12    1  0.1026879E-001  0.1854446E+03  0.7546771E-02  0.1162660E+00
         21   -1    0    0  501  502  0.00000000000E+00  0.00000000000E+00  0.67602024646E+03  0.67602024646E+03  0.00000000000E+00 0. -1.
         21   -1    0    0  502  503 -0.00000000000E+00 -0.00000000000E+00 -0.12066362123E+03  0.12066362123E+03  0.00000000000E+00 0. -1.
         -6    2    1    2    0  503  0.30709417312E+02 -0.58926051947E+02 -0.25303182654E+02  0.18716288776E+03  0.17313101279E+03 0.  0.
        -24    2    3    3    0    0  0.43612452717E+02 -0.91361740655E+02  0.18574367064E+02  0.13089663149E+03  0.80869693562E+02 0.  0.
          6    2    1    2  501    0 -0.30709417312E+02  0.58926051947E+02  0.58065980789E+03  0.60952097993E+03  0.17301637082E+03 0.  0.
         24    2    5    5    0    0  0.19636724832E+02  0.79779263048E+02  0.27003603765E+03  0.29411836885E+03  0.82679026903E+02 0.  0.
          5    1    5    5  501    0 -0.50346142144E+02 -0.20853211101E+02  0.31062377024E+03  0.31540261108E+03  0.47000000000E+01 0. -1.
        -13    1    6    6    0    0  0.17430364073E+02 -0.14242763323E+02  0.52885977693E+02  0.57476956559E+02  0.00000000000E+00 0.  1.
         14    1    6    6    0    0  0.22063607594E+01  0.94022026372E+02  0.21715005996E+03  0.23664141229E+03  0.00000000000E+00 0. -1.
         -5    1    3    3    0  503 -0.12903035405E+02  0.32435688708E+02 -0.43877549718E+02  0.56266256263E+02  0.47000000000E+01 0.  1.
         11    1    4    4    0    0  0.59067853419E+02 -0.54000424249E+02  0.34877994094E+02  0.87301383716E+02  0.00000000000E+00 0. -1.
        -12    1    4    4    0    0 -0.15455400703E+02 -0.37361316405E+02 -0.16303627029E+02  0.43595247777E+02  0.00000000000E+00 0.  1.
<mgrwt>
<rscale>  2 0.18541783E+03</rscale>
<asrwt>0</asrwt>
<pdfrwt beam="1">  1       21 0.10400311E+00 0.18544459E+03</pdfrwt>
<pdfrwt beam="2">  1       21 0.18563635E-01 0.18544459E+03</pdfrwt>
<totfact> 0.19911333E+04</totfact>
</mgrwt>
</event>
<event>
12    1  0.1026879E-001  0.3202705E+03  0.7546771E-02  0.1075823E+00
         21   -1    0    0  501  502  0.00000000000E+00  0.00000000000E+00  0.76802334944E+03  0.76802334944E+03  0.00000000000E+00 0.  1.
         21   -1    0    0  502  503 -0.00000000000E+00 -0.00000000000E+00 -0.16071108511E+03  0.16071108511E+03  0.00000000000E+00 0. -1.
         -6    2    1    2    0  503 -0.16345865539E+01  0.26669051731E+03  0.49726852592E+03  0.59008592426E+03  0.17262359991E+03 0.  0.
        -24    2    3    3    0    0  0.60295479133E+02  0.10668946240E+03  0.21736817560E+03  0.26175382605E+03  0.79044009873E+02 0.  0.
          6    2    1    2  501    0  0.16345865539E+01 -0.26669051731E+03  0.11004373840E+03  0.33864851028E+03  0.17733213262E+03 0.  0.
         24    2    5    5    0    0 -0.36923011618E+02 -0.21332192079E+03  0.13685998738E+03  0.26740177927E+03  0.76834267957E+02 0.  0.
          5    1    5    5  501    0  0.38557598172E+02 -0.53368596521E+02 -0.26816248981E+02  0.71246731019E+02  0.47000000000E+01 0. -1.
        -13    1    6    6    0    0 -0.18239552725E+01 -0.18276929613E+03  0.10250102041E+03  0.20955763314E+03  0.00000000000E+00 0.  1.
         14    1    6    6    0    0 -0.35099056346E+02 -0.30552624654E+02  0.34358966969E+02  0.57844146124E+02  0.00000000000E+00 0. -1.
         -5    1    3    3    0  503 -0.61930065687E+02  0.16000105491E+03  0.27990035032E+03  0.32833209821E+03  0.47000000000E+01 0.  1.
         11    1    4    4    0    0  0.22981252913E+02  0.34870997384E+01  0.66582977270E+01  0.24179139328E+02  0.00000000000E+00 0. -1.
        -12    1    4    4    0    0  0.37314226220E+02  0.10320236266E+03  0.21070987788E+03  0.23757468672E+03  0.00000000000E+00 0.  1.
<mgrwt>
<rscale>  2 0.31962281E+03</rscale>
<asrwt>0</asrwt>
<pdfrwt beam="1">  1       21 0.11815744E+00 0.32027049E+03</pdfrwt>
<pdfrwt beam="2">  1       21 0.24724783E-01 0.32027049E+03</pdfrwt>
<totfact> 0.78748814E+03</totfact>
</mgrwt>
</event>
<event>
12    1  0.1026879E-001  0.1728559E+03  0.7546771E-02  0.1175061E+00
         21   -1    0    0  503  502  0.00000000000E+00  0.00000000000E+00  0.21978524181E+03  0.21978524181E+03  0.00000000000E+00 0.  1.
         21   -1    0    0  501  503 -0.00000000000E+00 -0.00000000000E+00 -0.27252103636E+03  0.27252103636E+03  0.00000000000E+00 0.  1.
          6    2    1    2  501    0 -0.97432381873E+01 -0.55161754988E+00 -0.20095884097E+03  0.26507287958E+03  0.17258024439E+03 0.  0.
         24    2    3    3    0    0 -0.15487932872E+02 -0.67415685481E+02 -0.11577756324E+03  0.15652913184E+03  0.79449192898E+02 0.  0.
         -6    2    1    2    0  502  0.97432381873E+01  0.55161754988E+00  0.14822304642E+03  0.22723339859E+03  0.17195845711E+03 0.  0.
        -24    2    5    5    0    0  0.60980206860E+02 -0.23138678578E+02  0.84183935251E+02  0.14173746389E+03  0.93533895683E+02 0.  0.
          5    1    3    3  501    0  0.57446946847E+01  0.66864067931E+02 -0.85181277733E+02  0.10854374774E+03  0.47000000000E+01 0. -1.
        -13    1    4    4    0    0 -0.22742654918E+02 -0.93406809938E+01 -0.88696470771E+02  0.92040972406E+02  0.00000000000E+00 0.  1.
         14    1    4    4    0    0  0.72547220460E+01 -0.58075004487E+02 -0.27081092466E+02  0.64488159435E+02  0.00000000000E+00 0. -1.
         -5    1    5    5    0  502 -0.51236968672E+02  0.23690296127E+02  0.64039111173E+02  0.85495934694E+02  0.47000000000E+01 0.  1.
         13    1    6    6    0    0  0.12163332322E+02 -0.50909145005E+01 -0.20761626195E+02  0.24594901624E+02  0.00000000000E+00 0. -1.
        -14    1    6    6    0    0  0.48816874537E+02 -0.18047764077E+02  0.10494556145E+03  0.11714256227E+03  0.00000000000E+00 0.  1.
<mgrwt>
<rscale>  2 0.17270053E+03</rscale>
<asrwt>0</asrwt>
<pdfrwt beam="1">  1       21 0.33813114E-01 0.17285594E+03</pdfrwt>
<pdfrwt beam="2">  1       21 0.41926313E-01 0.17285594E+03</pdfrwt>
<totfact> 0.46585482E+04</totfact>
</mgrwt>
</event>
<event>
12    1  0.1026879E-001  0.2243916E+03  0.7546771E-02  0.1130865E+00
         21   -1    0    0  501  502  0.00000000000E+00  0.00000000000E+00  0.96419825148E+03  0.96419825148E+03  0.00000000000E+00 0. -1.
         21   -1    0    0  502  503 -0.00000000000E+00 -0.00000000000E+00 -0.95817152409E+02  0.95817152409E+02  0.00000000000E+00 0. -1.
         -6    2    1    2    0  503 -0.48444502017E+02 -0.13286221054E+03  0.74948355609E+02  0.23546274085E+03  0.17270266227E+03 0.  0.
        -24    2    3    3    0    0 -0.88355327802E+01 -0.81613918856E+02  0.11239144145E+03  0.16050053356E+03  0.79935516344E+02 0.  0.
          6    2    1    2  501    0  0.48444502017E+02  0.13286221054E+03  0.79343274346E+03  0.82455266303E+03  0.17421922671E+03 0.  0.
         24    2    5    5    0    0  0.21883329770E+02  0.55248458150E+02  0.18306935588E+03  0.20868340310E+03  0.80641809367E+02 0.  0.
          5    1    5    5  501    0  0.26561172246E+02  0.77613752393E+02  0.61036338758E+03  0.61586925994E+03  0.47000000000E+01 0. -1.
        -11    1    6    6    0    0  0.31142848384E+02 -0.92261636026E+01  0.40320032981E+02  0.51775516993E+02  0.00000000000E+00 0.  1.
         12    1    6    6    0    0 -0.92595186135E+01  0.64474621753E+02  0.14274932290E+03  0.15690788611E+03  0.00000000000E+00 0. -1.
         -5    1    3    3    0  503 -0.39608969237E+02 -0.51248291688E+02 -0.37443085836E+02  0.74962207290E+02  0.47000000000E+01 0.  1.
         11    1    4    4    0    0 -0.43367714332E+02 -0.31518257525E+02  0.56383154822E+02  0.77802437953E+02  0.00000000000E+00 0. -1.
        -12    1    4    4    0    0  0.34532181552E+02 -0.50095661332E+02  0.56008286623E+02  0.82698095610E+02  0.00000000000E+00 0.  1.
<mgrwt>
<rscale>  2 0.22409713E+03</rscale>
<asrwt>0</asrwt>
<pdfrwt beam="1">  1       21 0.14833819E+00 0.22439157E+03</pdfrwt>
<pdfrwt beam="2">  1       21 0.14741101E-01 0.22439157E+03</pdfrwt>
<totfact> 0.12188487E+04</totfact>
</mgrwt>
</event>
<event>
12    1  0.1026879E-001  0.2127228E+03  0.7546771E-02  0.1139497E+00
         21   -1    0    0  501  502  0.00000000000E+00  0.00000000000E+00  0.22561474509E+03  0.22561474509E+03  0.00000000000E+00 0.  1.
         21   -1    0    0  502  503 -0.00000000000E+00 -0.00000000000E+00 -0.31749523783E+03  0.31749523783E+03  0.00000000000E+00 0.  1.
         -6    2    1    2    0  503  0.12200055657E+03 -0.20286563183E+02 -0.21099576216E+03  0.29961675083E+03  0.17307601012E+03 0.  0.
        -24    2    3    3    0    0  0.15497852473E+03 -0.29016160903E+02 -0.18901338587E+03  0.25876253283E+03  0.79822976873E+02 0.  0.
          6    2    1    2  501    0 -0.12200055657E+03  0.20286563183E+02  0.11911526942E+03  0.24349323210E+03  0.17264074322E+03 0.  0.
         24    2    5    5    0    0 -0.16668901383E+02  0.18482031613E+02  0.11214049407E+03  0.13781091849E+03  0.76137514273E+02 0.  0.
          5    1    5    5  501    0 -0.10533165518E+03  0.18045315706E+01  0.69747753518E+01  0.10568231361E+03  0.47000000000E+01 0. -1.
        -13    1    6    6    0    0 -0.22442987474E+02  0.96086173567E+01  0.12134857940E+03  0.12378001025E+03  0.00000000000E+00 0.  1.
         14    1    6    6    0    0  0.57740860910E+01  0.88734142558E+01 -0.92080853303E+01  0.14030908245E+02  0.00000000000E+00 0. -1.
         -5    1    3    3    0  503 -0.32977968168E+02  0.87295977203E+01 -0.21982376297E+02  0.40854218001E+02  0.47000000000E+01 0.  1.
         13    1    4    4    0    0  0.56710162479E+02 -0.50527598005E+02 -0.87058927109E+02  0.11553500542E+03  0.00000000000E+00 0. -1.
        -14    1    4    4    0    0  0.98268362255E+02  0.21511437101E+02 -0.10195445876E+03  0.14322752741E+03  0.00000000000E+00 0.  1.
<mgrwt>
<rscale>  2 0.21263424E+03</rscale>
<asrwt>0</asrwt>
<pdfrwt beam="1">  1       21 0.34709961E-01 0.21272279E+03</pdfrwt>
<pdfrwt beam="2">  1       21 0.48845421E-01 0.21272279E+03</pdfrwt>
<totfact> 0.31661670E+04</totfact>
</mgrwt>
</event>
<event>
12    1  0.1026879E-001  0.1758223E+03  0.7546771E-02  0.1172039E+00
         21   -1    0    0  503  502  0.00000000000E+00  0.00000000000E+00  0.11147738598E+04  0.11147738598E+04  0.00000000000E+00 0. -1.
         21   -1    0    0  501  503 -0.00000000000E+00 -0.00000000000E+00 -0.36773547206E+02  0.36773547206E+02  0.00000000000E+00 0. -1.
          6    2    1    2  501    0  0.21102771416E+02  0.20150820296E+02  0.25278676121E+03  0.30791982888E+03  0.17338423185E+03 0.  0.
         24    2    3    3    0    0  0.68704977413E+02 -0.13141424864E+02  0.10915552575E+03  0.15291542442E+03  0.81087158378E+02 0.  0.
         -6    2    1    2    0  502 -0.21102771416E+02 -0.20150820296E+02  0.82521355139E+03  0.84362757813E+03  0.17285457086E+03 0.  0.
        -24    2    5    5    0    0 -0.44052116275E+02  0.45087003238E+02  0.41372072779E+03  0.42633741538E+03  0.81396095404E+02 0.  0.
          5    1    3    3  501    0 -0.47602205998E+02  0.33292245160E+02  0.14363123546E+03  0.15500440447E+03  0.47000000000E+01 0. -1.
        -13    1    4    4    0    0  0.29277096037E+02  0.17167736999E+02  0.95487979958E+02  0.10134018878E+03  0.00000000000E+00 0.  1.
         14    1    4    4    0    0  0.39427881377E+02 -0.30309161863E+02  0.13667545792E+02  0.51575235634E+02  0.00000000000E+00 0. -1.
         -5    1    5    5    0  502  0.22949344859E+02 -0.65237823534E+02  0.41149282360E+03  0.41729016274E+03  0.47000000000E+01 0.  1.
         11    1    6    6    0    0 -0.44436738964E+02  0.55341065734E+02  0.40887559526E+03  0.41498977063E+03  0.00000000000E+00 0. -1.
        -12    1    6    6    0    0  0.38462268891E+00 -0.10254062496E+02  0.48451325228E+01  0.11347644753E+02  0.00000000000E+00 0.  1.
<mgrwt>
<rscale>  2 0.17569156E+03</rscale>
<asrwt>0</asrwt>
<pdfrwt beam="1">  1       21 0.17150364E+00 0.17582228E+03</pdfrwt>
<pdfrwt beam="2">  1       21 0.56574697E-02 0.17582228E+03</pdfrwt>
<totfact> 0.45877974E+04</totfact>
</mgrwt>
</event>
<event>
12    1  0.1026879E-001  0.2185746E+03  0.7546771E-02  0.1135111E+00
         21   -1    0    0  503  502  0.00000000000E+00  0.00000000000E+00  0.15723852152E+03  0.15723852152E+03  0.00000000000E+00 0.  1.
         21   -1    0    0  501  503 -0.00000000000E+00 -0.00000000000E+00 -0.33675936786E+03  0.33675936786E+03  0.00000000000E+00 0. -1.
          6    2    1    2  501    0 -0.10779506415E+03  0.76462410482E+02 -0.16820741681E+03  0.27513068267E+03  0.17302277712E+03 0.  0.
         24    2    3    3    0    0 -0.26519122607E+02  0.68502313866E+02 -0.15957729775E+03  0.19287674193E+03  0.79628466958E+02 0.  0.
         -6    2    1    2    0  502  0.10779506415E+03 -0.76462410482E+02 -0.11313429533E+02  0.21886720671E+03  0.17409360819E+03 0.  0.
        -24    2    5    5    0    0  0.46243410570E+02 -0.11199518556E+03  0.90052347801E+01  0.14479884449E+03  0.78766975968E+02 0.  0.
          5    1    3    3  501    0 -0.81275941544E+02  0.79600966169E+01 -0.86301190612E+01  0.82253940739E+02  0.47000000000E+01 0. -1.
        -11    1    4    4    0    0  0.19168595012E+02  0.14048370518E+02 -0.73572773173E+01  0.24878128516E+02  0.00000000000E+00 0.  1.
         12    1    4    4    0    0 -0.45687717618E+02  0.54453943348E+02 -0.15222002043E+03  0.16799861341E+03  0.00000000000E+00 0. -1.
         -5    1    5    5    0  502  0.61551653581E+02  0.35532775073E+02 -0.20318664313E+02  0.74068362223E+02  0.47000000000E+01 0.  1.
         11    1    6    6    0    0  0.62935281434E+01  0.77097976382E+01 -0.13336859562E+02  0.16640952469E+02  0.00000000000E+00 0. -1.
        -12    1    6    6    0    0  0.39949882427E+02 -0.11970498319E+03  0.22342094342E+02  0.12815789202E+03  0.00000000000E+00 0.  1.
<mgrwt>
<rscale>  2 0.21836131E+03</rscale>
<asrwt>0</asrwt>
<pdfrwt beam="1">  1       21 0.24190542E-01 0.21857461E+03</pdfrwt>
<pdfrwt beam="2">  1       21 0.51809133E-01 0.21857461E+03</pdfrwt>
<totfact> 0.56371521E+04</totfact>
</mgrwt>
</event>
<event>
12    1  0.1026879E-001  0.1825293E+03  0.7546771E-02  0.1165674E+00
         21   -1    0    0  503  502  0.00000000000E+00  0.00000000000E+00  0.10276703603E+03  0.10276703603E+03  0.00000000000E+00 0. -1.
         21   -1    0    0  501  503 -0.00000000000E+00 -0.00000000000E+00 -0.33262654594E+03  0.33262654594E+03  0.00000000000E+00 0. -1.
          6    2    1    2  501    0 -0.36006059783E+02  0.39965268216E+02 -0.15422995383E+03  0.23896405517E+03  0.17442271069E+03 0.  0.
         24    2    3    3    0    0  0.22628174748E+02 -0.30985766620E+02 -0.89636255462E+02  0.12641869245E+03  0.80466610971E+02 0.  0.
         -6    2    1    2    0  502  0.36006059783E+02 -0.39965268216E+02 -0.75629556085E+02  0.19642952680E+03  0.17312154760E+03 0.  0.
        -24    2    5    5    0    0 -0.33540306465E+02 -0.37181324579E+02 -0.82217578896E+02  0.12635856673E+03  0.81849581870E+02 0.  0.
          5    1    3    3  501    0 -0.58634234531E+02  0.70951034836E+02 -0.64593698363E+02  0.11254536273E+03  0.47000000000E+01 0. -1.
        -13    1    4    4    0    0 -0.30059787485E+02 -0.15239234420E+02 -0.27986808575E+02  0.43807380013E+02  0.00000000000E+00 0.  1.
         14    1    4    4    0    0  0.52687962233E+02 -0.15746532200E+02 -0.61649446888E+02  0.82611312434E+02  0.00000000000E+00 0. -1.
         -5    1    5    5    0  502  0.69546366248E+02 -0.27839436369E+01  0.65880228107E+01  0.70070960070E+02  0.47000000000E+01 0.  1.
         11    1    6    6    0    0 -0.24109459356E+02  0.21597859898E+01  0.95869853117E+01  0.26035379647E+02  0.00000000000E+00 0. -1.
        -12    1    6    6    0    0 -0.94308471086E+01 -0.39341110569E+02 -0.91804564208E+02  0.10032318709E+03  0.00000000000E+00 0.  1.
<mgrwt>
<rscale>  2 0.18221775E+03</rscale>
<asrwt>0</asrwt>
<pdfrwt beam="1">  1       21 0.15810314E-01 0.18252929E+03</pdfrwt>
<pdfrwt beam="2">  1       21 0.51173314E-01 0.18252929E+03</pdfrwt>
<totfact> 0.12982236E+05</totfact>
</mgrwt>
</event>
<event>
12    1  0.1026879E-001  0.2429994E+03  0.7546771E-02  0.1118528E+00
         21   -1    0    0  501  502  0.00000000000E+00  0.00000000000E+00  0.14767013329E+03  0.14767013329E+03  0.00000000000E+00 0.  1.
         21   -1    0    0  502  503 -0.00000000000E+00 -0.00000000000E+00 -0.41694270090E+03  0.41694270090E+03  0.00000000000E+00 0.  1.
         -6    2    1    2    0  503 -0.13281058848E+03 -0.10079527891E+03 -0.20147261862E+03  0.31233215865E+03  0.17076832438E+03 0.  0.
        -24    2    3    3    0    0 -0.10364011779E+03  0.43392696498E+00 -0.13049874248E+03  0.18521941509E+03  0.80838404413E+02 0.  0.
          6    2    1    2  501    0  0.13281058848E+03  0.10079527891E+03 -0.67799948988E+02  0.25228067553E+03  0.17677772909E+03 0.  0.
         24    2    5    5    0    0  0.52786893689E+02  0.12235785625E+03 -0.66260771928E+02  0.16925540507E+03  0.80616382451E+02 0.  0.
          5    1    5    5  501    0  0.80023694787E+02 -0.21562577335E+02 -0.15391770607E+01  0.83025270459E+02  0.47000000000E+01 0. -1.
        -11    1    6    6    0    0  0.53375623872E+02  0.27437958977E+02 -0.17345381062E+02  0.62471281888E+02  0.00000000000E+00 0.  1.
         12    1    6    6    0    0 -0.58873018340E+00  0.94919897268E+02 -0.48915390866E+02  0.10678412318E+03  0.00000000000E+00 0. -1.
         -5    1    3    3    0  503 -0.29170470688E+02 -0.10122920588E+03 -0.70973876140E+02  0.12711274357E+03  0.47000000000E+01 0.  1.
         11    1    4    4    0    0  0.59883476531E+01  0.17940695346E+02 -0.10071695985E+02  0.21428203778E+02  0.00000000000E+00 0. -1.
        -12    1    4    4    0    0 -0.10962846544E+03 -0.17506768382E+02 -0.12042704650E+03  0.16379121131E+03  0.00000000000E+00 0.  1.
<mgrwt>
<rscale>  2 0.24190804E+03</rscale>
<asrwt>0</asrwt>
<pdfrwt beam="1">  1       21 0.22718482E-01 0.24299940E+03</pdfrwt>
<pdfrwt beam="2">  1       21 0.64145030E-01 0.24299940E+03</pdfrwt>
<totfact> 0.39777185E+04</totfact>
</mgrwt>
</event>
<event>
12    1  0.1026879E-001  0.2089184E+03  0.7546771E-02  0.1142739E+00
         21   -1    0    0  503  502  0.00000000000E+00  0.00000000000E+00  0.97591579970E+03  0.97591579970E+03  0.00000000000E+00 0. -1.
         21   -1    0    0  501  503 -0.00000000000E+00 -0.00000000000E+00 -0.69543952413E+02  0.69543952413E+02  0.00000000000E+00 0. -1.
          6    2    1    2  501    0 -0.39542533546E+01  0.11429597890E+03  0.13989410248E+03  0.25143043372E+03  0.17483619815E+03 0.  0.
         24    2    3    3    0    0 -0.23357037180E+02 -0.66104167864E+00  0.25611574962E+02  0.88108142852E+02  0.81000641373E+02 0.  0.
         -6    2    1    2    0  502  0.39542533546E+01 -0.11429597890E+03  0.76647774481E+03  0.79402931840E+03  0.17296016381E+03 0.  0.
        -24    2    5    5    0    0  0.28779111632E+02  0.59679413384E+01  0.31364492293E+03  0.32481791756E+03  0.79181363324E+02 0.  0.
          5    1    3    3  501    0  0.19402783825E+02  0.11495702058E+03  0.11428252751E+03  0.16332229087E+03  0.47000000000E+01 0. -1.
        -11    1    4    4    0    0  0.22045179848E+02  0.42801260125E+01 -0.14989457968E+02  0.26999875619E+02  0.00000000000E+00 0.  1.
         12    1    4    4    0    0 -0.45402217028E+02 -0.49411676911E+01  0.40601032931E+02  0.61108267233E+02  0.00000000000E+00 0. -1.
         -5    1    5    5    0  502 -0.24824858277E+02 -0.12026392024E+03  0.45283282188E+03  0.46921140083E+03  0.47000000000E+01 0.  1.
         11    1    6    6    0    0  0.31333959915E+02 -0.28287075869E+02  0.23832838075E+03  0.24203799862E+03  0.00000000000E+00 0. -1.
        -12    1    6    6    0    0 -0.25548482828E+01  0.34255017207E+02  0.75316542176E+02  0.82779918936E+02  0.00000000000E+00 0.  1.
<mgrwt>
<rscale>  2 0.20852544E+03</rscale>
<asrwt>0</asrwt>
<pdfrwt beam="1">  1       21 0.15014088E+00 0.20891841E+03</pdfrwt>
<pdfrwt beam="2">  1       21 0.10699070E-01 0.20891841E+03</pdfrwt>
<totfact> 0.21236853E+04</totfact>
</mgrwt>
</event>
<event>
12    1  0.1026879E-001  0.1865220E+03  0.7546771E-02  0.1161874E+00
         21   -1    0    0  501  502  0.00000000000E+00  0.00000000000E+00  0.52763043675E+02  0.52763043675E+02  0.00000000000E+00 0.  1.
         21   -1    0    0  502  503 -0.00000000000E+00 -0.00000000000E+00 -0.67381860434E+03  0.67381860434E+03  0.00000000000E+00 0.  1.
         -6    2    1    2    0  503  0.70434262541E+02  0.31168673380E+01 -0.25187316863E+03  0.31341750823E+03  0.17268393436E+03 0.  0.
        -24    2    3    3    0    0 -0.27751668638E+02 -0.43620228696E+01 -0.69528584443E+02  0.10613015149E+03  0.75101282580E+02 0.  0.
          6    2    1    2  501    0 -0.70434262541E+02 -0.31168673380E+01 -0.36918239204E+03  0.41316413979E+03  0.17157583634E+03 0.  0.
         24    2    5    5    0    0 -0.58975574148E+02 -0.16252499836E+01 -0.10451030626E+03  0.14819823736E+03  0.86945693727E+02 0.  0.
          5    1    5    5  501    0 -0.11458688394E+02 -0.14916173544E+01 -0.26467208578E+03  0.26496590243E+03  0.47000000000E+01 0. -1.
        -11    1    6    6    0    0 -0.55528663134E+02 -0.11076061189E+01 -0.12004866510E+03  0.13227373592E+03  0.00000000000E+00 0.  1.
         12    1    6    6    0    0 -0.34469110136E+01 -0.51764386470E+00  0.15538358840E+02  0.15924501441E+02  0.00000000000E+00 0. -1.
         -5    1    3    3    0  503  0.98185931180E+02  0.74788902075E+01 -0.18234458419E+03  0.20728735674E+03  0.47000000000E+01 0.  1.
         13    1    4    4    0    0 -0.46607409516E+02 -0.15583710420E+02 -0.68314249449E+02  0.84154259132E+02  0.00000000000E+00 0. -1.
        -14    1    4    4    0    0  0.18855740877E+02  0.11221687551E+02 -0.12143349938E+01  0.21975892359E+02  0.00000000000E+00 0.  1.
<mgrwt>
<rscale>  2 0.18626508E+03</rscale>
<asrwt>0</asrwt>
<pdfrwt beam="1">  1       21 0.81173918E-02 0.18652196E+03</pdfrwt>
<pdfrwt beam="2">  1       21 0.10366439E+00 0.18652196E+03</pdfrwt>
<totfact> 0.88375574E+04</totfact>
</mgrwt>
</event>
<event>
12    1  0.1026879E-001  0.1787365E+03  0.7546771E-02  0.1169331E+00
         21   -1    0    0  503  502  0.00000000000E+00  0.00000000000E+00  0.63440149922E+02  0.63440149922E+02  0.00000000000E+00 0.  1.
         21   -1    0    0  501  503 -0.00000000000E+00 -0.00000000000E+00 -0.84080819524E+03  0.84080819524E+03  0.00000000000E+00 0.  1.
          6    2    1    2  501    0 -0.17468469996E+02 -0.38193726735E+02 -0.67726403269E+03  0.70045222332E+03  0.17373208963E+03 0.  0.
         24    2    3    3    0    0  0.42873298094E+02 -0.17381501223E+02 -0.19650714531E+03  0.21545371562E+03  0.75266254997E+02 0.  0.
         -6    2    1    2    0  502  0.17468469996E+02  0.38193726735E+02 -0.10010401263E+03  0.20379612184E+03  0.17247648457E+03 0.  0.
        -24    2    5    5    0    0  0.50189828346E+02  0.42370571160E+02 -0.12507296623E+03  0.16215873521E+03  0.79611081845E+02 0.  0.
          5    1    3    3  501    0 -0.60341768090E+02 -0.20812225511E+02 -0.48075688738E+03  0.48499850770E+03  0.47000000000E+01 0. -1.
        -11    1    4    4    0    0  0.47731133638E+02  0.15597249009E+02 -0.81634730392E+02  0.95842394071E+02  0.00000000000E+00 0.  1.
         12    1    4    4    0    0 -0.48578355444E+01 -0.32978750232E+02 -0.11487241492E+03  0.11961132155E+03  0.00000000000E+00 0. -1.
         -5    1    5    5    0  502 -0.32721358351E+02 -0.41768444252E+01  0.24968953605E+02  0.41637386635E+02  0.47000000000E+01 0.  1.
         11    1    6    6    0    0  0.38463120074E+02  0.19630180827E+02 -0.10066605200E+02  0.44340637629E+02  0.00000000000E+00 0. -1.
        -12    1    6    6    0    0  0.11726708273E+02  0.22740390333E+02 -0.11500636103E+03  0.11781809758E+03  0.00000000000E+00 0.  1.
<mgrwt>
<rscale>  2 0.17843069E+03</rscale>
<asrwt>0</asrwt>
<pdfrwt beam="1">  1       21 0.97600231E-02 0.17873653E+03</pdfrwt>
<pdfrwt beam="2">  1       21 0.12935511E+00 0.17873653E+03</pdfrwt>
<totfact> 0.37369075E+04</totfact>
</mgrwt>
</event>
<event>
12    1  0.1026879E-001  0.1778864E+03  0.7546771E-02  0.1170238E+00
         21   -1    0    0  501  502  0.00000000000E+00  0.00000000000E+00  0.32349439017E+02  0.32349439017E+02  0.00000000000E+00 0. -1.
         21   -1    0    0  502  503 -0.00000000000E+00 -0.00000000000E+00 -0.10695157130E+04  0.10695157130E+04  0.00000000000E+00 0. -1.
         -6    2    1    2    0  503  0.29858789947E+02  0.30640810279E+02 -0.34841050401E+03  0.39050864736E+03  0.17110440604E+03 0.  0.
        -24    2    3    3    0    0  0.47315569719E+01  0.32561469326E+02 -0.63119269107E+02  0.10406799822E+03  0.75917515795E+02 0.  0.
          6    2    1    2  501    0 -0.29858789947E+02 -0.30640810279E+02 -0.68875577000E+03  0.71135650468E+03  0.17266487615E+03 0.  0.
         24    2    5    5    0    0 -0.79383683231E+02  0.17745143439E+01 -0.52195857017E+03  0.53430604805E+03  0.82080971838E+02 0.  0.
          5    1    5    5  501    0  0.49524893284E+02 -0.32415324623E+02 -0.16679719983E+03  0.17705045664E+03  0.47000000000E+01 0. -1.
        -11    1    6    6    0    0  0.14355380637E+02  0.68227501806E+00 -0.27392959412E+02  0.30934069855E+02  0.00000000000E+00 0.  1.
         12    1    6    6    0    0 -0.93739063868E+02  0.10922393258E+01 -0.49456561076E+03  0.50337197819E+03  0.00000000000E+00 0. -1.
         -5    1    3    3    0  503  0.25127232975E+02 -0.19206590476E+01 -0.28529123491E+03  0.28644064915E+03  0.47000000000E+01 0.  1.
         13    1    4    4    0    0 -0.23420754525E+02  0.20936404044E+02 -0.66377696234E+02  0.73436117232E+02  0.00000000000E+00 0. -1.
        -14    1    4    4    0    0  0.28152311497E+02  0.11625065283E+02  0.32584271265E+01  0.30631880987E+02  0.00000000000E+00 0.  1.
<mgrwt>
<rscale>  2 0.17750660E+03</rscale>
<asrwt>0</asrwt>
<pdfrwt beam="1">  1       21 0.49768377E-02 0.17788639E+03</pdfrwt>
<pdfrwt beam="2">  1       21 0.16454085E+00 0.17788639E+03</pdfrwt>
<totfact> 0.63780527E+04</totfact>
</mgrwt>
</event>
<event>
12    1  0.1026879E-001  0.1769118E+03  0.7546771E-02  0.1170830E+00
         21   -1    0    0  503  502  0.00000000000E+00  0.00000000000E+00  0.11881619646E+03  0.11881619646E+03  0.00000000000E+00 0.  1.
         21   -1    0    0  501  503 -0.00000000000E+00 -0.00000000000E+00 -0.27705088249E+03  0.27705088249E+03  0.00000000000E+00 0.  1.
          6    2    1    2  501    0 -0.74109935969E+01  0.36275589484E+02 -0.12308070402E+03  0.21551486974E+03  0.17299409863E+03 0.  0.
         24    2    3    3    0    0  0.50652779953E+02  0.56592800788E+02 -0.10169033968E+03  0.15021687161E+03  0.80347583115E+02 0.  0.
         -6    2    1    2    0  502  0.74109935969E+01 -0.36275589484E+02 -0.35153982007E+02  0.18035220921E+03  0.17297478341E+03 0.  0.
        -24    2    5    5    0    0  0.55906455008E+02  0.80222479997E+01 -0.66146715230E+01  0.10858389847E+03  0.92503086179E+02 0.  0.
          5    1    3    3  501    0 -0.58063773550E+02 -0.20317211303E+02 -0.21390364337E+02  0.65297998135E+02  0.47000000000E+01 0. -1.
        -11    1    4    4    0    0 -0.60687227907E+01  0.53407123563E+02 -0.49804931741E+02  0.73278110438E+02  0.00000000000E+00 0.  1.
         12    1    4    4    0    0  0.56721502744E+02  0.31856772246E+01 -0.51885407943E+02  0.76938761169E+02  0.00000000000E+00 0. -1.
         -5    1    5    5    0  502 -0.48495461411E+02 -0.44297837484E+02 -0.28539310484E+02  0.71768310738E+02  0.47000000000E+01 0.  1.
         11    1    6    6    0    0  0.30594311993E+02  0.46559411862E+02  0.14951149548E+02  0.57682992572E+02  0.00000000000E+00 0. -1.
        -12    1    6    6    0    0  0.25312143015E+02 -0.38537163862E+02 -0.21565821071E+02  0.50900905896E+02  0.00000000000E+00 0.  1.
<mgrwt>
<rscale>  2 0.17690712E+03</rscale>
<asrwt>0</asrwt>
<pdfrwt beam="1">  1       21 0.18279415E-01 0.17691184E+03</pdfrwt>
<pdfrwt beam="2">  1       21 0.42623213E-01 0.17691184E+03</pdfrwt>
<totfact> 0.14523480E+05</totfact>
</mgrwt>
</event>
<event>
11    1  0.1026879E-001  0.2152417E+03  0.7546771E-02  0.1137489E+00
         21   -1    0    0  501  502  0.00000000000E+00  0.00000000000E+00  0.31523159275E+03  0.31523159275E+03  0.00000000000E+00 0. -1.
         21   -1    0    0  502  503 -0.00000000000E+00 -0.00000000000E+00 -0.23691259615E+03  0.23691259615E+03  0.00000000000E+00 0.  1.
         -6    2    1    2    0  503  0.10181755249E+03 -0.74109440102E+02 -0.13096998043E+03  0.25195656852E+03  0.17455644800E+03 0.  0.
        -24    2    3    3    0    0  0.12626739878E+03 -0.42345212695E+02 -0.14173070531E+03  0.21018762878E+03  0.79716205581E+02 0.  0.
          6    2    1    2  501    0 -0.10181755249E+03  0.74109440102E+02  0.20928897702E+03  0.30018762038E+03  0.17450417881E+03 0.  0.
          5    1    5    5  501    0 -0.87711680170E+01 -0.19360519075E+02  0.14421070213E+03  0.14584436806E+03  0.47000000000E+01 0. -1.
        -11    1    5    5    0    0 -0.51188730399E+02  0.41697483052E+02  0.77318500396E+01  0.66473661836E+02  0.00000000000E+00 0.  1.
         12    1    5    5    0    0 -0.41857654071E+02  0.51772476125E+02  0.57346424855E+02  0.87869590486E+02  0.00000000000E+00 0. -1.
         -5    1    3    3    0  503 -0.24449846293E+02 -0.31764227407E+02  0.10760724881E+02  0.41768939733E+02  0.47000000000E+01 0.  1.
         13    1    4    4    0    0 -0.10117365101E+02 -0.10195625335E+02 -0.19672369412E+02  0.24358037089E+02  0.00000000000E+00 0. -1.
        -14    1    4    4    0    0  0.13638476388E+03 -0.32149587360E+02 -0.12205833590E+03  0.18582959169E+03  0.00000000000E+00 0.  1.
<mgrwt>
<rscale>  2 0.21523107E+03</rscale>
<asrwt>0</asrwt>
<pdfrwt beam="1">  1       21 0.48497169E-01 0.21524167E+03</pdfrwt>
<pdfrwt beam="2">  1       21 0.36448091E-01 0.21524167E+03</pdfrwt>
<totfact> 0.29115634E+04</totfact>
</mgrwt>
</event>
<event>
12    1  0.1026879E-001  0.2368273E+03  0.7546771E-02  0.1123563E+00
         21   -1    0    0  501  502  0.00000000000E+00  0.00000000000E+00  0.86913519873E+03  0.86913519873E+03  0.00000000000E+00 0. -1.
         21   -1    0    0  502  503 -0.00000000000E+00 -0.00000000000E+00 -0.23972535800E+03  0.23972535800E+03  0.00000000000E+00 0.  1.
         -6    2    1    2    0  503  0.14923081073E+03 -0.29509419068E+02 -0.16433627853E+03  0.28053691441E+03  0.16897901414E+03 0.  0.
        -24    2    3    3    0    0  0.12708730434E+03 -0.14736616913E+02 -0.44546160502E+02  0.15773490736E+03  0.80793500859E+02 0.  0.
          6    2    1    2  501    0 -0.14923081073E+03  0.29509419068E+02  0.79374611927E+03  0.82832364232E+03  0.18151174587E+03 0.  0.
         24    2    5    5    0    0 -0.17583658148E+03  0.11246715250E+02  0.74547529971E+03  0.77006941150E+03  0.78920745391E+02 0.  0.
          5    1    5    5  501    0  0.26605770750E+02  0.18262703818E+02  0.48270819553E+02  0.58254230818E+02  0.47000000000E+01 0. -1.
        -11    1    6    6    0    0 -0.44270928877E+02 -0.22427236916E+02  0.11703115795E+03  0.12711879495E+03  0.00000000000E+00 0.  1.
         12    1    6    6    0    0 -0.13156565261E+03  0.33673952167E+02  0.62844414177E+03  0.64295061655E+03  0.00000000000E+00 0. -1.
         -5    1    3    3    0  503  0.22143506391E+02 -0.14772802155E+02 -0.11979011803E+03  0.12280200705E+03  0.47000000000E+01 0.  1.
         13    1    4    4    0    0  0.43368080579E+02 -0.30105462894E+02  0.13765698062E+02  0.54558443456E+02  0.00000000000E+00 0. -1.
        -14    1    4    4    0    0  0.83719223763E+02  0.15368845981E+02 -0.58311858565E+02  0.10317646390E+03  0.00000000000E+00 0.  1.
<mgrwt>
<rscale>  2 0.23442524E+03</rscale>
<asrwt>0</asrwt>
<pdfrwt beam="1">  1       21 0.13371311E+00 0.23682727E+03</pdfrwt>
<pdfrwt beam="2">  1       21 0.36880825E-01 0.23682727E+03</pdfrwt>
<totfact> 0.27512378E+03</totfact>
</mgrwt>
</event>
<event>
12    1  0.1026879E-001  0.2238170E+03  0.7546771E-02  0.1131309E+00
         21   -1    0    0  503  502  0.00000000000E+00  0.00000000000E+00  0.11652869362E+03  0.11652869362E+03  0.00000000000E+00 0.  1.
         21   -1    0    0  501  503 -0.00000000000E+00 -0.00000000000E+00 -0.47069457632E+03  0.47069457632E+03  0.00000000000E+00 0. -1.
          6    2    1    2  501    0  0.11869022647E+03 -0.74289724996E+02 -0.26663403953E+03  0.34812031537E+03  0.17460730178E+03 0.  0.
         24    2    3    3    0    0  0.98676418180E+02 -0.87236764124E+02 -0.11931239359E+03  0.19880877627E+03  0.89118986410E+02 0.  0.
         -6    2    1    2    0  502 -0.11869022647E+03  0.74289724996E+02 -0.87531843171E+02  0.23910295457E+03  0.17292213917E+03 0.  0.
        -24    2    5    5    0    0 -0.76133012184E+02  0.10174961764E+03 -0.11026685394E+03  0.18338820871E+03  0.72960508377E+02 0.  0.
          5    1    3    3  501    0  0.20013808286E+02  0.12947039128E+02 -0.14732164594E+03  0.14931153910E+03  0.47000000000E+01 0. -1.
        -11    1    4    4    0    0 -0.13114666146E+02 -0.27835616866E+02 -0.12641450563E+02  0.33265933126E+02  0.00000000000E+00 0.  1.
         12    1    4    4    0    0  0.11179108433E+03 -0.59401147259E+02 -0.10667094303E+03  0.16554284314E+03  0.00000000000E+00 0. -1.
         -5    1    5    5    0  502 -0.42557214282E+02 -0.27459892646E+02  0.22735010764E+02  0.55714745858E+02  0.47000000000E+01 0.  1.
         13    1    6    6    0    0 -0.30065915569E+02  0.10316270119E+02 -0.63119097031E+02  0.70671105257E+02  0.00000000000E+00 0. -1.
        -14    1    6    6    0    0 -0.46067096615E+02  0.91433347523E+02 -0.47147756904E+02  0.11271710345E+03  0.00000000000E+00 0.  1.
<mgrwt>
<rscale>  2 0.22348822E+03</rscale>
<asrwt>0</asrwt>
<pdfrwt beam="1">  1       21 0.17927491E-01 0.22381699E+03</pdfrwt>
<pdfrwt beam="2">  1       21 0.72414550E-01 0.22381699E+03</pdfrwt>
<totfact> 0.47898280E+04</totfact>
</mgrwt>
</event>
<event>
12    1  0.1026879E-001  0.1917337E+03  0.7546771E-02  0.1156932E+00
         21   -1    0    0  503  502  0.00000000000E+00  0.00000000000E+00  0.19829995793E+03  0.19829995793E+03  0.00000000000E+00 0.  1.
         21   -1    0    0  501  503 -0.00000000000E+00 -0.00000000000E+00 -0.54775997314E+03  0.54775997314E+03  0.00000000000E+00 0.  1.
          6    2    1    2  501    0 -0.73692021790E+02  0.27025748507E+02 -0.47816655485E+03  0.51513309449E+03  0.17480831130E+03 0.  0.
         24    2    3    3    0    0 -0.64706108591E+02 -0.45075473938E+01 -0.13167592490E+03  0.16706278258E+03  0.79776097003E+02 0.  0.
         -6    2    1    2    0  502  0.73692021790E+02 -0.27025748507E+02  0.12870653964E+03  0.23092683658E+03  0.17493120176E+03 0.  0.
        -24    2    5    5    0    0 -0.25308392290E+01  0.32323595238E+02  0.26888697389E+02  0.90494532088E+02  0.80093934441E+02 0.  0.
          5    1    3    3  501    0 -0.89859131990E+01  0.31533295900E+02 -0.34649062995E+03  0.34807031191E+03  0.47000000000E+01 0. -1.
        -11    1    4    4    0    0 -0.46343795415E+02  0.29860966688E+02 -0.42064134097E+02  0.69345627709E+02  0.00000000000E+00 0.  1.
         12    1    4    4    0    0 -0.18362313176E+02 -0.34368514082E+02 -0.89611790805E+02  0.97717154874E+02  0.00000000000E+00 0. -1.
         -5    1    5    5    0  502  0.76222861019E+02 -0.59349343745E+02  0.10181784225E+03  0.14043230450E+03  0.47000000000E+01 0.  1.
         13    1    6    6    0    0 -0.22594462916E+02  0.26070440359E+02 -0.19456421617E+02  0.39607195774E+02  0.00000000000E+00 0. -1.
        -14    1    6    6    0    0  0.20063623687E+02  0.62531548794E+01  0.46345119007E+02  0.50887336314E+02  0.00000000000E+00 0.  1.
<mgrwt>
<rscale>  2 0.19170571E+03</rscale>
<asrwt>0</asrwt>
<pdfrwt beam="1">  1       21 0.30507687E-01 0.19173375E+03</pdfrwt>
<pdfrwt beam="2">  1       21 0.84270762E-01 0.19173375E+03</pdfrwt>
<totfact> 0.12611635E+04</totfact>
</mgrwt>
</event>
<event>
12    1  0.1026879E-001  0.2912385E+03  0.7546771E-02  0.1089800E+00
         21   -1    0    0  503  502  0.00000000000E+00  0.00000000000E+00  0.16915961402E+04  0.16915961402E+04  0.00000000000E+00 0.  1.
         21   -1    0    0  501  503 -0.00000000000E+00 -0.00000000000E+00 -0.65022782306E+02  0.65022782306E+02  0.00000000000E+00 0.  1.
          6    2    1    2  501    0 -0.21783508937E+03  0.85555423191E+02  0.12360377601E+04  0.12698855161E+04  0.17334365571E+03 0.  0.
         24    2    3    3    0    0 -0.59697108465E+02  0.20924056524E+02  0.69169313337E+03  0.69934367081E+03  0.81489988656E+02 0.  0.
         -6    2    1    2    0  502  0.21783508937E+03 -0.85555423191E+02  0.39053559778E+03  0.48673340640E+03  0.17210316436E+03 0.  0.
        -24    2    5    5    0    0  0.37320910319E+02  0.18639474185E+01  0.11185916523E+03  0.14335291882E+03  0.81493937453E+02 0.  0.
          5    1    3    3  501    0 -0.15813798090E+03  0.64631366668E+02  0.54434462675E+03  0.57054184530E+03  0.47000000000E+01 0.  1.
        -13    1    4    4    0    0  0.90637059537E+01  0.15790244038E+02  0.36497304643E+03  0.36542688352E+03  0.00000000000E+00 0.  1.
         14    1    4    4    0    0 -0.68760814419E+02  0.51338124854E+01  0.32672008694E+03  0.33391678730E+03  0.00000000000E+00 0. -1.
         -5    1    5    5    0  502  0.18051417905E+03 -0.87419370610E+02  0.27867643255E+03  0.34338048758E+03  0.47000000000E+01 0.  1.
         11    1    6    6    0    0  0.23230341196E+02  0.18417415753E+02  0.25003578099E+00  0.29646458018E+02  0.00000000000E+00 0. -1.
        -12    1    6    6    0    0  0.14090569122E+02 -0.16553468334E+02  0.11160912945E+03  0.11370646080E+03  0.00000000000E+00 0.  1.
<mgrwt>
<rscale>  2 0.29105420E+03</rscale>
<asrwt>0</asrwt>
<pdfrwt beam="1">  1       21 0.26024553E+00 0.29123853E+03</pdfrwt>
<pdfrwt beam="2">  1       21 0.10003506E-01 0.29123853E+03</pdfrwt>
<totfact> 0.43074348E+03</totfact>
</mgrwt>
</event>
<event>
12    1  0.1026879E-001  0.2665418E+03  0.7546771E-02  0.1104760E+00
         21   -1    0    0  503  502  0.00000000000E+00  0.00000000000E+00  0.12299990322E+04  0.12299990322E+04  0.00000000000E+00 0. -1.
         21   -1    0    0  501  503 -0.00000000000E+00 -0.00000000000E+00 -0.73879573039E+02  0.73879573039E+02  0.00000000000E+00 0.  1.
          6    2    1    2  501    0  0.13665358738E+02  0.18926041755E+03  0.89386255588E+03  0.92994918907E+03  0.17265276645E+03 0.  0.
         24    2    3    3    0    0  0.68550206066E+02  0.89812871336E+02  0.38112381019E+03  0.40475848823E+03  0.76214122647E+02 0.  0.
         -6    2    1    2    0  502 -0.13665358738E+02 -0.18926041755E+03  0.26225690329E+03  0.37392941618E+03  0.18718514173E+03 0.  0.
        -24    2    5    5    0    0  0.31213380857E+02 -0.15979841723E+02  0.99155943847E+02  0.13172233083E+03  0.79304733478E+02 0.  0.
          5    1    3    3  501    0 -0.54884847328E+02  0.99447546211E+02  0.51273874569E+03  0.52519070084E+03  0.47000000000E+01 0. -1.
        -13    1    4    4    0    0  0.12012113325E+02  0.32171180103E+02  0.33839727602E+02  0.48212061353E+02  0.00000000000E+00 0.  1.
         14    1    4    4    0    0  0.56538092741E+02  0.57641691233E+02  0.34728408259E+03  0.35654642688E+03  0.00000000000E+00 0. -1.
         -5    1    5    5    0  502 -0.44878739594E+02 -0.17328057582E+03  0.16310095945E+03  0.24220708536E+03  0.47000000000E+01 0.  1.
         13    1    6    6    0    0 -0.10796362327E+02  0.82616084594E+01  0.77364132819E+02  0.78549504522E+02  0.00000000000E+00 0. -1.
        -14    1    6    6    0    0  0.42009743183E+02 -0.24241450183E+02  0.21791811028E+02  0.53172826304E+02  0.00000000000E+00 0.  1.
<mgrwt>
<rscale>  2 0.26400660E+03</rscale>
<asrwt>0</asrwt>
<pdfrwt beam="1">  1       21 0.18923061E+00 0.26654179E+03</pdfrwt>
<pdfrwt beam="2">  1       21 0.11366089E-01 0.26654179E+03</pdfrwt>
<totfact> 0.96763597E+03</totfact>
</mgrwt>
</event>
<event>
12    1  0.1026879E-001  0.2156581E+03  0.7546771E-02  0.1137200E+00
         21   -1    0    0  503  502  0.00000000000E+00  0.00000000000E+00  0.46610587443E+03  0.46610587443E+03  0.00000000000E+00 0.  1.
         21   -1    0    0  501  503 -0.00000000000E+00 -0.00000000000E+00 -0.11725475090E+03  0.11725475090E+03  0.00000000000E+00 0.  1.
          6    2    1    2  501    0  0.51406521790E-01  0.12822917546E+03  0.61460630878E+02  0.22405336065E+03  0.17314668692E+03 0.  0.
         24    2    3    3    0    0  0.39246766278E+02  0.11791059888E+02  0.42939310110E+02  0.99718167297E+02  0.80128589029E+02 0.  0.
         -6    2    1    2    0  502 -0.51406521790E-01 -0.12822917546E+03  0.28739049264E+03  0.35930726468E+03  0.17339461095E+03 0.  0.
        -24    2    5    5    0    0 -0.27717138969E+02 -0.11373864350E+01  0.10208336771E+03  0.13285961921E+03  0.80381160804E+02 0.  0.
          5    1    3    3  501    0 -0.39195359756E+02  0.11643811557E+03  0.18521320768E+02  0.12433519336E+03  0.47000000000E+01 0. -1.
        -11    1    4    4    0    0  0.45357663420E+02  0.18279556554E+02 -0.66335323261E+01  0.49350416106E+02  0.00000000000E+00 0.  1.
         12    1    4    4    0    0 -0.61108971414E+01 -0.64884966653E+01  0.49572842436E+02  0.50367751191E+02  0.00000000000E+00 0. -1.
         -5    1    5    5    0  502  0.27665732447E+02 -0.12709178902E+03  0.18530712493E+03  0.22644764547E+03  0.47000000000E+01 0.  1.
         13    1    6    6    0    0 -0.28165836234E+02 -0.35614386025E+02  0.34629981791E+02  0.57104592298E+02  0.00000000000E+00 0. -1.
        -14    1    6    6    0    0  0.44869726496E+00  0.34476999589E+02  0.67453385924E+02  0.75755026913E+02  0.00000000000E+00 0.  1.
<mgrwt>
<rscale>  2 0.21560826E+03</rscale>
<asrwt>0</asrwt>
<pdfrwt beam="1">  1       21 0.71708595E-01 0.21565810E+03</pdfrwt>
<pdfrwt beam="2">  1       21 0.18039193E-01 0.21565810E+03</pdfrwt>
<totfact> 0.48574902E+04</totfact>
</mgrwt>
</event>
<event>
12    1  0.1026879E-001  0.2064194E+03  0.7546771E-02  0.1144523E+00
         21   -1    0    0  501  502  0.00000000000E+00  0.00000000000E+00  0.87952715546E+02  0.87952715546E+02  0.00000000000E+00 0.  1.
         21   -1    0    0  502  503 -0.00000000000E+00 -0.00000000000E+00 -0.70091112782E+03  0.70091112782E+03  0.00000000000E+00 0. -1.
         -6    2    1    2    0  503  0.81128454714E+02 -0.78029452509E+02 -0.52642186523E+03  0.56544579885E+03  0.17302759786E+03 0.  0.
        -24    2    3    3    0    0  0.47190174194E+02 -0.91335863861E+02 -0.50828007599E+03  0.52445699569E+03  0.78341254207E+02 0.  0.
          6    2    1    2  501    0 -0.81128454714E+02  0.78029452509E+02 -0.86536547046E+02  0.22341804452E+03  0.17250109280E+03 0.  0.
         24    2    5    5    0    0 -0.51089257501E+02  0.93353704103E+02 -0.11728275790E+03  0.17754206455E+03  0.80255299410E+02 0.  0.
          5    1    5    5  501    0 -0.30039197214E+02 -0.15324251594E+02  0.30746210851E+02  0.45875979966E+02  0.47000000000E+01 0. -1.
        -11    1    6    6    0    0 -0.54049477628E+02  0.16883039937E+02 -0.53858890765E+02  0.78148340890E+02  0.00000000000E+00 0.  1.
         12    1    6    6    0    0  0.29602201276E+01  0.76470664167E+02 -0.63423867132E+02  0.99393723662E+02  0.00000000000E+00 0. -1.
         -5    1    3    3    0  503  0.33938280521E+02  0.13306411353E+02 -0.18141789238E+02  0.40988803161E+02  0.47000000000E+01 0.  1.
         13    1    4    4    0    0 -0.16007820651E+02 -0.20330254398E+02 -0.20506413222E+03  0.20669027042E+03  0.00000000000E+00 0. -1.
        -14    1    4    4    0    0  0.63197994844E+02 -0.71005609464E+02 -0.30321594378E+03  0.31776672527E+03  0.00000000000E+00 0.  1.
<mgrwt>
<rscale>  2 0.20630903E+03</rscale>
<asrwt>0</asrwt>
<pdfrwt beam="1">  1       21 0.13531187E-01 0.20641941E+03</pdfrwt>
<pdfrwt beam="2">  1       21 0.10783248E+00 0.20641941E+03</pdfrwt>
<totfact> 0.32153344E+04</totfact>
</mgrwt>
</event>
<event>
12    1  0.1026879E-001  0.2006018E+03  0.7546771E-02  0.1149507E+00
         21   -1    0    0  503  502  0.00000000000E+00  0.00000000000E+00  0.24189781758E+03  0.24189781758E+03  0.00000000000E+00 0.  1.
         21   -1    0    0  501  503 -0.00000000000E+00 -0.00000000000E+00 -0.18693821551E+03  0.18693821551E+03  0.00000000000E+00 0. -1.
          6    2    1    2  501    0 -0.92174601228E+02  0.40534981899E+02 -0.45589482471E+02  0.20444528863E+03  0.17198904983E+03 0.  0.
         24    2    3    3    0    0 -0.95746738610E+02 -0.28244107652E+02 -0.21698872854E+02  0.13139616438E+03  0.82637421062E+02 0.  0.
         -6    2    1    2    0  502  0.92174601228E+02 -0.40534981899E+02  0.10054908453E+03  0.22439074446E+03  0.17349883553E+03 0.  0.
        -24    2    5    5    0    0  0.12480897958E+03 -0.61022719779E+01  0.90416399206E+02  0.17565292060E+03  0.84049414999E+02 0.  0.
          5    1    3    3  501    0  0.35721373814E+01  0.68779089551E+02 -0.23890609617E+02  0.73049124244E+02  0.47000000000E+01 0. -1.
        -11    1    4    4    0    0 -0.95852527254E+01 -0.40060946675E+02  0.20535708849E+01  0.41242862069E+02  0.00000000000E+00 0.  1.
         12    1    4    4    0    0 -0.86161485884E+02  0.11816839023E+02 -0.23752443739E+02  0.90153302313E+02  0.00000000000E+00 0. -1.
         -5    1    5    5    0  502 -0.32634378355E+02 -0.34432709922E+02  0.10132685327E+02  0.48737823865E+02  0.47000000000E+01 0.  1.
         11    1    6    6    0    0 -0.46709745470E+01  0.18254113401E+02  0.11031990571E+02  0.21834272950E+02  0.00000000000E+00 0. -1.
        -12    1    6    6    0    0  0.12947995413E+03 -0.24356385379E+02  0.79384408635E+02  0.15381864765E+03  0.00000000000E+00 0.  1.
<mgrwt>
<rscale>  2 0.20027493E+03</rscale>
<asrwt>0</asrwt>
<pdfrwt beam="1">  1       21 0.37215049E-01 0.20060181E+03</pdfrwt>
<pdfrwt beam="2">  1       21 0.28759725E-01 0.20060181E+03</pdfrwt>
<totfact> 0.80281007E+04</totfact>
</mgrwt>
</event>
<event>
12    1  0.1026879E-001  0.2214930E+03  0.7546771E-02  0.1132822E+00
         21   -1    0    0  503  502  0.00000000000E+00  0.00000000000E+00  0.66838913390E+03  0.66838913390E+03  0.00000000000E+00 0. -1.
         21   -1    0    0  501  503 -0.00000000000E+00 -0.00000000000E+00 -0.89880830097E+02  0.89880830097E+02  0.00000000000E+00 0.  1.
          6    2    1    2  501    0  0.10577414109E+03 -0.88055223626E+02  0.12662157510E+03  0.25513171125E+03  0.17354329567E+03 0.  0.
         24    2    3    3    0    0  0.69321460125E+02 -0.30971201964E+02  0.14727660887E+03  0.18416619921E+03  0.80387245416E+02 0.  0.
         -6    2    1    2    0  502 -0.10577414109E+03  0.88055223626E+02  0.45188672870E+03  0.50313825274E+03  0.17321834333E+03 0.  0.
        -24    2    5    5    0    0 -0.24135777374E+02  0.56399745832E+02  0.36885198607E+03  0.38237505393E+03  0.79971414615E+02 0.  0.
          5    1    3    3  501    0  0.36452680969E+02 -0.57084021663E+02 -0.20655033773E+02  0.70965512041E+02  0.47000000000E+01 0. -1.
        -11    1    4    4    0    0  0.10587663533E+02 -0.43826280453E+01 -0.93499416716E+01  0.14789437343E+02  0.00000000000E+00 0.  1.
         12    1    4    4    0    0  0.58733796592E+02 -0.26588573919E+02  0.15662655055E+03  0.16937676187E+03  0.00000000000E+00 0. -1.
         -5    1    5    5    0  502 -0.81638363720E+02  0.31655477794E+02  0.83034742625E+02  0.12076319882E+03  0.47000000000E+01 0.  1.
         11    1    6    6    0    0 -0.44368390994E+02  0.44596962307E+02  0.33709145156E+03  0.34291119824E+03  0.00000000000E+00 0. -1.
        -12    1    6    6    0    0  0.20232613619E+02  0.11802783526E+02  0.31760534519E+02  0.39463855688E+02  0.00000000000E+00 0.  1.
<mgrwt>
<rscale>  2 0.22142938E+03</rscale>
<asrwt>0</asrwt>
<pdfrwt beam="1">  1       21 0.10282909E+00 0.22149304E+03</pdfrwt>
<pdfrwt beam="2">  1       21 0.13827820E-01 0.22149304E+03</pdfrwt>
<totfact> 0.34386573E+04</totfact>
</mgrwt>
</event>
<event>
12    1  0.1026879E-001  0.3078269E+03  0.7546771E-02  0.1081467E+00
         21   -1    0    0  501  502  0.00000000000E+00  0.00000000000E+00  0.32478121480E+03  0.32478121480E+03  0.00000000000E+00 0.  1.
         21   -1    0    0  502  503 -0.00000000000E+00 -0.00000000000E+00 -0.29375567796E+03  0.29375567796E+03  0.00000000000E+00 0. -1.
         -6    2    1    2    0  503 -0.19923514226E+03 -0.16088576571E+03 -0.13501177088E+02  0.30750629944E+03  0.16970259544E+03 0.  0.
        -24    2    3    3    0    0 -0.20865992483E+03 -0.16375124027E+03 -0.39107484873E+02  0.27967088191E+03  0.79579984246E+02 0.  0.
          6    2    1    2  501    0  0.19923514226E+03  0.16088576571E+03  0.44526713932E+02  0.31103059332E+03  0.17081724213E+03 0.  0.
         24    2    5    5    0    0  0.13111713144E+03  0.17879985940E+03  0.46944731718E+02  0.24039834175E+03  0.80165223158E+02 0.  0.
          5    1    5    5  501    0  0.68118010820E+02 -0.17914093693E+02 -0.24180177859E+01  0.70632251563E+02  0.47000000000E+01 0. -1.
        -13    1    6    6    0    0 -0.98554450520E+01  0.23465399421E+02  0.37648681206E-01  0.25451054685E+02  0.00000000000E+00 0.  1.
         14    1    6    6    0    0  0.14097257649E+03  0.15533445998E+03  0.46907083037E+02  0.21494728707E+03  0.00000000000E+00 0. -1.
         -5    1    3    3    0  503  0.94247825765E+01  0.28654745612E+01  0.25606307785E+02  0.27835417537E+02  0.47000000000E+01 0.  1.
         11    1    4    4    0    0 -0.44572804187E+02 -0.11654356085E+02 -0.31489738983E+02  0.55804682152E+02  0.00000000000E+00 0. -1.
        -12    1    4    4    0    0 -0.16408712065E+03 -0.15209688418E+03 -0.76177458900E+01  0.22386619976E+03  0.00000000000E+00 0.  1.
<mgrwt>
<rscale>  2 0.30767250E+03</rscale>
<asrwt>0</asrwt>
<pdfrwt beam="1">  1       21 0.49966341E-01 0.30782690E+03</pdfrwt>
<pdfrwt beam="2">  1       21 0.45193181E-01 0.30782690E+03</pdfrwt>
<totfact> 0.16916825E+04</totfact>
</mgrwt>
</event>
<event>
12    1  0.1026879E-001  0.2064274E+03  0.7546771E-02  0.1146596E+00
         21   -1    0    0  501  502  0.00000000000E+00  0.00000000000E+00  0.56026447214E+03  0.56026447214E+03  0.00000000000E+00 0. -1.
         21   -1    0    0  502  503 -0.00000000000E+00 -0.00000000000E+00 -0.79754744802E+02  0.79754744802E+02  0.00000000000E+00 0. -1.
         -6    2    1    2    0  503 -0.21169794146E+02  0.91647436727E+02  0.14786458932E+03  0.25392165586E+03  0.18375216379E+03 0.  0.
        -24    2    3    3    0    0  0.29240581816E+02  0.12062571371E+03  0.10336181384E+03  0.18054908900E+03  0.80676728651E+02 0.  0.
          6    2    1    2  501    0  0.21169794146E+02 -0.91647436727E+02  0.33264513802E+03  0.38609756108E+03  0.17196257146E+03 0.  0.
         24    2    5    5    0    0  0.77000181298E+02 -0.42499926336E+02  0.17009389267E+03  0.20727500302E+03  0.79345591532E+02 0.  0.
          5    1    5    5  501    0 -0.55830387153E+02 -0.49147510392E+02  0.16255124535E+03  0.17882255806E+03  0.47000000000E+01 0. -1.
        -11    1    6    6    0    0 -0.16579948500E+02 -0.37969945042E+01  0.20675719435E+02  0.26773069187E+02  0.00000000000E+00 0.  1.
         12    1    6    6    0    0  0.93580129798E+02 -0.38702931831E+02  0.14941817323E+03  0.18050193383E+03  0.00000000000E+00 0. -1.
         -5    1    3    3    0  503 -0.50410375962E+02 -0.28978276986E+02  0.44502775486E+02  0.73372566860E+02  0.47000000000E+01 0.  1.
         13    1    4    4    0    0  0.61716453769E+01  0.68246006951E+02  0.75436551329E+01  0.68938475500E+02  0.00000000000E+00 0. -1.
        -14    1    4    4    0    0  0.23068936439E+02  0.52379706762E+02  0.95818158703E+02  0.11161061350E+03  0.00000000000E+00 0.  1.
<mgrwt>
<rscale>  2 0.20377134E+03</rscale>
<asrwt>0</asrwt>
<pdfrwt beam="1">  1       21 0.86194532E-01 0.20642740E+03</pdfrwt>
<pdfrwt beam="2">  1       21 0.12269961E-01 0.20642740E+03</pdfrwt>
<totfact> 0.65020960E+04</totfact>
</mgrwt>
</event>
<event>
12    1  0.1026879E-001  0.2484938E+03  0.7546771E-02  0.1114414E+00
         21   -1    0    0  503  502  0.00000000000E+00  0.00000000000E+00  0.10131570666E+03  0.10131570666E+03  0.00000000000E+00 0. -1.
         21   -1    0    0  501  503 -0.00000000000E+00 -0.00000000000E+00 -0.77005374947E+03  0.77005374947E+03  0.00000000000E+00 0. -1.
          6    2    1    2  501    0  0.13420228875E+03 -0.11664351042E+03 -0.53528858048E+03  0.59015507786E+03  0.17358913762E+03 0.  0.
         24    2    3    3    0    0  0.19319100306E+02 -0.35214688613E+01 -0.22773113958E+03  0.24286785851E+03  0.82083472025E+02 0.  0.
         -6    2    1    2    0  502 -0.13420228875E+03  0.11664351042E+03 -0.13344946233E+03  0.28121437828E+03  0.17221151159E+03 0.  0.
        -24    2    5    5    0    0 -0.12891213802E+03  0.12047178121E+03 -0.16087380490E+03  0.25263421177E+03  0.82534080563E+02 0.  0.
          5    1    3    3  501    0  0.11488318845E+03 -0.11312204156E+03 -0.30755744090E+03  0.34728721936E+03  0.47000000000E+01 0. -1.
        -11    1    4    4    0    0  0.39544528780E+02  0.10852362430E+02 -0.56302549968E+02  0.69652858230E+02  0.00000000000E+00 0.  1.
         12    1    4    4    0    0 -0.20225428474E+02 -0.14373831291E+02 -0.17142858962E+03  0.17321500028E+03  0.00000000000E+00 0. -1.
         -5    1    5    5    0  502 -0.52901507332E+01 -0.38282707907E+01  0.27424342574E+02  0.28580166508E+02  0.47000000000E+01 0.  1.
         13    1    6    6    0    0 -0.26210632734E+02  0.67940953903E+02 -0.31621044774E+02  0.79390559629E+02  0.00000000000E+00 0. -1.
        -14    1    6    6    0    0 -0.10270150529E+03  0.52530827311E+02 -0.12925276013E+03  0.17324365214E+03  0.00000000000E+00 0.  1.
<mgrwt>
<rscale>  2 0.24825332E+03</rscale>
<asrwt>0</asrwt>
<pdfrwt beam="1">  1       21 0.15587031E-01 0.24849377E+03</pdfrwt>
<pdfrwt beam="2">  1       21 0.11846981E+00 0.24849377E+03</pdfrwt>
<totfact> 0.19300428E+04</totfact>
</mgrwt>
</event>
<event>
12    1  0.1026879E-001  0.1799582E+03  0.7546771E-02  0.1168113E+00
         21   -1    0    0  503  502  0.00000000000E+00  0.00000000000E+00  0.44807118338E+03  0.44807118338E+03  0.00000000000E+00 0.  1.
         21   -1    0    0  501  503 -0.00000000000E+00 -0.00000000000E+00 -0.72958778000E+02  0.72958778000E+02  0.00000000000E+00 0.  1.
          6    2    1    2  501    0  0.33594189398E+02  0.32260754060E+02  0.15573858557E+03  0.23799044392E+03  0.17382640349E+03 0.  0.
         24    2    3    3    0    0 -0.19411726386E+02 -0.39271712294E+02  0.70887714813E+02  0.11491209034E+03  0.79124192812E+02 0.  0.
         -6    2    1    2    0  502 -0.33594189398E+02 -0.32260754060E+02  0.21937381981E+03  0.28303951746E+03  0.17267648888E+03 0.  0.
        -24    2    5    5    0    0 -0.37330320280E+02 -0.11322981708E+02  0.23813221644E+03  0.25429379727E+03  0.80228549130E+02 0.  0.
          5    1    3    3  501    0  0.53005915784E+02  0.71532466355E+02  0.84850870758E+02  0.12307835358E+03  0.47000000000E+01 0. -1.
        -13    1    4    4    0    0 -0.91848972612E+00 -0.44751819153E+02  0.35901458706E+01  0.44904989570E+02  0.00000000000E+00 0.  1.
         14    1    4    4    0    0 -0.18493236660E+02  0.54801068585E+01  0.67297568942E+02  0.70007100775E+02  0.00000000000E+00 0. -1.
         -5    1    5    5    0  502  0.37361308821E+01 -0.20937772352E+02 -0.18758396632E+02  0.28745720190E+02  0.47000000000E+01 0.  1.
         11    1    6    6    0    0 -0.33128854343E+02 -0.44089937955E+02  0.12962070112E+03  0.14086507650E+03  0.00000000000E+00 0. -1.
        -12    1    6    6    0    0 -0.42014659368E+01  0.32766956247E+02  0.10851151532E+03  0.11342872077E+03  0.00000000000E+00 0.  1.
<mgrwt>
<rscale>  2 0.17967991E+03</rscale>
<asrwt>0</asrwt>
<pdfrwt beam="1">  1       21 0.68934026E-01 0.17995817E+03</pdfrwt>
<pdfrwt beam="2">  1       21 0.11224428E-01 0.17995817E+03</pdfrwt>
<totfact> 0.12728774E+05</totfact>
</mgrwt>
</event>
<event>
12    1  0.1026879E-001  0.2150894E+03  0.7546771E-02  0.1137906E+00
         21   -1    0    0  501  502  0.00000000000E+00  0.00000000000E+00  0.40275444183E+03  0.40275444183E+03  0.00000000000E+00 0. -1.
         21   -1    0    0  502  503 -0.00000000000E+00 -0.00000000000E+00 -0.13377378898E+03  0.13377378898E+03  0.00000000000E+00 0. -1.
         -6    2    1    2    0  503  0.28980456884E+02 -0.12100857091E+03  0.31821736887E+02  0.21743065772E+03  0.17544379972E+03 0.  0.
        -24    2    3    3    0    0  0.49213607787E+01  0.68758808668E+01  0.33483052190E+02  0.87207299288E+02  0.80078091483E+02 0.  0.
          6    2    1    2  501    0 -0.28980456884E+02  0.12100857091E+03  0.23715891596E+03  0.31909757309E+03  0.17348189710E+03 0.  0.
         24    2    5    5    0    0 -0.40479239089E+02  0.75160480550E+02  0.50437976873E+02  0.12642928698E+03  0.78439202325E+02 0.  0.
          5    1    5    5  501    0  0.11498782205E+02  0.45848090363E+02  0.18672093908E+03  0.19266828611E+03  0.47000000000E+01 0. -1.
        -11    1    6    6    0    0  0.63959569979E+01  0.50893713313E+02 -0.29165248932E+01  0.51376886225E+02  0.00000000000E+00 0.  1.
         12    1    6    6    0    0 -0.46875196087E+02  0.24266767237E+02  0.53354501767E+02  0.75052400755E+02  0.00000000000E+00 0. -1.
         -5    1    3    3    0  503  0.24059096105E+02 -0.12788445178E+03 -0.16613153021E+01  0.13022335843E+03  0.47000000000E+01 0.  1.
         13    1    4    4    0    0  0.95825629117E+00 -0.36693896647E+02  0.13503890175E+02  0.39111575730E+02  0.00000000000E+00 0. -1.
        -14    1    4    4    0    0  0.39631044876E+01  0.43569777513E+02  0.19979162015E+02  0.48095723558E+02  0.00000000000E+00 0.  1.
<mgrwt>
<rscale>  2 0.21468901E+03</rscale>
<asrwt>0</asrwt>
<pdfrwt beam="1">  1       21 0.61962221E-01 0.21508944E+03</pdfrwt>
<pdfrwt beam="2">  1       21 0.20580583E-01 0.21508944E+03</pdfrwt>
<totfact> 0.52337337E+04</totfact>
</mgrwt>
</event>
<event>
12    1  0.1026879E-001  0.2896194E+03  0.7546771E-02  0.1090618E+00
         21   -1    0    0  501  502  0.00000000000E+00  0.00000000000E+00  0.15061122017E+03  0.15061122017E+03  0.00000000000E+00 0. -1.
         21   -1    0    0  502  503 -0.00000000000E+00 -0.00000000000E+00 -0.69925827246E+03  0.69925827246E+03  0.00000000000E+00 0.  1.
         -6    2    1    2    0  503  0.10405744860E+03  0.20777458597E+03 -0.82121889790E+02  0.30103721785E+03  0.17286170936E+03 0.  0.
        -24    2    3    3    0    0  0.12350163163E+03  0.19145460368E+03 -0.30907763708E+02  0.24368397220E+03  0.80740759015E+02 0.  0.
          6    2    1    2  501    0 -0.10405744860E+03 -0.20777458597E+03 -0.46652516250E+03  0.54883227478E+03  0.17196775107E+03 0.  0.
         24    2    5    5    0    0 -0.11905956627E+03 -0.22129369271E+03 -0.40120969566E+03  0.48030468916E+03  0.81100528903E+02 0.  0.
          5    1    5    5  501    0  0.15002117671E+02  0.13519106734E+02 -0.65315466844E+02  0.68527585617E+02  0.47000000000E+01 0. -1.
        -11    1    6    6    0    0  0.47981425744E+01 -0.46895895850E+02 -0.10336981030E+03  0.11361146466E+03  0.00000000000E+00 0.  1.
         12    1    6    6    0    0 -0.12385770884E+03 -0.17439779686E+03 -0.29783988536E+03  0.36669322451E+03  0.00000000000E+00 0. -1.
         -5    1    3    3    0  503 -0.19444183031E+02  0.16319982297E+02 -0.51214126082E+02  0.57353245647E+02  0.47000000000E+01 0.  1.
         13    1    4    4    0    0  0.28304076089E+02  0.11516438434E+03 -0.34738908699E+01  0.11864242100E+03  0.00000000000E+00 0. -1.
        -14    1    4    4    0    0  0.95197555538E+02  0.76290219336E+02 -0.27433872838E+02  0.12504155120E+03  0.00000000000E+00 0.  1.
<mgrwt>
<rscale>  2 0.28948615E+03</rscale>
<asrwt>0</asrwt>
<pdfrwt beam="1">  1       21 0.23170957E-01 0.28961941E+03</pdfrwt>
<pdfrwt beam="2">  1       21 0.10757819E+00 0.28961941E+03</pdfrwt>
<totfact> 0.11402081E+04</totfact>
</mgrwt>
</event>
<event>
12    1  0.1026879E-001  0.1766136E+03  0.7546771E-02  0.1171244E+00
         21   -1    0    0  501  502  0.00000000000E+00  0.00000000000E+00  0.12820577311E+03  0.12820577311E+03  0.00000000000E+00 0.  1.
         21   -1    0    0  502  503 -0.00000000000E+00 -0.00000000000E+00 -0.25460434419E+03  0.25460434419E+03  0.00000000000E+00 0.  1.
         -6    2    1    2    0  503  0.24505670329E+02  0.18159664196E+02 -0.10464319642E+03  0.20486164316E+03  0.17345833217E+03 0.  0.
        -24    2    3    3    0    0  0.77807254351E+02  0.36016813032E+02 -0.54125059154E+02  0.12913774457E+03  0.79974092023E+02 0.  0.
          6    2    1    2  501    0 -0.24505670329E+02 -0.18159664196E+02 -0.21755374664E+02  0.17794847415E+03  0.17395994322E+03 0.  0.
         24    2    5    5    0    0  0.34743126198E+02 -0.54410268732E+02  0.60199528658E+01  0.10299458807E+03  0.80025515792E+02 0.  0.
          5    1    5    5  501    0 -0.59248796527E+02  0.36250604536E+02 -0.27775327530E+02  0.74953886081E+02  0.47000000000E+01 0. -1.
        -13    1    6    6    0    0  0.35964365176E+02 -0.16761182034E+02 -0.30868549735E+02  0.50271663474E+02  0.00000000000E+00 0.  1.
         14    1    6    6    0    0 -0.12212389781E+01 -0.37649086699E+02  0.36888502601E+02  0.52722924597E+02  0.00000000000E+00 0. -1.
         -5    1    3    3    0  503 -0.53301584022E+02 -0.17857148836E+02 -0.50518137262E+02  0.75723898580E+02  0.47000000000E+01 0.  1.
         13    1    4    4    0    0 -0.25862510965E+01 -0.14377109936E+02 -0.26593972404E+02  0.30341874581E+02  0.00000000000E+00 0. -1.
        -14    1    4    4    0    0  0.80393505448E+02  0.50393922968E+02 -0.27531086749E+02  0.98795869994E+02  0.00000000000E+00 0.  1.
<mgrwt>
<rscale>  2 0.17648996E+03</rscale>
<asrwt>0</asrwt>
<pdfrwt beam="1">  1       21 0.19723965E-01 0.17661360E+03</pdfrwt>
<pdfrwt beam="2">  1       21 0.39169899E-01 0.17661360E+03</pdfrwt>
<totfact> 0.14963809E+05</totfact>
</mgrwt>
</event>
<event>
12    1  0.1026879E-001  0.1807106E+03  0.7546771E-02  0.1167453E+00
         21   -1    0    0  503  502  0.00000000000E+00  0.00000000000E+00  0.20480346344E+03  0.20480346344E+03  0.00000000000E+00 0. -1.
         21   -1    0    0  501  503 -0.00000000000E+00 -0.00000000000E+00 -0.22427370373E+03  0.22427370373E+03  0.00000000000E+00 0. -1.
          6    2    1    2  501    0 -0.42746494435E+02 -0.16997027284E+02  0.10671464728E+03  0.20867082814E+03  0.17331859926E+03 0.  0.
         24    2    3    3    0    0 -0.24696110343E+02 -0.66203522633E+02  0.19839511731E+02  0.10710077977E+03  0.78001067469E+02 0.  0.
         -6    2    1    2    0  502  0.42746494435E+02  0.16997027284E+02 -0.12618488757E+03  0.22040633902E+03  0.17475745108E+03 0.  0.
        -24    2    5    5    0    0  0.36836657963E+01  0.21137800115E+02 -0.15180012734E+03  0.17327587022E+03  0.80751919821E+02 0.  0.
          5    1    3    3  501    0 -0.18050384092E+02  0.49206495348E+02  0.86875135548E+02  0.10157004837E+03  0.47000000000E+01 0. -1.
        -11    1    4    4    0    0  0.26185409824E+02 -0.12321125439E+02  0.15584982056E+02  0.32869096206E+02  0.00000000000E+00 0.  1.
         12    1    4    4    0    0 -0.50881520167E+02 -0.53882397193E+02  0.42545296754E+01  0.74231683563E+02  0.00000000000E+00 0. -1.
         -5    1    5    5    0  502  0.39062828638E+02 -0.41407728307E+01  0.25615239768E+02  0.47130468799E+02  0.47000000000E+01 0.  1.
         11    1    6    6    0    0 -0.20949627194E+02 -0.24166609213E+02 -0.57447316051E+02  0.65750330812E+02  0.00000000000E+00 0. -1.
        -12    1    6    6    0    0  0.24633292990E+02  0.45304409328E+02 -0.94352811287E+02  0.10752553941E+03  0.00000000000E+00 0.  1.
<mgrwt>
<rscale>  2 0.18036184E+03</rscale>
<asrwt>0</asrwt>
<pdfrwt beam="1">  1       21 0.31508225E-01 0.18071062E+03</pdfrwt>
<pdfrwt beam="2">  1       21 0.34503647E-01 0.18071062E+03</pdfrwt>
<totfact> 0.78762745E+04</totfact>
</mgrwt>
</event>
<event>
12    1  0.1026879E-001  0.1849919E+03  0.7546771E-02  0.1163276E+00
         21   -1    0    0  503  502  0.00000000000E+00  0.00000000000E+00  0.18411056560E+03  0.18411056560E+03  0.00000000000E+00 0.  1.
         21   -1    0    0  501  503 -0.00000000000E+00 -0.00000000000E+00 -0.42413101948E+03  0.42413101948E+03  0.00000000000E+00 0.  1.
          6    2    1    2  501    0  0.66183104649E+02 -0.13895860953E+02 -0.34826311862E+03  0.39390898871E+03  0.17118350769E+03 0.  0.
         24    2    3    3    0    0  0.52993921957E+02 -0.70998832342E+02 -0.27245605830E+03  0.29797409269E+03  0.81896680322E+02 0.  0.
         -6    2    1    2    0  502 -0.66183104649E+02  0.13895860953E+02  0.10824266475E+03  0.21433259637E+03  0.17218794702E+03 0.  0.
        -24    2    5    5    0    0  0.80602042148E+01  0.27131059309E+02  0.42194503676E+01  0.85762932305E+02  0.80848101554E+02 0.  0.
          5    1    3    3  501    0  0.13189182692E+02  0.57102971389E+02 -0.75807060320E+02  0.95934896029E+02  0.47000000000E+01 0. -1.
        -11    1    4    4    0    0  0.17461800219E+02  0.42096386538E+01 -0.14283253496E+03  0.14395752349E+03  0.00000000000E+00 0.  1.
         12    1    4    4    0    0  0.35532121737E+02 -0.75208470996E+02 -0.12962352334E+03  0.15401656920E+03  0.00000000000E+00 0. -1.
         -5    1    5    5    0  502 -0.74243308864E+02 -0.13235198356E+02  0.10402321438E+03  0.12856966406E+03  0.47000000000E+01 0.  1.
         13    1    6    6    0    0  0.52438521028E+00  0.55863980814E+02  0.90376420021E+00  0.55873751636E+02  0.00000000000E+00 0. -1.
        -14    1    6    6    0    0  0.75358190045E+01 -0.28732921505E+02  0.33156861674E+01  0.29889180668E+02  0.00000000000E+00 0.  1.
<mgrwt>
<rscale>  2 0.18475778E+03</rscale>
<asrwt>0</asrwt>
<pdfrwt beam="1">  1       21 0.28324702E-01 0.18499186E+03</pdfrwt>
<pdfrwt beam="2">  1       21 0.65250926E-01 0.18499186E+03</pdfrwt>
<totfact> 0.25861866E+04</totfact>
</mgrwt>
</event>
<event>
12    1  0.1026879E-001  0.2336513E+03  0.7546771E-02  0.1124173E+00
         21   -1    0    0  501  502  0.00000000000E+00  0.00000000000E+00  0.64809987667E+03  0.64809987667E+03  0.00000000000E+00 0. -1.
         21   -1    0    0  502  503 -0.00000000000E+00 -0.00000000000E+00 -0.15562676090E+03  0.15562676090E+03  0.00000000000E+00 0.  1.
         -6    2    1    2    0  503 -0.15288345459E+03  0.38028652486E+02 -0.26381489048E+02  0.23468970016E+03  0.17194110417E+03 0.  0.
        -24    2    3    3    0    0 -0.16935812835E+03  0.62721259433E+02 -0.56015401078E+01  0.19815155583E+03  0.81342054323E+02 0.  0.
          6    2    1    2  501    0  0.15288345459E+03 -0.38028652486E+02  0.51885460482E+03  0.56903693741E+03  0.17254972066E+03 0.  0.
         24    2    5    5    0    0  0.36348773591E+02  0.21283091047E+02  0.30477352182E+03  0.31813652909E+03  0.80930514860E+02 0.  0.
          5    1    5    5  501    0  0.11653468099E+03 -0.59311743533E+02  0.21408108300E+03  0.25090040832E+03  0.47000000000E+01 0. -1.
        -11    1    6    6    0    0  0.51444484664E+02 -0.19121012626E+00  0.26836926282E+03  0.27325561804E+03  0.00000000000E+00 0.  1.
         12    1    6    6    0    0 -0.15095711073E+02  0.21474301173E+02  0.36404258996E+02  0.44880911050E+02  0.00000000000E+00 0. -1.
         -5    1    3    3    0  503  0.16474673765E+02 -0.24692606948E+02 -0.20779948940E+02  0.36538144336E+02  0.47000000000E+01 0.  1.
         13    1    4    4    0    0 -0.78375993159E+02  0.70801234026E+02 -0.13458037988E+02  0.10647408055E+03  0.00000000000E+00 0. -1.
        -14    1    4    4    0    0 -0.90982135191E+02 -0.80799745925E+01  0.78564978804E+01  0.91677475272E+02  0.00000000000E+00 0.  1.
<mgrwt>
<rscale>  2 0.23353896E+03</rscale>
<asrwt>0</asrwt>
<pdfrwt beam="1">  1       21 0.99707672E-01 0.23365131E+03</pdfrwt>
<pdfrwt beam="2">  1       21 0.23942579E-01 0.23365131E+03</pdfrwt>
<totfact> 0.13248617E+04</totfact>
</mgrwt>
</event>
<event>
12    1  0.1026879E-001  0.1901256E+03  0.7546771E-02  0.1158396E+00
         21   -1    0    0  503  502  0.00000000000E+00  0.00000000000E+00  0.91590827790E+02  0.91590827790E+02  0.00000000000E+00 0. -1.
         21   -1    0    0  501  503 -0.00000000000E+00 -0.00000000000E+00 -0.40538645645E+03  0.40538645645E+03  0.00000000000E+00 0. -1.
          6    2    1    2  501    0  0.51937399244E+02  0.63492345347E+02 -0.19820670510E+03  0.27465187895E+03  0.17151963533E+03 0.  0.
         24    2    3    3    0    0  0.26743772029E+02  0.61959137023E+02 -0.38277287880E+02  0.11267478775E+03  0.81708585986E+02 0.  0.
         -6    2    1    2    0  502 -0.51937399244E+02 -0.63492345347E+02 -0.11558892356E+03  0.22232540529E+03  0.17128635448E+03 0.  0.
        -24    2    5    5    0    0 -0.43414661660E+02 -0.10218706353E+03 -0.54776450897E+02  0.14959188412E+03  0.83965727665E+02 0.  0.
          5    1    3    3  501    0  0.25193627215E+02  0.15332083237E+01 -0.15992941722E+03  0.16197709120E+03  0.47000000000E+01 0. -1.
        -13    1    4    4    0    0  0.49715325518E+02  0.16621666493E+02 -0.67190741227E+01  0.52849213290E+02  0.00000000000E+00 0.  1.
         14    1    4    4    0    0 -0.22971553489E+02  0.45337470530E+02 -0.31558213757E+02  0.59825574458E+02  0.00000000000E+00 0. -1.
         -5    1    5    5    0  502 -0.85227375842E+01  0.38694718181E+02 -0.60812472661E+02  0.72733521173E+02  0.47000000000E+01 0.  1.
         11    1    6    6    0    0 -0.33394715077E+02  0.25547365048E+01 -0.79516325674E+01  0.34423278957E+02  0.00000000000E+00 0. -1.
        -12    1    6    6    0    0 -0.10019946582E+02 -0.10474180003E+03 -0.46824818329E+02  0.11516860516E+03  0.00000000000E+00 0.  1.
<mgrwt>
<rscale>  2 0.19007301E+03</rscale>
<asrwt>0</asrwt>
<pdfrwt beam="1">  1       21 0.14090897E-01 0.19012563E+03</pdfrwt>
<pdfrwt beam="2">  1       21 0.62367146E-01 0.19012563E+03</pdfrwt>
<totfact> 0.10486841E+05</totfact>
</mgrwt>
</event>
<event>
12    1  0.1026879E-001  0.2214112E+03  0.7546771E-02  0.1133847E+00
         21   -1    0    0  501  502  0.00000000000E+00  0.00000000000E+00  0.53422139543E+03  0.53422139543E+03  0.00000000000E+00 0. -1.
         21   -1    0    0  502  503 -0.00000000000E+00 -0.00000000000E+00 -0.16051371902E+03  0.16051371902E+03  0.00000000000E+00 0.  1.
         -6    2    1    2    0  503 -0.11344178281E+03  0.62769572130E+02 -0.45406007177E+02  0.22073172584E+03  0.17277653784E+03 0.  0.
        -24    2    3    3    0    0 -0.44788575769E+02  0.78588478294E+02  0.21617032109E+02  0.12337835699E+03  0.81072544411E+02 0.  0.
          6    2    1    2  501    0  0.11344178281E+03 -0.62769572130E+02  0.41911368359E+03  0.47400338861E+03  0.17948224249E+03 0.  0.
         24    2    5    5    0    0  0.10083369885E+03  0.38091615498E+01  0.36519875053E+03  0.38728198660E+03  0.80220104847E+02 0.  0.
          5    1    5    5  501    0  0.12608083968E+02 -0.66578733680E+02  0.53914933061E+02  0.86721402011E+02  0.47000000000E+01 0. -1.
        -13    1    6    6    0    0  0.17894434666E+02  0.25134308858E+02  0.37412573592E+02  0.48493761831E+02  0.00000000000E+00 0.  1.
         14    1    6    6    0    0  0.82939264181E+02 -0.21325147308E+02  0.32778617694E+03  0.33878822477E+03  0.00000000000E+00 0. -1.
         -5    1    3    3    0  503 -0.68653207045E+02 -0.15818906164E+02 -0.67023039286E+02  0.97353368842E+02  0.47000000000E+01 0.  1.
         13    1    4    4    0    0 -0.18906841940E+02 -0.67964123795E+01  0.27392038368E+02  0.33970334990E+02  0.00000000000E+00 0. -1.
        -14    1    4    4    0    0 -0.25881733829E+02  0.85384890674E+02 -0.57750062584E+01  0.89408022004E+02  0.00000000000E+00 0.  1.
<mgrwt>
<rscale>  2 0.22004867E+03</rscale>
<asrwt>0</asrwt>
<pdfrwt beam="1">  1       21 0.82187906E-01 0.22141123E+03</pdfrwt>
<pdfrwt beam="2">  1       21 0.24694419E-01 0.22141123E+03</pdfrwt>
<totfact> 0.19723575E+04</totfact>
</mgrwt>
</event>
<event>
12    1  0.1026879E-001  0.3587062E+03  0.7546771E-02  0.1059681E+00
         21   -1    0    0  501  502  0.00000000000E+00  0.00000000000E+00  0.80927711181E+03  0.80927711181E+03  0.00000000000E+00 0. -1.
         21   -1    0    0  502  503 -0.00000000000E+00 -0.00000000000E+00 -0.41173154310E+03  0.41173154310E+03  0.00000000000E+00 0. -1.
         -6    2    1    2    0  503  0.29947181827E+03 -0.78831389158E+02 -0.28257938531E+03  0.45208727559E+03  0.16921595047E+03 0.  0.
        -24    2    3    3    0    0  0.28919013597E+03 -0.88456339078E+02 -0.29693695701E+03  0.43143340145E+03  0.80670718246E+02 0.  0.
          6    2    1    2  501    0 -0.29947181827E+03  0.78831389158E+02  0.68012495403E+03  0.76892137932E+03  0.18103142441E+03 0.  0.
         24    2    5    5    0    0 -0.23543362436E+03 -0.62902664355E+01  0.51495576138E+03  0.57232651995E+03  0.83124306463E+02 0.  0.
          5    1    5    5  501    0 -0.64038193918E+02  0.85121655594E+02  0.16516919264E+03  0.19659485937E+03  0.47000000000E+01 0. -1.
        -11    1    6    6    0    0 -0.24113285472E+03 -0.37673986651E+01  0.51070556354E+03  0.56478263035E+03  0.00000000000E+00 0.  1.
         12    1    6    6    0    0  0.56992303625E+01 -0.25228677704E+01  0.42501978413E+01  0.75438895937E+01  0.00000000000E+00 0. -1.
         -5    1    3    3    0  503  0.10281682304E+02  0.96249499195E+01  0.14357571701E+02  0.20653874142E+02  0.47000000000E+01 0.  1.
         13    1    4    4    0    0  0.61114056899E+02 -0.14804288392E+02 -0.11298567503E+03  0.12930528863E+03  0.00000000000E+00 0. -1.
        -14    1    4    4    0    0  0.22807607907E+03 -0.73652050686E+02 -0.18395128199E+03  0.30212811282E+03  0.00000000000E+00 0.  1.
<mgrwt>
<rscale>  2 0.35724338E+03</rscale>
<asrwt>0</asrwt>
<pdfrwt beam="1">  1       21 0.12450417E+00 0.35870620E+03</pdfrwt>
<pdfrwt beam="2">  1       21 0.63343314E-01 0.35870620E+03</pdfrwt>
<totfact> 0.98260970E+02</totfact>
</mgrwt>
</event>
<event>
12    1  0.1026879E-001  0.2074244E+03  0.7546771E-02  0.1143737E+00
         21   -1    0    0  503  502  0.00000000000E+00  0.00000000000E+00  0.89492672067E+02  0.89492672067E+02  0.00000000000E+00 0. -1.
         21   -1    0    0  501  503 -0.00000000000E+00 -0.00000000000E+00 -0.58429871429E+03  0.58429871429E+03  0.00000000000E+00 0. -1.
          6    2    1    2  501    0 -0.92244666854E+02 -0.67789276107E+02 -0.38984276983E+03  0.44132163688E+03  0.17228736885E+03 0.  0.
         24    2    3    3    0    0 -0.40835136731E+02 -0.68488009967E+02 -0.36893346118E+03  0.38561959737E+03  0.78945925772E+02 0.  0.
         -6    2    1    2    0  502  0.92244666854E+02  0.67789276107E+02 -0.10496327239E+03  0.23246974949E+03  0.17297523336E+03 0.  0.
        -24    2    5    5    0    0 -0.55508672605E+01  0.20393770123E+02 -0.87008586103E+02  0.12222111575E+03  0.83191280150E+02 0.  0.
          5    1    3    3  501    0 -0.51409530123E+02  0.69873385950E+00 -0.20909308649E+02  0.55702039502E+02  0.47000000000E+01 0. -1.
        -13    1    4    4    0    0 -0.67194628936E+01  0.58437476689E+01 -0.13011739256E+01  0.89996456586E+01  0.00000000000E+00 0.  1.
         14    1    4    4    0    0 -0.34115673838E+02 -0.74331757636E+02 -0.36763228726E+03  0.37661995171E+03  0.00000000000E+00 0. -1.
         -5    1    5    5    0  502  0.97795534115E+02  0.47395505984E+02 -0.17954686292E+02  0.11024863373E+03  0.47000000000E+01 0.  1.
         11    1    6    6    0    0  0.36445260359E+02  0.23344166709E+02 -0.37823358709E+02  0.57478809886E+02  0.00000000000E+00 0. -1.
        -12    1    6    6    0    0 -0.41996127619E+02 -0.29503965861E+01 -0.49185227394E+02  0.64742305866E+02  0.00000000000E+00 0.  1.
<mgrwt>
<rscale>  2 0.20728097E+03</rscale>
<asrwt>0</asrwt>
<pdfrwt beam="1">  1       21 0.13768103E-01 0.20742443E+03</pdfrwt>
<pdfrwt beam="2">  1       21 0.89892112E-01 0.20742443E+03</pdfrwt>
<totfact> 0.47919864E+04</totfact>
</mgrwt>
</event>
<event>
12    1  0.1026879E-001  0.2370751E+03  0.7546771E-02  0.1121875E+00
         21   -1    0    0  501  502  0.00000000000E+00  0.00000000000E+00  0.14728814943E+03  0.14728814943E+03  0.00000000000E+00 0. -1.
         21   -1    0    0  502  503 -0.00000000000E+00 -0.00000000000E+00 -0.41872802583E+03  0.41872802583E+03  0.00000000000E+00 0.  1.
         -6    2    1    2    0  503 -0.97272156266E+00 -0.16204651965E+03 -0.22107706142E+03  0.32365068506E+03  0.17208915751E+03 0.  0.
        -24    2    3    3    0    0  0.63724514084E+02 -0.11704522618E+03 -0.16569953288E+03  0.22721620273E+03  0.80065404006E+02 0.  0.
          6    2    1    2  501    0  0.97272156266E+00  0.16204651965E+03 -0.50362814971E+02  0.24236549020E+03  0.17304507214E+03 0.  0.
         24    2    5    5    0    0  0.56944195516E+02  0.11259158754E+03 -0.68908137111E+02  0.16526415960E+03  0.81513214279E+02 0.  0.
          5    1    5    5  501    0 -0.55971473953E+02  0.49454932114E+02  0.18545322139E+02  0.77101330599E+02  0.47000000000E+01 0. -1.
        -11    1    6    6    0    0  0.10670749890E+02  0.10223450824E+03 -0.47758228140E+02  0.11334287773E+03  0.00000000000E+00 0.  1.
         12    1    6    6    0    0  0.46273445626E+02  0.10357079302E+02 -0.21149908970E+02  0.51921281872E+02  0.00000000000E+00 0. -1.
         -5    1    3    3    0  503 -0.64697235646E+02 -0.45001293476E+02 -0.55377528541E+02  0.96434482329E+02  0.47000000000E+01 0.  1.
         11    1    4    4    0    0  0.23557648834E+02 -0.25364527511E+02 -0.11756144173E+01  0.34636745570E+02  0.00000000000E+00 0. -1.
        -12    1    4    4    0    0  0.40166865249E+02 -0.91680698665E+02 -0.16452391847E+03  0.19257945716E+03  0.00000000000E+00 0.  1.
<mgrwt>
<rscale>  2 0.23690073E+03</rscale>
<asrwt>0</asrwt>
<pdfrwt beam="1">  1       21 0.22659715E-01 0.23707513E+03</pdfrwt>
<pdfrwt beam="2">  1       21 0.64419696E-01 0.23707513E+03</pdfrwt>
<totfact> 0.39704215E+04</totfact>
</mgrwt>
</event>
<event>
12    1  0.1026879E-001  0.2341287E+03  0.7546771E-02  0.1125655E+00
         21   -1    0    0  503  502  0.00000000000E+00  0.00000000000E+00  0.13158007753E+04  0.13158007753E+04  0.00000000000E+00 0. -1.
         21   -1    0    0  501  503 -0.00000000000E+00 -0.00000000000E+00 -0.92150551776E+02  0.92150551776E+02  0.00000000000E+00 0. -1.
          6    2    1    2  501    0  0.12940856122E+03 -0.56705293472E+02  0.74988110882E+02  0.23567111165E+03  0.17307683284E+03 0.  0.
         24    2    3    3    0    0  0.32054707511E+02 -0.76267111571E+01 -0.22000005341E+02  0.89673629604E+02  0.80446806118E+02 0.  0.
         -6    2    1    2    0  502 -0.12940856122E+03  0.56705293472E+02  0.11486621127E+04  0.11722802155E+04  0.18669276485E+03 0.  0.
        -24    2    5    5    0    0  0.30837640096E+01 -0.26950675106E+02  0.31674563868E+03  0.32572268817E+03  0.70933923286E+02 0.  0.
          5    1    3    3  501    0  0.97353853709E+02 -0.49078582315E+02  0.96988116223E+02  0.14599748204E+03  0.47000000000E+01 0. -1.
        -13    1    4    4    0    0  0.13455595328E+02 -0.46885008146E+01 -0.52185917981E+02  0.54096257920E+02  0.00000000000E+00 0.  1.
         14    1    4    4    0    0  0.18599112183E+02 -0.29382103425E+01  0.30185912640E+02  0.35577371684E+02  0.00000000000E+00 0. -1.
         -5    1    5    5    0  502 -0.13249232523E+03  0.83655968578E+02  0.83191647400E+03  0.84655752730E+03  0.47000000000E+01 0.  1.
         13    1    6    6    0    0 -0.27348972767E+02 -0.34618429146E+02  0.20207049258E+03  0.20683057298E+03  0.00000000000E+00 0. -1.
        -14    1    6    6    0    0  0.30432736776E+02  0.76677540401E+01  0.11467514610E+03  0.11889211518E+03  0.00000000000E+00 0.  1.
<mgrwt>
<rscale>  2 0.23140502E+03</rscale>
<asrwt>0</asrwt>
<pdfrwt beam="1">  1       21 0.20243087E+00 0.23412871E+03</pdfrwt>
<pdfrwt beam="2">  1       21 0.14177009E-01 0.23412871E+03</pdfrwt>
<totfact> 0.54337663E+03</totfact>
</mgrwt>
</event>
<event>
12    1  0.1026879E-001  0.2303198E+03  0.7546771E-02  0.1126550E+00
         21   -1    0    0  503  502  0.00000000000E+00  0.00000000000E+00  0.25290120271E+03  0.25290120271E+03  0.00000000000E+00 0.  1.
         21   -1    0    0  501  503 -0.00000000000E+00 -0.00000000000E+00 -0.22021687134E+03  0.22021687134E+03  0.00000000000E+00 0.  1.
          6    2    1    2  501    0  0.14065365320E+03  0.53263229397E+02 -0.36886186183E+02  0.23325477524E+03  0.17443273109E+03 0.  0.
         24    2    3    3    0    0  0.15362861165E+02  0.44139485723E+02 -0.52736662499E+02  0.10654900241E+03  0.79920101599E+02 0.  0.
         -6    2    1    2    0  502 -0.14065365320E+03 -0.53263229397E+02  0.69570517553E+02  0.23986329882E+03  0.17341834805E+03 0.  0.
        -24    2    5    5    0    0 -0.36498642431E+02 -0.57637139744E+02 -0.86936414005E+01  0.10942263822E+03  0.85109009958E+02 0.  0.
          5    1    3    3  501    0  0.12529079204E+03  0.91237436734E+01  0.15850476316E+02  0.12670577283E+03  0.47000000000E+01 0. -1.
        -11    1    4    4    0    0  0.39346026867E+02  0.12311988455E+02 -0.99532120912E+00  0.41239368985E+02  0.00000000000E+00 0.  1.
         12    1    4    4    0    0 -0.23983165702E+02  0.31827497268E+02 -0.51741341290E+02  0.65309633424E+02  0.00000000000E+00 0. -1.
         -5    1    5    5    0  502 -0.10415501077E+03  0.43739103474E+01  0.78264158954E+02  0.13044066060E+03  0.47000000000E+01 0.  1.
         13    1    6    6    0    0  0.15160686646E+02 -0.22568773727E+02  0.26317080066E+02  0.37838930618E+02  0.00000000000E+00 0. -1.
        -14    1    6    6    0    0 -0.51659329077E+02 -0.35068366017E+02 -0.35010721467E+02  0.71583707597E+02  0.00000000000E+00 0.  1.
<mgrwt>
<rscale>  2 0.23012771E+03</rscale>
<asrwt>0</asrwt>
<pdfrwt beam="1">  1       21 0.38907877E-01 0.23031978E+03</pdfrwt>
<pdfrwt beam="2">  1       21 0.33879519E-01 0.23031978E+03</pdfrwt>
<totfact> 0.52546662E+04</totfact>
</mgrwt>
</event>
<event>
12    1  0.1026879E-001  0.2407129E+03  0.7546771E-02  0.1120344E+00
         21   -1    0    0  501  502  0.00000000000E+00  0.00000000000E+00  0.10595476885E+03  0.10595476885E+03  0.00000000000E+00 0.  1.
         21   -1    0    0  502  503 -0.00000000000E+00 -0.00000000000E+00 -0.93636427118E+03  0.93636427118E+03  0.00000000000E+00 0. -1.
         -6    2    1    2    0  503 -0.88753418424E+02  0.12871986346E+03 -0.76023525332E+03  0.79743360399E+03  0.18302114588E+03 0.  0.
        -24    2    3    3    0    0 -0.43968709262E+02  0.15880087899E+03 -0.61306024779E+03  0.64061169887E+03  0.85962286781E+02 0.  0.
          6    2    1    2  501    0  0.88753418424E+02 -0.12871986346E+03 -0.70174249008E+02  0.24488543604E+03  0.17492420938E+03 0.  0.
         24    2    5    5    0    0  0.49735658360E+02 -0.83611865326E+02 -0.11523224378E+03  0.16998930804E+03  0.78443069202E+02 0.  0.
          5    1    5    5  501    0  0.39017760064E+02 -0.45107998137E+02  0.45057994769E+02  0.74896127997E+02  0.47000000000E+01 0. -1.
        -13    1    6    6    0    0  0.47186588244E+02 -0.69872258134E+02 -0.39730462333E+02  0.93205236999E+02  0.00000000000E+00 0.  1.
         14    1    6    6    0    0  0.25490701164E+01 -0.13739607191E+02 -0.75501781444E+02  0.76784071040E+02  0.00000000000E+00 0. -1.
         -5    1    3    3    0  503 -0.44784709162E+02 -0.30081015528E+02 -0.14717500553E+03  0.15682190512E+03  0.47000000000E+01 0.  1.
         11    1    4    4    0    0 -0.64861393983E+02  0.86719844299E+02 -0.41224010077E+03  0.42622673838E+03  0.00000000000E+00 0. -1.
        -12    1    4    4    0    0  0.20892684722E+02  0.72081034692E+02 -0.20082014702E+03  0.21438496049E+03  0.00000000000E+00 0.  1.
<mgrwt>
<rscale>  2 0.23917388E+03</rscale>
<asrwt>0</asrwt>
<pdfrwt beam="1">  1       21 0.16300733E-01 0.24071293E+03</pdfrwt>
<pdfrwt beam="2">  1       21 0.14405604E+00 0.24071293E+03</pdfrwt>
<totfact> 0.10835943E+04</totfact>
</mgrwt>
</event>
<event>
12    1  0.1026879E-001  0.2072118E+03  0.7546771E-02  0.1143816E+00
         21   -1    0    0  503  502  0.00000000000E+00  0.00000000000E+00  0.41433252701E+03  0.41433252701E+03  0.00000000000E+00 0. -1.
         21   -1    0    0  501  503 -0.00000000000E+00 -0.00000000000E+00 -0.10380647659E+03  0.10380647659E+03  0.00000000000E+00 0.  1.
          6    2    1    2  501    0 -0.44274240940E+02  0.10491701282E+03  0.14300597786E+03  0.25176866381E+03  0.17311545969E+03 0.  0.
         24    2    3    3    0    0 -0.42950503868E+02  0.28855583702E+01  0.25884771474E+02  0.96360694385E+02  0.82233142944E+02 0.  0.
         -6    2    1    2    0  502  0.44274240940E+02 -0.10491701282E+03  0.16752007257E+03  0.26637033979E+03  0.17298090998E+03 0.  0.
        -24    2    5    5    0    0 -0.12240398511E+02  0.54693247066E+01  0.83616543918E+02  0.11656733547E+03  0.80102911393E+02 0.  0.
          5    1    3    3  501    0 -0.13237370714E+01  0.10203145445E+03  0.11712120638E+03  0.15540796943E+03  0.47000000000E+01 0. -1.
        -13    1    4    4    0    0 -0.36311229073E+01  0.42426668855E+01 -0.28608977565E+02  0.29148908610E+02  0.00000000000E+00 0.  1.
         14    1    4    4    0    0 -0.39319380961E+02 -0.13571085153E+01  0.54493749039E+02  0.67211785774E+02  0.00000000000E+00 0. -1.
         -5    1    5    5    0  502  0.56514639450E+02 -0.11038633752E+03  0.83903528650E+02  0.14980300432E+03  0.47000000000E+01 0.  1.
         13    1    6    6    0    0  0.27052665968E+02 -0.13944127182E+00  0.69265685741E+02  0.74361289668E+02  0.00000000000E+00 0. -1.
        -14    1    6    6    0    0 -0.39293064479E+02  0.56087659784E+01  0.14350858176E+02  0.42206045803E+02  0.00000000000E+00 0.  1.
<mgrwt>
<rscale>  2 0.20718374E+03</rscale>
<asrwt>0</asrwt>
<pdfrwt beam="1">  1       21 0.63743465E-01 0.20721185E+03</pdfrwt>
<pdfrwt beam="2">  1       21 0.15970227E-01 0.20721185E+03</pdfrwt>
<totfact> 0.79054734E+04</totfact>
</mgrwt>
</event>
<event>
12    1  0.1026879E-001  0.1822146E+03  0.7546771E-02  0.1166786E+00
         21   -1    0    0  501  502  0.00000000000E+00  0.00000000000E+00  0.12546361496E+03  0.12546361496E+03  0.00000000000E+00 0.  1.
         21   -1    0    0  502  503 -0.00000000000E+00 -0.00000000000E+00 -0.38841728841E+03  0.38841728841E+03  0.00000000000E+00 0.  1.
         -6    2    1    2    0  503  0.45180317873E+02 -0.50086428768E+02 -0.27923499411E+03  0.33094033263E+03  0.16431497300E+03 0.  0.
        -24    2    3    3    0    0  0.84491521831E+02 -0.52228894140E+02 -0.15814581909E+03  0.20352510896E+03  0.80905470999E+02 0.  0.
          6    2    1    2  501    0 -0.45180317873E+02  0.50086428768E+02  0.16281320660E+02  0.18294057074E+03  0.16926978334E+03 0.  0.
         24    2    5    5    0    0 -0.79487043359E+02  0.80185479399E+02  0.10320890935E+02  0.13667480603E+03  0.76325491442E+02 0.  0.
          5    1    5    5  501    0  0.34306725487E+02 -0.30099050631E+02  0.59604297255E+01  0.46265764719E+02  0.47000000000E+01 0. -1.
        -13    1    6    6    0    0 -0.18759339126E+02 -0.59564013631E+01  0.23280039978E+02  0.30485271575E+02  0.00000000000E+00 0.  1.
         14    1    6    6    0    0 -0.60727704233E+02  0.86141880762E+02 -0.12959149043E+02  0.10618953445E+03  0.00000000000E+00 0. -1.
         -5    1    3    3    0  503 -0.39311203958E+02  0.21424653719E+01 -0.12108917502E+03  0.12741522366E+03  0.47000000000E+01 0.  1.
         13    1    4    4    0    0  0.20619588841E+02 -0.41245847787E+02 -0.18710656630E+02  0.49764204758E+02  0.00000000000E+00 0. -1.
        -14    1    4    4    0    0  0.63871932990E+02 -0.10983046353E+02 -0.13943516246E+03  0.15376090420E+03  0.00000000000E+00 0.  1.
<mgrwt>
<rscale>  2 0.18105528E+03</rscale>
<asrwt>0</asrwt>
<pdfrwt beam="1">  1       21 0.19302095E-01 0.18221463E+03</pdfrwt>
<pdfrwt beam="2">  1       21 0.59756506E-01 0.18221463E+03</pdfrwt>
<totfact> 0.64764688E+04</totfact>
</mgrwt>
</event>
<event>
12    1  0.1026879E-001  0.1795350E+03  0.7546771E-02  0.1169654E+00
         21   -1    0    0  501  502  0.00000000000E+00  0.00000000000E+00  0.55147209141E+02  0.55147209141E+02  0.00000000000E+00 0.  1.
         21   -1    0    0  502  503 -0.00000000000E+00 -0.00000000000E+00 -0.63797997518E+03  0.63797997518E+03  0.00000000000E+00 0.  1.
         -6    2    1    2    0  503  0.17573504649E+02 -0.44128247047E+02 -0.41182226035E+03  0.44925538961E+03  0.17313780845E+03 0.  0.
        -24    2    3    3    0    0  0.56057444978E+02 -0.70427166617E+02 -0.35733809529E+03  0.37739955424E+03  0.81470769348E+02 0.  0.
          6    2    1    2  501    0 -0.17573504649E+02  0.44128247047E+02 -0.17101050568E+03  0.24387179471E+03  0.16725049761E+03 0.  0.
         24    2    5    5    0    0 -0.27080496988E+02  0.80924157004E+02 -0.16905556224E+03  0.20552816817E+03  0.79874728682E+02 0.  0.
          5    1    5    5  501    0  0.95069923388E+01 -0.36795909957E+02 -0.19549434448E+01  0.38343626547E+02  0.47000000000E+01 0. -1.
        -13    1    6    6    0    0  0.11089860492E+02 -0.11743692052E+02 -0.30666637208E+02  0.34660380067E+02  0.00000000000E+00 0.  1.
         14    1    6    6    0    0 -0.38170357480E+02  0.92667849056E+02 -0.13838892503E+03  0.17086778810E+03  0.00000000000E+00 0. -1.
         -5    1    3    3    0  503 -0.38483940329E+02  0.26298919570E+02 -0.54484165061E+02  0.71855835367E+02  0.47000000000E+01 0.  1.
         11    1    4    4    0    0  0.30559937243E+02 -0.27905878718E+02 -0.44942396655E+02  0.61093918260E+02  0.00000000000E+00 0. -1.
        -12    1    4    4    0    0  0.25497507735E+02 -0.42521287899E+02 -0.31239569864E+03  0.31630563598E+03  0.00000000000E+00 0.  1.
<mgrwt>
<rscale>  2 0.17810029E+03</rscale>
<asrwt>0</asrwt>
<pdfrwt beam="1">  1       21 0.84841860E-02 0.17953504E+03</pdfrwt>
<pdfrwt beam="2">  1       21 0.98150766E-01 0.17953504E+03</pdfrwt>
<totfact> 0.93443651E+04</totfact>
</mgrwt>
</event>
<event>
12    1  0.1026879E-001  0.2197876E+03  0.7546771E-02  0.1134343E+00
         21   -1    0    0  501  502  0.00000000000E+00  0.00000000000E+00  0.20040860172E+03  0.20040860172E+03  0.00000000000E+00 0.  1.
         21   -1    0    0  502  503 -0.00000000000E+00 -0.00000000000E+00 -0.24561466837E+03  0.24561466837E+03  0.00000000000E+00 0.  1.
         -6    2    1    2    0  503 -0.11299078608E+03 -0.74128054993E+02 -0.58495322837E+02  0.22743854900E+03  0.17333408350E+03 0.  0.
        -24    2    3    3    0    0  0.77416690253E+01 -0.37664711618E+02 -0.46172001845E+02  0.10063217942E+03  0.80724332394E+02 0.  0.
          6    2    1    2  501    0  0.11299078608E+03  0.74128054993E+02  0.13289256191E+02  0.21858472109E+03  0.17129153420E+03 0.  0.
         24    2    5    5    0    0  0.11133576141E+03  0.40092128790E+02  0.65264381145E+02  0.15625746386E+03  0.78446956642E+02 0.  0.
          5    1    5    5  501    0  0.16550246632E+01  0.34035926202E+02 -0.51975124954E+02  0.62327257224E+02  0.47000000000E+01 0. -1.
        -11    1    6    6    0    0  0.88412406626E+02 -0.62541900319E+01  0.52442613202E+02  0.10298590301E+03  0.00000000000E+00 0.  1.
         12    1    6    6    0    0  0.22923354786E+02  0.46346318822E+02  0.12821767944E+02  0.53271560858E+02  0.00000000000E+00 0. -1.
         -5    1    3    3    0  503 -0.12073245510E+03 -0.36463343375E+02 -0.12323320992E+02  0.12680636958E+03  0.47000000000E+01 0.  1.
         13    1    4    4    0    0  0.35862493588E+01 -0.58809357462E+02 -0.11838239929E+02  0.60096136599E+02  0.00000000000E+00 0. -1.
        -14    1    4    4    0    0  0.41554196665E+01  0.21144645844E+02 -0.34333761917E+02  0.40536042824E+02  0.00000000000E+00 0.  1.
<mgrwt>
<rscale>  2 0.21938469E+03</rscale>
<asrwt>0</asrwt>
<pdfrwt beam="1">  1       21 0.30832092E-01 0.21978760E+03</pdfrwt>
<pdfrwt beam="2">  1       21 0.37786872E-01 0.21978760E+03</pdfrwt>
<totfact> 0.67426287E+04</totfact>
</mgrwt>
</event>
<event>
12    1  0.1026879E-001  0.2669069E+03  0.7546771E-02  0.1103256E+00
         21   -1    0    0  501  502  0.00000000000E+00  0.00000000000E+00  0.41276307133E+02  0.41276307133E+02  0.00000000000E+00 0.  1.
         21   -1    0    0  502  503 -0.00000000000E+00 -0.00000000000E+00 -0.22113580908E+04  0.22113580908E+04  0.00000000000E+00 0.  1.
         -6    2    1    2    0  503  0.17264248298E+03 -0.10558313046E+03 -0.16152895910E+04  0.16369773063E+04  0.17199132013E+03 0.  0.
        -24    2    3    3    0    0  0.12914228458E+03 -0.72364705425E+02 -0.74765039333E+03  0.76760074902E+03  0.91188919251E+02 0.  0.
          6    2    1    2  501    0 -0.17264248298E+03  0.10558313046E+03 -0.55479219269E+03  0.61565709165E+03  0.17402888571E+03 0.  0.
         24    2    5    5    0    0 -0.50014289285E+02  0.10477753574E+03 -0.33682608577E+03  0.36551785715E+03  0.81680663022E+02 0.  0.
          5    1    5    5  501    0 -0.12262819369E+03  0.80559472375E+00 -0.21796610692E+03  0.25013923451E+03  0.47000000000E+01 0. -1.
        -11    1    6    6    0    0 -0.62311955056E+02  0.10632367156E+03 -0.26035708703E+03  0.28805089072E+03  0.00000000000E+00 0.  1.
         12    1    6    6    0    0  0.12297665771E+02 -0.15461358265E+01 -0.76468998742E+02  0.77466966431E+02  0.00000000000E+00 0. -1.
         -5    1    3    3    0  503  0.43500198402E+02 -0.33218425035E+02 -0.86763919768E+03  0.86937655729E+03  0.47000000000E+01 0.  1.
         11    1    4    4    0    0  0.17303910450E+02  0.10617205404E+02 -0.25027428190E+03  0.25109632922E+03  0.00000000000E+00 0. -1.
        -12    1    4    4    0    0  0.11183837413E+03 -0.82981910829E+02 -0.49737611143E+03  0.51650441980E+03  0.00000000000E+00 0.  1.
<mgrwt>
<rscale>  2 0.26657524E+03</rscale>
<asrwt>0</asrwt>
<pdfrwt beam="1">  1       21 0.63502009E-02 0.26690687E+03</pdfrwt>
<pdfrwt beam="2">  1       21 0.34020895E+00 0.26690687E+03</pdfrwt>
<totfact> 0.32918470E+03</totfact>
</mgrwt>
</event>
<event>
12    1  0.1026879E-001  0.1771931E+03  0.7546771E-02  0.1170714E+00
         21   -1    0    0  503  502  0.00000000000E+00  0.00000000000E+00  0.28921611161E+02  0.28921611161E+02  0.00000000000E+00 0.  1.
         21   -1    0    0  501  503 -0.00000000000E+00 -0.00000000000E+00 -0.15870296228E+04  0.15870296228E+04  0.00000000000E+00 0.  1.
          6    2    1    2  501    0  0.59663321313E+01  0.37873791160E+02 -0.12340660170E+04  0.12466266965E+04  0.17230544067E+03 0.  0.
         24    2    3    3    0    0 -0.30460769592E+02  0.74962514181E+01 -0.11151934190E+04  0.11185543997E+04  0.80768378176E+02 0.  0.
         -6    2    1    2    0  502 -0.59663321313E+01 -0.37873791160E+02 -0.32404199467E+03  0.36932453751E+03  0.17299531359E+03 0.  0.
        -24    2    5    5    0    0  0.19070171184E+02  0.30774632004E+02 -0.10213436700E+03  0.13564844177E+03  0.81598538157E+02 0.  0.
          5    1    3    3  501    0  0.36427101724E+02  0.30377539742E+02 -0.11887259797E+03  0.12807229680E+03  0.47000000000E+01 0. -1.
        -11    1    4    4    0    0 -0.25289710045E+02 -0.62679591700E+01 -0.10812417251E+04  0.10815556042E+04  0.00000000000E+00 0.  1.
         12    1    4    4    0    0 -0.51710595471E+01  0.13764210588E+02 -0.33951693861E+02  0.36998795466E+02  0.00000000000E+00 0. -1.
         -5    1    5    5    0  502 -0.25036503315E+02 -0.68648423163E+02 -0.22190762767E+03  0.23367609574E+03  0.47000000000E+01 0.  1.
         11    1    6    6    0    0  0.31220306387E+02 -0.20459481872E+00 -0.97096515733E+02  0.10199256227E+03  0.00000000000E+00 0. -1.
        -12    1    6    6    0    0 -0.12150135203E+02  0.30979226822E+02 -0.50378512631E+01  0.33655879506E+02  0.00000000000E+00 0.  1.
<mgrwt>
<rscale>  2 0.17702451E+03</rscale>
<asrwt>0</asrwt>
<pdfrwt beam="1">  1       21 0.44494785E-02 0.17719311E+03</pdfrwt>
<pdfrwt beam="2">  1       21 0.24415841E+00 0.17719311E+03</pdfrwt>
<totfact> 0.23900294E+04</totfact>
</mgrwt>
</event>
<event>
12    1  0.1026879E-001  0.1910820E+03  0.7546771E-02  0.1157515E+00
         21   -1    0    0  503  502  0.00000000000E+00  0.00000000000E+00  0.88872042615E+03  0.88872042615E+03  0.00000000000E+00 0.  1.
         21   -1    0    0  501  503 -0.00000000000E+00 -0.00000000000E+00 -0.50822048725E+02  0.50822048725E+02  0.00000000000E+00 0.  1.
          6    2    1    2  501    0 -0.59879211042E+02  0.55431760344E+02  0.21315344996E+03  0.28626336944E+03  0.17278345836E+03 0.  0.
         24    2    3    3    0    0 -0.35677801478E+02 -0.36078711866E+02  0.12139634146E+03  0.15434926212E+03  0.80697236819E+02 0.  0.
         -6    2    1    2    0  502  0.59879211042E+02 -0.55431760344E+02  0.62474492747E+03  0.65327910544E+03  0.17265330936E+03 0.  0.
        -24    2    5    5    0    0 -0.32359263660E+02 -0.58612621185E+01  0.28364997982E+03  0.29644157403E+03  0.79616703165E+02 0.  0.
          5    1    3    3  501    0 -0.24201409564E+02  0.91510472210E+02  0.91757108499E+02  0.13191410732E+03  0.47000000000E+01 0. -1.
        -13    1    4    4    0    0 -0.12899122232E+01  0.17120101336E+02 -0.28051495745E+00  0.17170918203E+02  0.00000000000E+00 0.  1.
         14    1    4    4    0    0 -0.34387889255E+02 -0.53198813202E+02  0.12167685642E+03  0.13717834392E+03  0.00000000000E+00 0. -1.
         -5    1    5    5    0  502  0.92238474701E+02 -0.49570498225E+02  0.34109494765E+03  0.35683753141E+03  0.47000000000E+01 0.  1.
         11    1    6    6    0    0 -0.47027296933E+01  0.34114275839E+02  0.80494983689E+02  0.87551938195E+02  0.00000000000E+00 0. -1.
        -12    1    6    6    0    0 -0.27656533966E+02 -0.39975537957E+02  0.20315499613E+03  0.20888963584E+03  0.00000000000E+00 0.  1.
<mgrwt>
<rscale>  2 0.19105255E+03</rscale>
<asrwt>0</asrwt>
<pdfrwt beam="1">  1       21 0.13672621E+00 0.19108198E+03</pdfrwt>
<pdfrwt beam="2">  1       21 0.78187774E-02 0.19108198E+03</pdfrwt>
<totfact> 0.47537147E+04</totfact>
</mgrwt>
</event>
<event>
12    1  0.1026879E-001  0.1828259E+03  0.7546771E-02  0.1166075E+00
         21   -1    0    0  501  502  0.00000000000E+00  0.00000000000E+00  0.43369458221E+03  0.43369458221E+03  0.00000000000E+00 0.  1.
         21   -1    0    0  502  503 -0.00000000000E+00 -0.00000000000E+00 -0.14777907865E+03  0.14777907865E+03  0.00000000000E+00 0.  1.
         -6    2    1    2    0  503 -0.37098262411E+02  0.15170754982E+02 -0.59737765876E+02  0.19233797638E+03  0.17837842808E+03 0.  0.
        -24    2    3    3    0    0  0.14124912540E+02 -0.44584925205E+02 -0.26744184802E+00  0.93578853221E+02  0.81053078505E+02 0.  0.
          6    2    1    2  501    0  0.37098262411E+02 -0.15170754982E+02  0.34565326943E+03  0.38913568448E+03  0.17419519336E+03 0.  0.
         24    2    5    5    0    0 -0.19809479669E+02  0.47241611535E+02  0.19298522996E+03  0.21459796684E+03  0.78643518783E+02 0.  0.
          5    1    5    5  501    0  0.56907742080E+02 -0.62412366516E+02  0.15266803947E+03  0.17453771764E+03  0.47000000000E+01 0. -1.
        -13    1    6    6    0    0  0.69314829294E+01  0.30596348701E+02  0.16736780222E+02  0.35557022114E+02  0.00000000000E+00 0.  1.
         14    1    6    6    0    0 -0.26740962598E+02  0.16645262834E+02  0.17624844974E+03  0.17904094473E+03  0.00000000000E+00 0. -1.
         -5    1    3    3    0  503 -0.51223174952E+02  0.59755680187E+02 -0.59470324028E+02  0.98759123157E+02  0.47000000000E+01 0.  1.
         13    1    4    4    0    0  0.14420472355E+02 -0.68087939175E+02  0.38997888422E+01  0.69707430286E+02  0.00000000000E+00 0. -1.
        -14    1    4    4    0    0 -0.29555981522E+00  0.23503013970E+02 -0.41672306902E+01  0.23871422934E+02  0.00000000000E+00 0.  1.
<mgrwt>
<rscale>  2 0.18179744E+03</rscale>
<asrwt>0</asrwt>
<pdfrwt beam="1">  1       21 0.66722243E-01 0.18282586E+03</pdfrwt>
<pdfrwt beam="2">  1       21 0.22735243E-01 0.18282586E+03</pdfrwt>
<totfact> 0.37535652E+04</totfact>
</mgrwt>
</event>
<event>
12    1  0.1026879E-001  0.1838977E+03  0.7546771E-02  0.1164818E+00
         21   -1    0    0  501  502  0.00000000000E+00  0.00000000000E+00  0.72371235783E+02  0.72371235783E+02  0.00000000000E+00 0. -1.
         21   -1    0    0  502  503 -0.00000000000E+00 -0.00000000000E+00 -0.71689262007E+03  0.71689262007E+03  0.00000000000E+00 0. -1.
         -6    2    1    2    0  503 -0.61525560941E+02  0.13857843724E+02 -0.56048954087E+03  0.58988718871E+03  0.17274529081E+03 0.  0.
        -24    2    3    3    0    0 -0.22625056631E+02  0.73219625888E+02 -0.36228788854E+03  0.37930928055E+03  0.82158440395E+02 0.  0.
          6    2    1    2  501    0  0.61525560941E+02 -0.13857843724E+02 -0.84031843413E+02  0.19937666714E+03  0.16944695397E+03 0.  0.
         24    2    5    5    0    0  0.28837301972E+02  0.20057901701E+02  0.15315954993E+02  0.89327245923E+02  0.80689955888E+02 0.  0.
          5    1    5    5  501    0  0.32688258969E+02 -0.33915745425E+02 -0.99347798405E+02  0.11004942122E+03  0.47000000000E+01 0. -1.
        -11    1    6    6    0    0  0.43282834428E+02  0.65124101162E+01 -0.20552620668E+02  0.48355200940E+02  0.00000000000E+00 0.  1.
         12    1    6    6    0    0 -0.14445532456E+02  0.13545491585E+02  0.35868575661E+02  0.40972044983E+02  0.00000000000E+00 0. -1.
         -5    1    3    3    0  503 -0.38900504309E+02 -0.59361782164E+02 -0.19820165233E+03  0.21057790816E+03  0.47000000000E+01 0.  1.
         13    1    4    4    0    0 -0.38925341853E+02  0.27126772786E+02 -0.27673120670E+03  0.28076895270E+03  0.00000000000E+00 0. -1.
        -14    1    4    4    0    0  0.16300285221E+02  0.46092853102E+02 -0.85556681842E+02  0.98540327852E+02  0.00000000000E+00 0.  1.
<mgrwt>
<rscale>  2 0.18311909E+03</rscale>
<asrwt>0</asrwt>
<pdfrwt beam="1">  1       21 0.11134036E-01 0.18389772E+03</pdfrwt>
<pdfrwt beam="2">  1       21 0.11029117E+00 0.18389772E+03</pdfrwt>
<totfact> 0.43725991E+04</totfact>
</mgrwt>
</event>
<event>
12    1  0.1026879E-001  0.1944085E+03  0.7546771E-02  0.1154832E+00
         21   -1    0    0  503  502  0.00000000000E+00  0.00000000000E+00  0.21270552219E+03  0.21270552219E+03  0.00000000000E+00 0.  1.
         21   -1    0    0  501  503 -0.00000000000E+00 -0.00000000000E+00 -0.20586110215E+03  0.20586110215E+03  0.00000000000E+00 0.  1.
          6    2    1    2  501    0  0.22946871035E+02  0.84304164820E+02 -0.75637497795E+02  0.20738443993E+03  0.17220198534E+03 0.  0.
         24    2    3    3    0    0 -0.42691702080E+02  0.15065559812E+02 -0.60775444320E+02  0.11071294807E+03  0.80710282610E+02 0.  0.
         -6    2    1    2    0  502 -0.22946871035E+02 -0.84304164820E+02  0.82481917834E+02  0.21118218442E+03  0.17366892972E+03 0.  0.
        -24    2    5    5    0    0  0.50039149089E+02 -0.30416031956E+02  0.62845607524E+02  0.11823830523E+03  0.81250692284E+02 0.  0.
          5    1    3    3  501    0  0.65638573115E+02  0.69238605008E+02 -0.14862053474E+02  0.96671491855E+02  0.47000000000E+01 0. -1.
        -13    1    4    4    0    0 -0.83177299884E+01  0.45056503560E+02 -0.38978304369E+02  0.60154645346E+02  0.00000000000E+00 0.  1.
         14    1    4    4    0    0 -0.34373972092E+02 -0.29990943748E+02 -0.21797139952E+02  0.50558302724E+02  0.00000000000E+00 0. -1.
         -5    1    5    5    0  502 -0.72986020124E+02 -0.53888132864E+02  0.19636310310E+02  0.92943879194E+02  0.47000000000E+01 0.  1.
         11    1    6    6    0    0  0.50273340352E+01  0.23090672628E+02  0.36573425837E+02  0.43543871295E+02  0.00000000000E+00 0. -1.
        -12    1    6    6    0    0  0.45011815054E+02 -0.53506704585E+02  0.26272181688E+02  0.74694433933E+02  0.00000000000E+00 0.  1.
<mgrwt>
<rscale>  2 0.19408030E+03</rscale>
<asrwt>0</asrwt>
<pdfrwt beam="1">  1       21 0.32723927E-01 0.19440846E+03</pdfrwt>
<pdfrwt beam="2">  1       21 0.31670939E-01 0.19440846E+03</pdfrwt>
<totfact> 0.86090222E+04</totfact>
</mgrwt>
</event>
<event>
12    1  0.1026879E-001  0.1791718E+03  0.7546771E-02  0.1169154E+00
         21   -1    0    0  503  502  0.00000000000E+00  0.00000000000E+00  0.11198345089E+04  0.11198345089E+04  0.00000000000E+00 0.  1.
         21   -1    0    0  501  503 -0.00000000000E+00 -0.00000000000E+00 -0.28901356898E+02  0.28901356898E+02  0.00000000000E+00 0. -1.
          6    2    1    2  501    0 -0.39966475623E+02  0.31007400084E+02  0.46673543776E+03  0.49994449225E+03  0.17188294981E+03 0.  0.
         24    2    3    3    0    0 -0.76876349949E+02  0.63802172970E+02  0.36705262179E+03  0.38860451852E+03  0.79405001036E+02 0.  0.
         -6    2    1    2    0  502  0.39966475623E+02 -0.31007400084E+02  0.62419771423E+03  0.64879137354E+03  0.16955436265E+03 0.  0.
        -24    2    5    5    0    0  0.81251057973E+02 -0.18152074174E+02  0.55651790424E+03  0.56834062572E+03  0.79797599503E+02 0.  0.
          5    1    3    3  501    0  0.36909874326E+02 -0.32794772885E+02  0.99682815965E+02  0.11133997373E+03  0.47000000000E+01 0. -1.
        -11    1    4    4    0    0 -0.23386568153E+02  0.37624793999E+02  0.27778923955E+03  0.28129951707E+03  0.00000000000E+00 0.  1.
         12    1    4    4    0    0 -0.53489781796E+02  0.26177378971E+02  0.89263382245E+02  0.10730500145E+03  0.00000000000E+00 0. -1.
         -5    1    5    5    0  502 -0.41284582350E+02 -0.12855325910E+02  0.67679809992E+02  0.80450747818E+02  0.47000000000E+01 0.  1.
         11    1    6    6    0    0 -0.48964137064E+01  0.53644913201E+01  0.33277323405E+01  0.79891449378E+01  0.00000000000E+00 0. -1.
        -12    1    6    6    0    0  0.86147471679E+02 -0.23516565494E+02  0.55319017190E+03  0.56035148079E+03  0.00000000000E+00 0.  1.
<mgrwt>
<rscale>  2 0.17861099E+03</rscale>
<asrwt>0</asrwt>
<pdfrwt beam="1">  1       21 0.17228220E+00 0.17917178E+03</pdfrwt>
<pdfrwt beam="2">  1       21 0.44463635E-02 0.17917178E+03</pdfrwt>
<totfact> 0.67980092E+04</totfact>
</mgrwt>
</event>
<event>
12    1  0.1026879E-001  0.3250411E+03  0.7546771E-02  0.1073482E+00
         21   -1    0    0  503  502  0.00000000000E+00  0.00000000000E+00  0.31129285732E+03  0.31129285732E+03  0.00000000000E+00 0.  1.
         21   -1    0    0  501  503 -0.00000000000E+00 -0.00000000000E+00 -0.45666264680E+03  0.45666264680E+03  0.00000000000E+00 0. -1.
          6    2    1    2  501    0 -0.18379402758E+03  0.20551695972E+03 -0.26835206561E+03  0.42150275384E+03  0.17214608643E+03 0.  0.
         24    2    3    3    0    0 -0.16196273366E+03  0.13407770779E+03 -0.11782998146E+03  0.25339814377E+03  0.78217363275E+02 0.  0.
         -6    2    1    2    0  502  0.18379402758E+03 -0.20551695972E+03  0.12298227612E+03  0.34645275028E+03  0.16996294486E+03 0.  0.
        -24    2    5    5    0    0  0.12090262372E+03 -0.15823942970E+03  0.15147528000E+03  0.26264084901E+03  0.79864219666E+02 0.  0.
          5    1    3    3  501    0 -0.21831293924E+02  0.71439251936E+02 -0.15052208414E+03  0.16810461007E+03  0.47000000000E+01 0. -1.
        -11    1    4    4    0    0 -0.30440829294E+02  0.45950450977E+02  0.15100830710E+01  0.55139535580E+02  0.00000000000E+00 0.  1.
         12    1    4    4    0    0 -0.13152190436E+03  0.88127256808E+02 -0.11934006453E+03  0.19825860819E+03  0.00000000000E+00 0. -1.
         -5    1    5    5    0  502  0.62891403865E+02 -0.47277530018E+02 -0.28493003874E+02  0.83811901270E+02  0.47000000000E+01 0.  1.
         11    1    6    6    0    0  0.90812955310E+02 -0.74631699987E+02  0.49938171416E+02  0.12771336837E+03  0.00000000000E+00 0. -1.
        -12    1    6    6    0    0  0.30089668406E+02 -0.83607729716E+02  0.10153710858E+03  0.13492748064E+03  0.00000000000E+00 0.  1.
<mgrwt>
<rscale>  2 0.32475302E+03</rscale>
<asrwt>0</asrwt>
<pdfrwt beam="1">  1       21 0.47891209E-01 0.32504114E+03</pdfrwt>
<pdfrwt beam="2">  1       21 0.70255792E-01 0.32504114E+03</pdfrwt>
<totfact> 0.71026029E+03</totfact>
</mgrwt>
</event>
<event>
12    1  0.1026879E-001  0.2468028E+03  0.7546771E-02  0.1115710E+00
         21   -1    0    0  501  502  0.00000000000E+00  0.00000000000E+00  0.68372359968E+03  0.68372359968E+03  0.00000000000E+00 0. -1.
         21   -1    0    0  502  503 -0.00000000000E+00 -0.00000000000E+00 -0.15957385858E+03  0.15957385858E+03  0.00000000000E+00 0.  1.
         -6    2    1    2    0  503  0.13366421174E+02  0.17500301301E+03 -0.20454713255E+02  0.24537970584E+03  0.17025888807E+03 0.  0.
        -24    2    3    3    0    0  0.33803630173E+02  0.21608244755E+02 -0.99119140113E+01  0.90199568401E+02  0.80175522736E+02 0.  0.
          6    2    1    2  501    0 -0.13366421174E+02 -0.17500301301E+03  0.54460445435E+03  0.59791775243E+03  0.17351343231E+03 0.  0.
         24    2    5    5    0    0 -0.44767899048E+02 -0.64403415581E+02  0.16015016971E+03  0.19661299200E+03  0.82804752527E+02 0.  0.
          5    1    5    5  501    0  0.31401477874E+02 -0.11059959742E+03  0.38445428464E+03  0.40130476043E+03  0.47000000000E+01 0. -1.
        -11    1    6    6    0    0 -0.54010412992E+02 -0.79246418692E+02  0.12709049267E+03  0.15921404748E+03  0.00000000000E+00 0.  1.
         12    1    6    6    0    0  0.92425139440E+01  0.14843003111E+02  0.33059677038E+02  0.37398944520E+02  0.00000000000E+00 0. -1.
         -5    1    3    3    0  503 -0.20437208999E+02  0.15339476825E+03 -0.10542799244E+02  0.15518013744E+03  0.47000000000E+01 0.  1.
         13    1    4    4    0    0  0.50405482993E+02  0.12592555297E+02 -0.32089928123E+02  0.61065936918E+02  0.00000000000E+00 0. -1.
        -14    1    4    4    0    0 -0.16601852820E+02  0.90156894582E+01  0.22178014112E+02  0.29133631483E+02  0.00000000000E+00 0.  1.
<mgrwt>
<rscale>  2 0.24623155E+03</rscale>
<asrwt>0</asrwt>
<pdfrwt beam="1">  1       21 0.10518824E+00 0.24680281E+03</pdfrwt>
<pdfrwt beam="2">  1       21 0.24549825E-01 0.24680281E+03</pdfrwt>
<totfact> 0.11021600E+04</totfact>
</mgrwt>
</event>
<event>
12    1  0.1026879E-001  0.2006008E+03  0.7546771E-02  0.1149347E+00
         21   -1    0    0  501  502  0.00000000000E+00  0.00000000000E+00  0.51414981568E+03  0.51414981568E+03  0.00000000000E+00 0. -1.
         21   -1    0    0  502  503 -0.00000000000E+00 -0.00000000000E+00 -0.79030475302E+02  0.79030475302E+02  0.00000000000E+00 0. -1.
         -6    2    1    2    0  503 -0.92557589214E+02 -0.42405594693E+02  0.18491073064E+03  0.27282350814E+03  0.17284544108E+03 0.  0.
        -24    2    3    3    0    0 -0.55018515530E+02  0.33134900942E+02  0.14799276281E+03  0.18062494588E+03  0.81231487228E+02 0.  0.
          6    2    1    2  501    0  0.92557589214E+02  0.42405594693E+02  0.25020860974E+03  0.32035678285E+03  0.17221782180E+03 0.  0.
         24    2    5    5    0    0 -0.20227355322E+01 -0.18146197760E+02  0.71114051407E+02  0.10891197156E+03  0.80443976085E+02 0.  0.
          5    1    5    5  501    0  0.94580324746E+02  0.60551792453E+02  0.17909455833E+03  0.21144481129E+03  0.47000000000E+01 0. -1.
        -13    1    6    6    0    0  0.48791438695E+01 -0.41090349006E+02  0.90131208744E+01  0.42349252345E+02  0.00000000000E+00 0.  1.
         14    1    6    6    0    0 -0.69018794017E+01  0.22944151246E+02  0.62100930532E+02  0.66562719210E+02  0.00000000000E+00 0. -1.
         -5    1    3    3    0  503 -0.37539073684E+02 -0.75540495635E+02  0.36917967829E+02  0.92198562258E+02  0.47000000000E+01 0.  1.
         11    1    4    4    0    0 -0.39650966478E+02 -0.11008079032E+02  0.22919007120E+02  0.47102630861E+02  0.00000000000E+00 0. -1.
        -12    1    4    4    0    0 -0.15367549052E+02  0.44142979973E+02  0.12507375569E+03  0.13352231502E+03  0.00000000000E+00 0.  1.
<mgrwt>
<rscale>  2 0.20046555E+03</rscale>
<asrwt>0</asrwt>
<pdfrwt beam="1">  1       21 0.79099970E-01 0.20060082E+03</pdfrwt>
<pdfrwt beam="2">  1       21 0.12158535E-01 0.20060082E+03</pdfrwt>
<totfact> 0.80589826E+04</totfact>
</mgrwt>
</event>
<event>
12    1  0.1026879E-001  0.2118573E+03  0.7546771E-02  0.1140123E+00
         21   -1    0    0  501  502  0.00000000000E+00  0.00000000000E+00  0.10175487225E+04  0.10175487225E+04  0.00000000000E+00 0.  1.
         21   -1    0    0  502  503 -0.00000000000E+00 -0.00000000000E+00 -0.12162105802E+03  0.12162105802E+03  0.00000000000E+00 0. -1.
         -6    2    1    2    0  503  0.12242547584E+03 -0.11580831428E+02 -0.67714770541E+01  0.21196547903E+03  0.17251492286E+03 0.  0.
        -24    2    3    3    0    0  0.10547603018E+03  0.23470716647E+02 -0.60827349659E+02  0.14518208219E+03  0.75510284333E+02 0.  0.
          6    2    1    2  501    0 -0.12242547584E+03  0.11580831428E+02  0.90269914154E+03  0.92720430149E+03  0.17239479046E+03 0.  0.
         24    2    5    5    0    0 -0.12674260245E+03 -0.22291759850E+02  0.48672851644E+03  0.50980803777E+03  0.80243235393E+02 0.  0.
          5    1    5    5  501    0  0.43171266133E+01  0.33872591277E+02  0.41597062510E+03  0.41739626372E+03  0.47000000000E+01 0. -1.
        -13    1    6    6    0    0 -0.92588186240E+02  0.20952844300E+02  0.34245441080E+03  0.35536828417E+03  0.00000000000E+00 0.  1.
         14    1    6    6    0    0 -0.34154416211E+02 -0.43244604150E+02  0.14427410564E+03  0.15443975360E+03  0.00000000000E+00 0. -1.
         -5    1    3    3    0  503  0.16949445655E+02 -0.35051548075E+02  0.54055872605E+02  0.66783396840E+02  0.47000000000E+01 0.  1.
         13    1    4    4    0    0  0.50850309615E+02 -0.33442464118E+01 -0.66820591982E+02  0.84035287141E+02  0.00000000000E+00 0. -1.
        -14    1    4    4    0    0  0.54625720569E+02  0.26814963059E+02  0.59932423235E+01  0.61146795052E+02  0.00000000000E+00 0.  1.
<mgrwt>
<rscale>  2 0.21183283E+03</rscale>
<asrwt>0</asrwt>
<pdfrwt beam="1">  1       21 0.15654595E+00 0.21185729E+03</pdfrwt>
<pdfrwt beam="2">  1       21 0.18710933E-01 0.21185729E+03</pdfrwt>
<totfact> 0.68689265E+03</totfact>
</mgrwt>
</event>
<event>
12    1  0.1026879E-001  0.1947153E+03  0.7546771E-02  0.1154753E+00
         21   -1    0    0  501  502  0.00000000000E+00  0.00000000000E+00  0.54551064177E+03  0.54551064177E+03  0.00000000000E+00 0. -1.
         21   -1    0    0  502  503 -0.00000000000E+00 -0.00000000000E+00 -0.81654798416E+02  0.81654798416E+02  0.00000000000E+00 0. -1.
         -6    2    1    2    0  503 -0.73019706879E+02  0.45018614134E+02  0.10825828067E+03  0.22278669781E+03  0.17480132774E+03 0.  0.
        -24    2    3    3    0    0 -0.75102056219E+02  0.77712001458E+02  0.12330888351E+03  0.18643006982E+03  0.88722128928E+02 0.  0.
          6    2    1    2  501    0  0.73019706879E+02 -0.45018614134E+02  0.35559756269E+03  0.40437874237E+03  0.17237745642E+03 0.  0.
         24    2    5    5    0    0 -0.24705803235E+02 -0.35074986179E+02  0.16067216936E+03  0.18605066349E+03  0.83418655047E+02 0.  0.
          5    1    5    5  501    0  0.97725510114E+02 -0.99436279543E+01  0.19492539333E+03  0.21832807888E+03  0.47000000000E+01 0. -1.
        -13    1    6    6    0    0 -0.36012701002E+01 -0.10351241719E+02  0.15201724145E+03  0.15241180744E+03  0.00000000000E+00 0.  1.
         14    1    6    6    0    0 -0.21104533135E+02 -0.24723744460E+02  0.86549279136E+01  0.33638856047E+02  0.00000000000E+00 0. -1.
         -5    1    3    3    0  503  0.20823493403E+01 -0.32693387325E+02 -0.15050602839E+02  0.36356627997E+02  0.47000000000E+01 0.  1.
         13    1    4    4    0    0 -0.77190378451E+02  0.47832152172E+02  0.42526539272E+02  0.10027350522E+03  0.00000000000E+00 0. -1.
        -14    1    4    4    0    0  0.20883222317E+01  0.29879849286E+02  0.80782344234E+02  0.86156564597E+02  0.00000000000E+00 0.  1.
<mgrwt>
<rscale>  2 0.19416978E+03</rscale>
<asrwt>0</asrwt>
<pdfrwt beam="1">  1       21 0.83924712E-01 0.19471532E+03</pdfrwt>
<pdfrwt beam="2">  1       21 0.12562277E-01 0.19471532E+03</pdfrwt>
<totfact> 0.66626784E+04</totfact>
</mgrwt>
</event>
<event>
12    1  0.1026879E-001  0.2370277E+03  0.7546771E-02  0.1121827E+00
         21   -1    0    0  503  502  0.00000000000E+00  0.00000000000E+00  0.11212660345E+03  0.11212660345E+03  0.00000000000E+00 0.  1.
         21   -1    0    0  501  503 -0.00000000000E+00 -0.00000000000E+00 -0.11141519269E+04  0.11141519269E+04  0.00000000000E+00 0.  1.
          6    2    1    2  501    0 -0.16062057335E+03  0.74567079837E+01 -0.95591202851E+03  0.98480683275E+03  0.17384510490E+03 0.  0.
         24    2    3    3    0    0 -0.12533087859E+03  0.69042509132E+02 -0.61013051980E+03  0.63178400739E+03  0.80106701358E+02 0.  0.
         -6    2    1    2    0  502  0.16062057335E+03 -0.74567079837E+01 -0.46113294925E+02  0.24147169760E+03  0.17414813721E+03 0.  0.
        -24    2    5    5    0    0  0.66949640086E+02  0.10738456351E+01  0.44498968719E+02  0.11078242334E+03  0.76217974597E+02 0.  0.
          5    1    3    3  501    0 -0.35289694762E+02 -0.61585801148E+02 -0.34578150871E+03  0.35302282536E+03  0.47000000000E+01 0. -1.
        -11    1    4    4    0    0 -0.76880613383E+02  0.35821255525E+01 -0.37871644226E+03  0.38645776480E+03  0.00000000000E+00 0.  1.
         12    1    4    4    0    0 -0.48450265205E+02  0.65460383579E+02 -0.23141407755E+03  0.24532624259E+03  0.00000000000E+00 0. -1.
         -5    1    5    5    0  502  0.93670933263E+02 -0.85305536188E+01 -0.90612263644E+02  0.13068927426E+03  0.47000000000E+01 0.  1.
         11    1    6    6    0    0  0.65479047144E+02  0.26558137384E+02  0.15859512985E+02  0.72417984150E+02  0.00000000000E+00 0. -1.
        -12    1    6    6    0    0  0.14705929423E+01 -0.25484291749E+02  0.28639455734E+02  0.38364439189E+02  0.00000000000E+00 0.  1.
<mgrwt>
<rscale>  2 0.23697207E+03</rscale>
<asrwt>0</asrwt>
<pdfrwt beam="1">  1       21 0.17250247E-01 0.23702773E+03</pdfrwt>
<pdfrwt beam="2">  1       21 0.17140799E+00 0.23702773E+03</pdfrwt>
<totfact> 0.61169365E+03</totfact>
</mgrwt>
</event>
<event>
12    1  0.1026879E-001  0.2147621E+03  0.7546771E-02  0.1139402E+00
         21   -1    0    0  501  502  0.00000000000E+00  0.00000000000E+00  0.76163826601E+03  0.76163826601E+03  0.00000000000E+00 0.  1.
         21   -1    0    0  502  503 -0.00000000000E+00 -0.00000000000E+00 -0.12216292232E+03  0.12216292232E+03  0.00000000000E+00 0.  1.
         -6    2    1    2    0  503  0.66521940100E+02 -0.91699453712E+02 -0.24896093922E+01  0.20686562021E+03  0.17307000995E+03 0.  0.
        -24    2    3    3    0    0  0.39450116255E+02 -0.21224402398E+02  0.58027168494E+02  0.10999463947E+03  0.82005374816E+02 0.  0.
          6    2    1    2  501    0 -0.66521940100E+02  0.91699453712E+02  0.64196495308E+03  0.67693556812E+03  0.18245219671E+03 0.  0.
         24    2    5    5    0    0  0.14417325429E+02  0.10082342678E+03  0.44956055708E+03  0.46794764218E+03  0.80604458214E+02 0.  0.
          5    1    5    5  501    0 -0.80939265528E+02 -0.91239730673E+01  0.19240439600E+03  0.20898792594E+03  0.47000000000E+01 0. -1.
        -13    1    6    6    0    0 -0.17871894537E+02  0.75969639673E+02  0.19317477783E+03  0.20834415172E+03  0.00000000000E+00 0.  1.
         14    1    6    6    0    0  0.32289219965E+02  0.24853787106E+02  0.25638577925E+03  0.25960349046E+03  0.00000000000E+00 0. -1.
         -5    1    3    3    0  503  0.27071823845E+02 -0.70475051314E+02 -0.60516777886E+02  0.96870980741E+02  0.47000000000E+01 0.  1.
         11    1    4    4    0    0  0.54416303279E+02  0.91180930681E+01  0.19024618004E+02  0.58362743030E+02  0.00000000000E+00 0. -1.
        -12    1    4    4    0    0 -0.14966187024E+02 -0.30342495466E+02  0.39002550490E+02  0.51631896439E+02  0.00000000000E+00 0.  1.
<mgrwt>
<rscale>  2 0.21275631E+03</rscale>
<asrwt>0</asrwt>
<pdfrwt beam="1">  1       21 0.11717512E+00 0.21476211E+03</pdfrwt>
<pdfrwt beam="2">  1       21 0.18794296E-01 0.21476211E+03</pdfrwt>
<totfact> 0.14303988E+04</totfact>
</mgrwt>
</event>
<event>
11    1  0.1026879E-001  0.2546747E+03  0.7546771E-02  0.1111043E+00
         21   -1    0    0  503  502  0.00000000000E+00  0.00000000000E+00  0.91247231979E+02  0.91247231979E+02  0.00000000000E+00 0.  1.
         21   -1    0    0  501  503 -0.00000000000E+00 -0.00000000000E+00 -0.69907627441E+03  0.69907627441E+03  0.00000000000E+00 0.  1.
          6    2    1    2  501    0 -0.16457894998E+03  0.74743255856E+02 -0.30547349694E+03  0.39771000343E+03  0.17940569785E+03 0.  0.
         -6    2    1    2    0  502  0.16457894998E+03 -0.74743255856E+02 -0.30235554549E+03  0.39261350296E+03  0.17336003504E+03 0.  0.
        -24    2    4    4    0    0  0.35951992650E+02  0.37193621606E+01 -0.17077113647E+03  0.19251896712E+03  0.81205863206E+02 0.  0.
          5    1    3    3  501    0 -0.28635855505E+01  0.54174179373E+02 -0.78823440373E+02  0.95803270221E+02  0.47000000000E+01 0. -1.
        -13    1    3    3    0    0 -0.62621631089E+02  0.48991752999E+02 -0.40767031942E+02  0.89351057272E+02  0.00000000000E+00 0.  1.
         14    1    3    3    0    0 -0.99093733338E+02 -0.28422676516E+02 -0.18588302463E+03  0.21255567593E+03  0.00000000000E+00 0. -1.
         -5    1    4    4    0  502  0.12862695733E+03 -0.78462618016E+02 -0.13158440902E+03  0.20009453584E+03  0.47000000000E+01 0.  1.
         11    1    5    5    0    0  0.18589398973E+02  0.24920520119E+02 -0.15299481296E+02  0.34650717238E+02  0.00000000000E+00 0. -1.
        -12    1    5    5    0    0  0.17362593677E+02 -0.21201157959E+02 -0.15547165518E+03  0.15786824988E+03  0.00000000000E+00 0.  1.
<mgrwt>
<rscale>  2 0.25361252E+03</rscale>
<asrwt>0</asrwt>
<pdfrwt beam="1">  1       21 0.14038036E-01 0.25467467E+03</pdfrwt>
<pdfrwt beam="2">  1       21 0.10755020E+00 0.25467467E+03</pdfrwt>
<totfact> 0.29539087E+04</totfact>
</mgrwt>
</event>
<event>
12    1  0.1026879E-001  0.1890332E+03  0.7546771E-02  0.1160134E+00
         21   -1    0    0  503  502  0.00000000000E+00  0.00000000000E+00  0.23958155669E+03  0.23958155669E+03  0.00000000000E+00 0. -1.
         21   -1    0    0  501  503 -0.00000000000E+00 -0.00000000000E+00 -0.16862224735E+03  0.16862224735E+03  0.00000000000E+00 0. -1.
          6    2    1    2  501    0  0.46221569076E+02  0.47667448060E+02  0.10925560395E+03  0.21533038806E+03  0.17326791387E+03 0.  0.
         24    2    3    3    0    0  0.94020608762E+02  0.28840222227E+02  0.35959619702E+02  0.12570001411E+03  0.69539672188E+02 0.  0.
         -6    2    1    2    0  502 -0.46221569076E+02 -0.47667448060E+02 -0.38296294613E+02  0.19287341598E+03  0.17698850064E+03 0.  0.
        -24    2    5    5    0    0  0.35137556341E+02 -0.44575264533E+02 -0.48508623623E+02  0.11068308473E+03  0.81707139260E+02 0.  0.
          5    1    3    3  501    0 -0.47799039686E+02  0.18827225833E+02  0.73295984250E+02  0.89630373951E+02  0.47000000000E+01 0. -1.
        -13    1    4    4    0    0  0.19209550654E+02 -0.22236898208E+02  0.13692949119E+02  0.32418873111E+02  0.00000000000E+00 0.  1.
         14    1    4    4    0    0  0.74811058108E+02  0.51077120435E+02  0.22266670583E+02  0.93281140999E+02  0.00000000000E+00 0. -1.
         -5    1    5    5    0  502 -0.81359125417E+02 -0.30921835274E+01  0.10212329010E+02  0.82190331253E+02  0.47000000000E+01 0.  1.
         13    1    6    6    0    0  0.11674145322E+01 -0.57623457711E+02 -0.46816774323E+02  0.74253862481E+02  0.00000000000E+00 0. -1.
        -14    1    6    6    0    0  0.33970141809E+02  0.13048193178E+02 -0.16918492993E+01  0.36429222250E+02  0.00000000000E+00 0.  1.
<mgrwt>
<rscale>  2 0.18815740E+03</rscale>
<asrwt>0</asrwt>
<pdfrwt beam="1">  1       21 0.36858701E-01 0.18903319E+03</pdfrwt>
<pdfrwt beam="2">  1       21 0.25941884E-01 0.18903319E+03</pdfrwt>
<totfact> 0.10031976E+05</totfact>
</mgrwt>
</event>
<event>
12    1  0.1026879E-001  0.1872550E+03  0.7546771E-02  0.1161101E+00
         21   -1    0    0  503  502  0.00000000000E+00  0.00000000000E+00  0.14555671066E+03  0.14555671066E+03  0.00000000000E+00 0.  1.
         21   -1    0    0  501  503 -0.00000000000E+00 -0.00000000000E+00 -0.28514757330E+03  0.28514757330E+03  0.00000000000E+00 0.  1.
          6    2    1    2  501    0 -0.54508689338E+02  0.45735240267E+02 -0.15547350629E+03  0.24338539577E+03  0.17320949831E+03 0.  0.
         24    2    3    3    0    0 -0.31219916076E+02 -0.26963978300E+02 -0.13975955627E+03  0.16530491444E+03  0.78046408518E+02 0.  0.
         -6    2    1    2    0  502  0.54508689338E+02 -0.45735240267E+02  0.15882643651E+02  0.18731888819E+03  0.17254911790E+03 0.  0.
        -24    2    5    5    0    0  0.64660620264E+02  0.29417991289E+02  0.29268524041E+02  0.11016746754E+03  0.78954482961E+02 0.  0.
          5    1    3    3  501    0 -0.23288773262E+02  0.72699218568E+02 -0.15713950013E+02  0.78080481334E+02  0.47000000000E+01 0. -1.
        -11    1    4    4    0    0 -0.37238573633E+02 -0.21550030893E+02 -0.24006119105E+02  0.49268742142E+02  0.00000000000E+00 0.  1.
         12    1    4    4    0    0  0.60186575568E+01 -0.54139474076E+01 -0.11575343717E+03  0.11603617230E+03  0.00000000000E+00 0. -1.
         -5    1    5    5    0  502 -0.10151930926E+02 -0.75153231556E+02 -0.13385880390E+02  0.77151420653E+02  0.47000000000E+01 0.  1.
         11    1    6    6    0    0  0.34232774584E+02  0.47016144870E+02 -0.82670895096E+01  0.58743046424E+02  0.00000000000E+00 0. -1.
        -12    1    6    6    0    0  0.30427845680E+02 -0.17598153582E+02  0.37535613550E+02  0.51424421113E+02  0.00000000000E+00 0.  1.
<mgrwt>
<rscale>  2 0.18710216E+03</rscale>
<asrwt>0</asrwt>
<pdfrwt beam="1">  1       21 0.22393340E-01 0.18725501E+03</pdfrwt>
<pdfrwt beam="2">  1       21 0.43868858E-01 0.18725501E+03</pdfrwt>
<totfact> 0.93396820E+04</totfact>
</mgrwt>
</event>
<event>
12    1  0.1026879E-001  0.2497418E+03  0.7546771E-02  0.1113572E+00
         21   -1    0    0  503  502  0.00000000000E+00  0.00000000000E+00  0.89077283085E+03  0.89077283085E+03  0.00000000000E+00 0. -1.
         21   -1    0    0  501  503 -0.00000000000E+00 -0.00000000000E+00 -0.69834499559E+02  0.69834499559E+02  0.00000000000E+00 0. -1.
          6    2    1    2  501    0 -0.16909462115E+03 -0.62660960742E+02  0.41048893764E+03  0.48049153260E+03  0.17277603443E+03 0.  0.
         24    2    3    3    0    0 -0.18835805492E+03 -0.56805472084E+02  0.40829344461E+03  0.45970026477E+03  0.76910194426E+02 0.  0.
         -6    2    1    2    0  502  0.16909462115E+03  0.62660960742E+02  0.41044939365E+03  0.48011579781E+03  0.17182283800E+03 0.  0.
        -24    2    5    5    0    0  0.12700329150E+03  0.92419642508E+02  0.38115253061E+03  0.42063760554E+03  0.83591370528E+02 0.  0.
          5    1    3    3  501    0  0.19263433773E+02 -0.58554886582E+01  0.21954930280E+01  0.20791267826E+02  0.47000000000E+01 0. -1.
        -13    1    4    4    0    0 -0.12200270834E+03 -0.15353439798E+02  0.31372630117E+03  0.33696376809E+03  0.00000000000E+00 0.  1.
         14    1    4    4    0    0 -0.66355346578E+02 -0.41452032287E+02  0.94567143441E+02  0.12273649669E+03  0.00000000000E+00 0. -1.
         -5    1    5    5    0  502  0.42091329650E+02 -0.29758681766E+02  0.29296863032E+02  0.59478192270E+02  0.47000000000E+01 0.  1.
         11    1    6    6    0    0  0.56081727236E+02  0.96920128379E+01  0.21134995364E+03  0.21887872931E+03  0.00000000000E+00 0. -1.
        -12    1    6    6    0    0  0.70921564259E+02  0.82727629670E+02  0.16980257698E+03  0.20175887623E+03  0.00000000000E+00 0.  1.
<mgrwt>
<rscale>  2 0.24957697E+03</rscale>
<asrwt>0</asrwt>
<pdfrwt beam="1">  1       21 0.13704197E+00 0.24974176E+03</pdfrwt>
<pdfrwt beam="2">  1       21 0.10743770E-01 0.24974176E+03</pdfrwt>
<totfact> 0.26155973E+04</totfact>
</mgrwt>
</event>
<event>
12    1  0.1026879E-001  0.1801982E+03  0.7546771E-02  0.1167830E+00
         21   -1    0    0  501  502  0.00000000000E+00  0.00000000000E+00  0.12443305280E+03  0.12443305280E+03  0.00000000000E+00 0. -1.
         21   -1    0    0  502  503 -0.00000000000E+00 -0.00000000000E+00 -0.28367660284E+03  0.28367660284E+03  0.00000000000E+00 0. -1.
         -6    2    1    2    0  503 -0.48236129009E+02 -0.13353846778E+02 -0.13882184077E+03  0.22675799433E+03  0.17217036666E+03 0.  0.
        -24    2    3    3    0    0  0.27341522637E+02  0.30034853194E+02 -0.83401677100E+02  0.12337499160E+03  0.81338167806E+02 0.  0.
          6    2    1    2  501    0  0.48236129009E+02  0.13353846778E+02 -0.20421709270E+02  0.18135166130E+03  0.17310785506E+03 0.  0.
         24    2    5    5    0    0 -0.45863525163E+02  0.25835276782E+02 -0.30386222489E+02  0.85790620423E+02  0.60545714701E+02 0.  0.
          5    1    5    5  501    0  0.94099654172E+02 -0.12481430004E+02  0.99645132186E+01  0.95561040879E+02  0.47000000000E+01 0. -1.
        -13    1    6    6    0    0 -0.20217147600E+01  0.28992704205E+02 -0.30090556208E+02  0.41834265867E+02  0.00000000000E+00 0.  1.
         14    1    6    6    0    0 -0.43841810403E+02 -0.31574274235E+01 -0.29566628056E+00  0.43956354556E+02  0.00000000000E+00 0. -1.
         -5    1    3    3    0  503 -0.75577651647E+02 -0.43388699972E+02 -0.55420163668E+02  0.10338300274E+03  0.47000000000E+01 0.  1.
         11    1    4    4    0    0 -0.15472096927E+02  0.28656452622E+02 -0.35501227131E+01  0.32759447973E+02  0.00000000000E+00 0. -1.
        -12    1    4    4    0    0  0.42813619565E+02  0.13784005716E+01 -0.79851554387E+02  0.90615543625E+02  0.00000000000E+00 0.  1.
<mgrwt>
<rscale>  2 0.17997264E+03</rscale>
<asrwt>0</asrwt>
<pdfrwt beam="1">  1       21 0.19143547E-01 0.18019817E+03</pdfrwt>
<pdfrwt beam="2">  1       21 0.43642553E-01 0.18019817E+03</pdfrwt>
<totfact> 0.12691339E+05</totfact>
</mgrwt>
</event>
<event>
12    1  0.1026879E-001  0.1866727E+03  0.7546771E-02  0.1161782E+00
         21   -1    0    0  503  502  0.00000000000E+00  0.00000000000E+00  0.69722927201E+03  0.69722927201E+03  0.00000000000E+00 0. -1.
         21   -1    0    0  501  503 -0.00000000000E+00 -0.00000000000E+00 -0.10539210118E+03  0.10539210118E+03  0.00000000000E+00 0. -1.
          6    2    1    2  501    0  0.59592493890E+02 -0.36745577152E+02  0.58823290087E+03  0.61714232539E+03  0.17304681839E+03 0.  0.
         24    2    3    3    0    0 -0.12549456197E+02  0.15128019404E+02  0.15734611036E+03  0.17716409046E+03  0.79012471669E+02 0.  0.
         -6    2    1    2    0  502 -0.59592493890E+02  0.36745577152E+02  0.36042699618E+01  0.18547904781E+03  0.17172065585E+03 0.  0.
        -24    2    5    5    0    0 -0.82445964560E+02  0.74262892109E+02 -0.15384680678E+02  0.13739058464E+03  0.79543510933E+02 0.  0.
          5    1    3    3  501    0  0.72141950087E+02 -0.51873596556E+02  0.43088679050E+03  0.43997823493E+03  0.47000000000E+01 0. -1.
        -11    1    4    4    0    0  0.53238352833E+01 -0.22550125184E+02  0.12280564420E+02  0.26223341328E+02  0.00000000000E+00 0.  1.
         12    1    4    4    0    0 -0.17873291480E+02  0.37678144588E+02  0.14506554594E+03  0.15094074913E+03  0.00000000000E+00 0. -1.
         -5    1    5    5    0  502  0.22853470670E+02 -0.37517314957E+02  0.18988950640E+02  0.48088463166E+02  0.47000000000E+01 0.  1.
         13    1    6    6    0    0 -0.77074744471E+02  0.83419356241E+02  0.57702314333E+01  0.11372159338E+03  0.00000000000E+00 0. -1.
        -14    1    6    6    0    0 -0.53712200886E+01 -0.91564641319E+01 -0.21154912111E+02  0.23668991256E+02  0.00000000000E+00 0.  1.
<mgrwt>
<rscale>  2 0.18636478E+03</rscale>
<asrwt>0</asrwt>
<pdfrwt beam="1">  1       21 0.10726604E+00 0.18667272E+03</pdfrwt>
<pdfrwt beam="2">  1       21 0.16214170E-01 0.18667272E+03</pdfrwt>
<totfact> 0.23702119E+04</totfact>
</mgrwt>
</event>
<event>
12    1  0.1026879E-001  0.1859183E+03  0.7546771E-02  0.1162254E+00
         21   -1    0    0  503  502  0.00000000000E+00  0.00000000000E+00  0.53884075511E+03  0.53884075511E+03  0.00000000000E+00 0.  1.
         21   -1    0    0  501  503 -0.00000000000E+00 -0.00000000000E+00 -0.87294596576E+02  0.87294596576E+02  0.00000000000E+00 0.  1.
          6    2    1    2  501    0  0.63177783799E+02 -0.21427721696E+02  0.64374872161E+02  0.19674789513E+03  0.17353682735E+03 0.  0.
         24    2    3    3    0    0  0.42721751193E+02  0.41082751756E+02 -0.62048487414E+01  0.10015806355E+03  0.80499670990E+02 0.  0.
         -6    2    1    2    0  502 -0.63177783799E+02  0.21427721696E+02  0.38717128638E+03  0.42938745656E+03  0.17326685556E+03 0.  0.
        -24    2    5    5    0    0 -0.86658771754E+02 -0.34226237458E+02  0.29946134181E+03  0.32278612289E+03  0.76371511966E+02 0.  0.
          5    1    3    3  501    0  0.20456032606E+02 -0.62510473452E+02  0.70579720903E+02  0.96589831576E+02  0.47000000000E+01 0. -1.
        -11    1    4    4    0    0 -0.11370965242E+02 -0.57251202302E+01 -0.23353409167E+02  0.26598074590E+02  0.00000000000E+00 0.  1.
         12    1    4    4    0    0  0.54092716435E+02  0.46807871986E+02  0.17148560425E+02  0.73559988961E+02  0.00000000000E+00 0. -1.
         -5    1    5    5    0  502  0.23480987954E+02  0.55653959154E+02  0.87709944565E+02  0.10660133367E+03  0.47000000000E+01 0.  1.
         13    1    6    6    0    0 -0.37566438678E+02 -0.18901420747E+01  0.33383251839E+02  0.50291663875E+02  0.00000000000E+00 0. -1.
        -14    1    6    6    0    0 -0.49092333075E+02 -0.32336095383E+02  0.26607808997E+03  0.27249445902E+03  0.00000000000E+00 0.  1.
<mgrwt>
<rscale>  2 0.18585526E+03</rscale>
<asrwt>0</asrwt>
<pdfrwt beam="1">  1       21 0.82898575E-01 0.18591829E+03</pdfrwt>
<pdfrwt beam="2">  1       21 0.13429938E-01 0.18591829E+03</pdfrwt>
<totfact> 0.61002461E+04</totfact>
</mgrwt>
</event>
<event>
12    1  0.1026879E-001  0.1758369E+03  0.7546771E-02  0.1172280E+00
         21   -1    0    0  501  502  0.00000000000E+00  0.00000000000E+00  0.39487897047E+03  0.39487897047E+03  0.00000000000E+00 0. -1.
         21   -1    0    0  502  503 -0.00000000000E+00 -0.00000000000E+00 -0.14760761893E+03  0.14760761893E+03  0.00000000000E+00 0. -1.
         -6    2    1    2    0  503 -0.20462391016E+02  0.58093619545E+01 -0.63428914370E+02  0.18548058743E+03  0.17299526872E+03 0.  0.
        -24    2    3    3    0    0  0.20764907469E+02 -0.31386601515E+02 -0.87993488758E+02  0.12458117730E+03  0.79757855643E+02 0.  0.
          6    2    1    2  501    0  0.20462391016E+02 -0.58093619545E+01  0.31070026591E+03  0.35700600198E+03  0.17454561605E+03 0.  0.
         24    2    5    5    0    0  0.42002460567E+02  0.46539012251E+02  0.26246081139E+03  0.28248444905E+03  0.83556568183E+02 0.  0.
          5    1    5    5  501    0 -0.21540069551E+02 -0.52348374206E+02  0.48239454520E+02  0.74521552927E+02  0.47000000000E+01 0. -1.
        -13    1    6    6    0    0  0.60021940029E+02  0.67112266180E+01  0.14072810803E+03  0.15314070079E+03  0.00000000000E+00 0.  1.
         14    1    6    6    0    0 -0.18019479462E+02  0.39827785633E+02  0.12173270336E+03  0.12934374827E+03  0.00000000000E+00 0. -1.
         -5    1    3    3    0  503 -0.41227298485E+02  0.37195963470E+02  0.24564574388E+02  0.60899410126E+02  0.47000000000E+01 0.  1.
         11    1    4    4    0    0  0.77511426741E+01  0.17820456975E+02 -0.66585675543E+02  0.69363542925E+02  0.00000000000E+00 0. -1.
        -12    1    4    4    0    0  0.13013764795E+02 -0.49207058490E+02 -0.21407813215E+02  0.55217634375E+02  0.00000000000E+00 0.  1.
<mgrwt>
<rscale>  2 0.17545096E+03</rscale>
<asrwt>0</asrwt>
<pdfrwt beam="1">  1       21 0.60750610E-01 0.17583694E+03</pdfrwt>
<pdfrwt beam="2">  1       21 0.22708865E-01 0.17583694E+03</pdfrwt>
<totfact> 0.46248306E+04</totfact>
</mgrwt>
</event>
<event>
12    1  0.1026879E-001  0.1755172E+03  0.7546771E-02  0.1173304E+00
         21   -1    0    0  501  502  0.00000000000E+00  0.00000000000E+00  0.11013444714E+04  0.11013444714E+04  0.00000000000E+00 0. -1.
         21   -1    0    0  502  503 -0.00000000000E+00 -0.00000000000E+00 -0.27444864480E+02  0.27444864480E+02  0.00000000000E+00 0. -1.
         -6    2    1    2    0  503 -0.34500394200E+01 -0.31770430428E+02  0.50119855141E+03  0.53104264487E+03  0.17258342827E+03 0.  0.
        -24    2    3    3    0    0  0.76790240813E+01  0.74353703935E+00  0.99590900508E+02  0.12793991677E+03  0.79942195253E+02 0.  0.
          6    2    1    2  501    0  0.34500394200E+01  0.31770430428E+02  0.57270105551E+03  0.59774669101E+03  0.16820625616E+03 0.  0.
         24    2    5    5    0    0  0.45515831828E+01 -0.43387092106E+02  0.29207490766E+03  0.30719034286E+03  0.84587223578E+02 0.  0.
          5    1    5    5  501    0 -0.11015437628E+01  0.75157522534E+02  0.28062614785E+03  0.29055634815E+03  0.47000000000E+01 0. -1.
        -13    1    6    6    0    0 -0.13029926431E+02 -0.24289174558E+02  0.20433347794E+02  0.34311290935E+02  0.00000000000E+00 0.  1.
         14    1    6    6    0    0  0.17581509613E+02 -0.19097917547E+02  0.27164155987E+03  0.27287905193E+03  0.00000000000E+00 0. -1.
         -5    1    3    3    0  503 -0.11129063501E+02 -0.32513967467E+02  0.40160765090E+03  0.40310272810E+03  0.47000000000E+01 0.  1.
         13    1    4    4    0    0 -0.79071722760E+01 -0.37634654878E+02  0.54609732235E+02  0.66791567401E+02  0.00000000000E+00 0. -1.
        -14    1    4    4    0    0  0.15586196357E+02  0.38378191917E+02  0.44981168273E+02  0.61148349372E+02  0.00000000000E+00 0.  1.
<mgrwt>
<rscale>  2 0.17443168E+03</rscale>
<asrwt>0</asrwt>
<pdfrwt beam="1">  1       21 0.16943758E+00 0.17551724E+03</pdfrwt>
<pdfrwt beam="2">  1       21 0.42222877E-02 0.17551724E+03</pdfrwt>
<totfact> 0.77782313E+04</totfact>
</mgrwt>
</event>
<event>
12    1  0.1026879E-001  0.2281987E+03  0.7546771E-02  0.1128128E+00
         21   -1    0    0  503  502  0.00000000000E+00  0.00000000000E+00  0.56454444168E+02  0.56454444168E+02  0.00000000000E+00 0.  1.
         21   -1    0    0  501  503 -0.00000000000E+00 -0.00000000000E+00 -0.95371506136E+03  0.95371506136E+03  0.00000000000E+00 0.  1.
          6    2    1    2  501    0  0.14458550101E+03 -0.11018401770E+02 -0.54581867700E+03  0.59113957916E+03  0.17464707729E+03 0.  0.
         24    2    3    3    0    0  0.53264165514E+02 -0.55990958653E+02 -0.38521191051E+03  0.40093247984E+03  0.79916072303E+02 0.  0.
         -6    2    1    2    0  502 -0.14458550101E+03  0.11018401770E+02 -0.35144194019E+03  0.41902992637E+03  0.17620519171E+03 0.  0.
        -24    2    5    5    0    0 -0.17797863407E+02 -0.11846545597E+02 -0.75512133873E+02  0.11446916251E+03  0.83330679940E+02 0.  0.
          5    1    3    3  501    0  0.91321335495E+02  0.44972556883E+02 -0.16060676649E+03  0.19020709932E+03  0.47000000000E+01 0. -1.
        -13    1    4    4    0    0 -0.19975288664E+01 -0.35314558891E+02 -0.26137651717E+03  0.26375896557E+03  0.00000000000E+00 0.  1.
         14    1    4    4    0    0  0.55261694381E+02 -0.20676399762E+02 -0.12383539334E+03  0.13717351427E+03  0.00000000000E+00 0. -1.
         -5    1    5    5    0  502 -0.12678763760E+03  0.22864947367E+02 -0.27592980632E+03  0.30456076386E+03  0.47000000000E+01 0.  1.
         11    1    6    6    0    0 -0.45816286818E+01 -0.36149031939E+02 -0.26526149036E+01  0.36534643796E+02  0.00000000000E+00 0. -1.
        -12    1    6    6    0    0 -0.13216234725E+02  0.24302486342E+02 -0.72859518969E+02  0.77934518714E+02  0.00000000000E+00 0.  1.
<mgrwt>
<rscale>  2 0.22789786E+03</rscale>
<asrwt>0</asrwt>
<pdfrwt beam="1">  1       21 0.86852998E-02 0.22819869E+03</pdfrwt>
<pdfrwt beam="2">  1       21 0.14672538E+00 0.22819869E+03</pdfrwt>
<totfact> 0.32250054E+04</totfact>
</mgrwt>
</event>
<event>
12    1  0.1026879E-001  0.1870089E+03  0.7546771E-02  0.1161282E+00
         21   -1    0    0  503  502  0.00000000000E+00  0.00000000000E+00  0.18096891484E+03  0.18096891484E+03  0.00000000000E+00 0. -1.
         21   -1    0    0  501  503 -0.00000000000E+00 -0.00000000000E+00 -0.19387059423E+03  0.19387059423E+03  0.00000000000E+00 0. -1.
          6    2    1    2  501    0 -0.38511492171E+02  0.58830590526E+02 -0.20232160240E+02  0.18810012145E+03  0.17328630059E+03 0.  0.
         24    2    3    3    0    0 -0.18596039122E+02  0.10526656065E+03 -0.31131433956E+01  0.13454570680E+03  0.81645539346E+02 0.  0.
         -6    2    1    2    0  502  0.38511492171E+02 -0.58830590526E+02  0.73304808453E+01  0.18673938762E+03  0.17284006922E+03 0.  0.
        -24    2    5    5    0    0 -0.45651733940E+02 -0.34741925188E+02  0.51268957936E+01  0.99042989664E+02  0.80573857817E+02 0.  0.
          5    1    3    3  501    0 -0.19915453049E+02 -0.46435970119E+02 -0.17119016845E+02  0.53554414652E+02  0.47000000000E+01 0. -1.
        -13    1    4    4    0    0  0.29841630818E+02  0.36973243212E+02  0.13049635603E+02  0.49273082234E+02  0.00000000000E+00 0.  1.
         14    1    4    4    0    0 -0.48437669940E+02  0.68293317433E+02 -0.16162778998E+02  0.85272624565E+02  0.00000000000E+00 0. -1.
         -5    1    5    5    0  502  0.84163226111E+02 -0.24088665338E+02  0.22035850517E+01  0.87696397955E+02  0.47000000000E+01 0.  1.
         11    1    6    6    0    0 -0.24423641605E+02 -0.54762654133E+02  0.23675308755E+02  0.64466912456E+02  0.00000000000E+00 0. -1.
        -12    1    6    6    0    0 -0.21228092335E+02  0.20020728945E+02 -0.18548412962E+02  0.34576077208E+02  0.00000000000E+00 0.  1.
<mgrwt>
<rscale>  2 0.18690543E+03</rscale>
<asrwt>0</asrwt>
<pdfrwt beam="1">  1       21 0.27841372E-01 0.18700886E+03</pdfrwt>
<pdfrwt beam="2">  1       21 0.29826245E-01 0.18700886E+03</pdfrwt>
<totfact> 0.13301035E+05</totfact>
</mgrwt>
</event>
<event>
12    1  0.1026879E-001  0.2054309E+03  0.7546771E-02  0.1145835E+00
         21   -1    0    0  503  502  0.00000000000E+00  0.00000000000E+00  0.27147737082E+03  0.27147737082E+03  0.00000000000E+00 0. -1.
         21   -1    0    0  501  503 -0.00000000000E+00 -0.00000000000E+00 -0.19936523795E+03  0.19936523795E+03  0.00000000000E+00 0. -1.
          6    2    1    2  501    0  0.82319304811E+02  0.69469070588E+02 -0.77361211512E+02  0.21678721982E+03  0.17149204623E+03 0.  0.
         24    2    3    3    0    0  0.10837712679E+03  0.24154294559E+02 -0.87430923401E+02  0.16334633556E+03  0.81907432005E+02 0.  0.
         -6    2    1    2    0  502 -0.82319304811E+02 -0.69469070588E+02  0.14947334438E+03  0.25405538895E+03  0.17492695693E+03 0.  0.
        -24    2    5    5    0    0 -0.10376165468E+03 -0.65928549619E+02  0.16976848815E+03  0.22395069633E+03  0.78863934598E+02 0.  0.
          5    1    3    3  501    0 -0.26057821981E+02  0.45314776029E+02  0.10069711889E+02  0.53440884260E+02  0.47000000000E+01 0. -1.
        -13    1    4    4    0    0 -0.15515351481E+01  0.22726156722E+02  0.16271782203E+00  0.22779638667E+02  0.00000000000E+00 0.  1.
         14    1    4    4    0    0  0.10992866194E+03  0.14281378363E+01 -0.87593641223E+02  0.14056669690E+03  0.00000000000E+00 0. -1.
         -5    1    5    5    0  502  0.21442349873E+02 -0.35405209686E+01 -0.20295143772E+02  0.30104692617E+02  0.47000000000E+01 0.  1.
         13    1    6    6    0    0 -0.95844453998E+02 -0.31917253579E+02  0.84121922589E+02  0.13145861820E+03  0.00000000000E+00 0. -1.
        -14    1    6    6    0    0 -0.79172006866E+01 -0.34011296040E+02  0.85646565559E+02  0.92492078132E+02  0.00000000000E+00 0.  1.
<mgrwt>
<rscale>  2 0.20469778E+03</rscale>
<asrwt>0</asrwt>
<pdfrwt beam="1">  1       21 0.41765749E-01 0.20543091E+03</pdfrwt>
<pdfrwt beam="2">  1       21 0.30671575E-01 0.20543091E+03</pdfrwt>
<totfact> 0.55982030E+04</totfact>
</mgrwt>
</event>
<event>
12    1  0.1026879E-001  0.2078458E+03  0.7546771E-02  0.1144457E+00
         21   -1    0    0  501  502  0.00000000000E+00  0.00000000000E+00  0.27955975162E+03  0.27955975162E+03  0.00000000000E+00 0.  1.
         21   -1    0    0  502  503 -0.00000000000E+00 -0.00000000000E+00 -0.20067696304E+03  0.20067696304E+03  0.00000000000E+00 0.  1.
         -6    2    1    2    0  503  0.13980120628E+02  0.11489436489E+03 -0.81301294484E+02  0.21782711101E+03  0.16565805429E+03 0.  0.
        -24    2    3    3    0    0  0.27573972210E+02 -0.27605981639E+01 -0.43641305855E+02  0.93457308104E+02  0.77857305475E+02 0.  0.
          6    2    1    2  501    0 -0.13980120628E+02 -0.11489436489E+03  0.16018408306E+03  0.26240960365E+03  0.17263748366E+03 0.  0.
         24    2    5    5    0    0  0.34453845662E+02 -0.87974124628E+02  0.16848123689E+03  0.20618255333E+03  0.72102732455E+02 0.  0.
          5    1    5    5  501    0 -0.48433966290E+02 -0.26920240262E+02 -0.82971538290E+01  0.56227050323E+02  0.47000000000E+01 0. -1.
        -11    1    6    6    0    0  0.21882499839E+02 -0.82047091317E+02  0.80158905367E+02  0.11677336641E+03  0.00000000000E+00 0.  1.
         12    1    6    6    0    0  0.12571345823E+02 -0.59270333105E+01  0.88322331524E+02  0.89409186919E+02  0.00000000000E+00 0. -1.
         -5    1    3    3    0  503 -0.13593851582E+02  0.11765496305E+03 -0.37659988629E+02  0.12436980291E+03  0.47000000000E+01 0.  1.
         11    1    4    4    0    0  0.44266258872E+02 -0.85689751944E+01  0.13612706385E+01  0.45108558702E+02  0.00000000000E+00 0. -1.
        -12    1    4    4    0    0 -0.16692286662E+02  0.58083770306E+01 -0.45002576493E+02  0.48348749402E+02  0.00000000000E+00 0.  1.
<mgrwt>
<rscale>  2 0.20639061E+03</rscale>
<asrwt>0</asrwt>
<pdfrwt beam="1">  1       21 0.43009193E-01 0.20784576E+03</pdfrwt>
<pdfrwt beam="2">  1       21 0.30873379E-01 0.20784576E+03</pdfrwt>
<totfact> 0.51998296E+04</totfact>
</mgrwt>
</event>
<event>
12    1  0.1026879E-001  0.2138273E+03  0.7546771E-02  0.1138817E+00
         21   -1    0    0  503  502  0.00000000000E+00  0.00000000000E+00  0.34778337627E+03  0.34778337627E+03  0.00000000000E+00 0.  1.
         21   -1    0    0  501  503 -0.00000000000E+00 -0.00000000000E+00 -0.23325554026E+03  0.23325554026E+03  0.00000000000E+00 0. -1.
          6    2    1    2  501    0  0.42670271538E+02  0.11737267726E+03 -0.13547965323E+03  0.25206192066E+03  0.17199819176E+03 0.  0.
         24    2    3    3    0    0 -0.83277663225E+01  0.13274647824E+03 -0.11817480912E+03  0.19585959641E+03  0.81882335197E+02 0.  0.
         -6    2    1    2    0  502 -0.42670271538E+02 -0.11737267726E+03  0.25000748924E+03  0.32897699586E+03  0.17356561205E+03 0.  0.
        -24    2    5    5    0    0 -0.73638219018E+02 -0.28606730811E+02  0.98701978862E+02  0.15078088341E+03  0.82169713538E+02 0.  0.
          5    1    3    3  501    0  0.50998037861E+02 -0.15373800981E+02 -0.17304844110E+02  0.56202324257E+02  0.47000000000E+01 0. -1.
        -13    1    4    4    0    0 -0.11734705172E+02  0.13062778711E+03 -0.12921461674E+03  0.18411338694E+03  0.00000000000E+00 0.  1.
         14    1    4    4    0    0  0.34069388499E+01  0.21186911294E+01  0.11039807624E+02  0.11746209466E+02  0.00000000000E+00 0. -1.
         -5    1    5    5    0  502  0.30967947480E+02 -0.88765946448E+02  0.15130551038E+03  0.17819611245E+03  0.47000000000E+01 0.  1.
         11    1    6    6    0    0 -0.76418144520E+02 -0.43259989405E+02  0.10291047580E+03  0.13528387016E+03  0.00000000000E+00 0. -1.
        -12    1    6    6    0    0  0.27799255016E+01  0.14653258595E+02 -0.42084969400E+01  0.15497013252E+02  0.00000000000E+00 0.  1.
<mgrwt>
<rscale>  2 0.21350902E+03</rscale>
<asrwt>0</asrwt>
<pdfrwt beam="1">  1       21 0.53505135E-01 0.21382731E+03</pdfrwt>
<pdfrwt beam="2">  1       21 0.35885468E-01 0.21382731E+03</pdfrwt>
<totfact> 0.24460762E+04</totfact>
</mgrwt>
</event>
<event>
12    1  0.1026879E-001  0.1906758E+03  0.7546771E-02  0.1157983E+00
         21   -1    0    0  503  502  0.00000000000E+00  0.00000000000E+00  0.15748133942E+04  0.15748133942E+04  0.00000000000E+00 0. -1.
         21   -1    0    0  501  503 -0.00000000000E+00 -0.00000000000E+00 -0.85384117248E+02  0.85384117248E+02  0.00000000000E+00 0. -1.
          6    2    1    2  501    0  0.46010165190E+02  0.64374676521E+02  0.35572789961E+02  0.19396567179E+03  0.17348263362E+03 0.  0.
         24    2    3    3    0    0 -0.12110659268E+02  0.94644882235E+02  0.27249634739E+02  0.12774120122E+03  0.80442215865E+02 0.  0.
         -6    2    1    2    0  502 -0.46010165190E+02 -0.64374676521E+02  0.14538564870E+04  0.14662318397E+04  0.17284700920E+03 0.  0.
        -24    2    5    5    0    0  0.86828689717E+01  0.23204368220E+02  0.51978266967E+03  0.52645665204E+03  0.79804435148E+02 0.  0.
          5    1    3    3  501    0  0.58120824457E+02 -0.30270205714E+02  0.83231552222E+01  0.66224470571E+02  0.47000000000E+01 0. -1.
        -13    1    4    4    0    0  0.12892766922E+02 -0.21880322655E+01  0.24409710331E+02  0.27691964224E+02  0.00000000000E+00 0.  1.
         14    1    4    4    0    0 -0.25003426190E+02  0.96832914501E+02  0.28399244073E+01  0.10004923699E+03  0.00000000000E+00 0. -1.
         -5    1    5    5    0  502 -0.54693034161E+02 -0.87579044741E+02  0.93407381734E+03  0.93977518764E+03  0.47000000000E+01 0.  1.
         13    1    6    6    0    0  0.26723972908E+02  0.43769001311E+02  0.41520721493E+03  0.41836219658E+03  0.00000000000E+00 0. -1.
        -14    1    6    6    0    0 -0.18041103936E+02 -0.20564633090E+02  0.10457545475E+03  0.10809445546E+03  0.00000000000E+00 0.  1.
<mgrwt>
<rscale>  2 0.19053110E+03</rscale>
<asrwt>0</asrwt>
<pdfrwt beam="1">  1       21 0.24227896E+00 0.19067579E+03</pdfrwt>
<pdfrwt beam="2">  1       21 0.13136019E-01 0.19067579E+03</pdfrwt>
<totfact> 0.36919723E+03</totfact>
</mgrwt>
</event>
<event>
12    1  0.1026879E-001  0.1969627E+03  0.7546771E-02  0.1152335E+00
         21   -1    0    0  501  502  0.00000000000E+00  0.00000000000E+00  0.67890693492E+03  0.67890693492E+03  0.00000000000E+00 0. -1.
         21   -1    0    0  502  503 -0.00000000000E+00 -0.00000000000E+00 -0.74483876944E+02  0.74483876944E+02  0.00000000000E+00 0. -1.
         -6    2    1    2    0  503 -0.55641103830E+02  0.68306412799E+02  0.48400923552E+03  0.52253633553E+03  0.17611809510E+03 0.  0.
        -24    2    3    3    0    0 -0.62762047947E+02  0.45116675443E+02  0.15091948480E+03  0.18853132989E+03  0.82418337711E+02 0.  0.
          6    2    1    2  501    0  0.55641103830E+02 -0.68306412799E+02  0.12041382246E+03  0.23085447633E+03  0.17616072814E+03 0.  0.
         24    2    5    5    0    0  0.67030616218E+02 -0.11084756712E+03  0.96956592934E+02  0.18073659110E+03  0.80528552723E+02 0.  0.
          5    1    5    5  501    0 -0.11389512388E+02  0.42541154317E+02  0.23457229524E+02  0.50117885230E+02  0.47000000000E+01 0. -1.
        -11    1    6    6    0    0 -0.16039327651E+01 -0.50334264013E+01 -0.12607057532E+02  0.13669158031E+02  0.00000000000E+00 0.  1.
         12    1    6    6    0    0  0.68634548983E+02 -0.10581414071E+03  0.10956365047E+03  0.16706743307E+03  0.00000000000E+00 0. -1.
         -5    1    3    3    0  503  0.71209441168E+01  0.23189737356E+02  0.33308975071E+03  0.33400500564E+03  0.47000000000E+01 0.  1.
         13    1    4    4    0    0 -0.46191835374E+02  0.64150799822E+02  0.14053428352E+03  0.16124173038E+03  0.00000000000E+00 0. -1.
        -14    1    4    4    0    0 -0.16570212572E+02 -0.19034124379E+02  0.10385201289E+02  0.27289599510E+02  0.00000000000E+00 0.  1.
<mgrwt>
<rscale>  2 0.19695316E+03</rscale>
<asrwt>0</asrwt>
<pdfrwt beam="1">  1       21 0.10444722E+00 0.19696269E+03</pdfrwt>
<pdfrwt beam="2">  1       21 0.11459058E-01 0.19696269E+03</pdfrwt>
<totfact> 0.47043225E+04</totfact>
</mgrwt>
</event>
<event>
12    1  0.1026879E-001  0.1874301E+03  0.7546771E-02  0.1161529E+00
         21   -1    0    0  503  502  0.00000000000E+00  0.00000000000E+00  0.44455987198E+03  0.44455987198E+03  0.00000000000E+00 0. -1.
         21   -1    0    0  501  503 -0.00000000000E+00 -0.00000000000E+00 -0.84605429237E+02  0.84605429237E+02  0.00000000000E+00 0. -1.
          6    2    1    2  501    0  0.60917123211E+02 -0.91948787342E+01  0.25695921675E+03  0.31805358077E+03  0.17701581701E+03 0.  0.
         24    2    3    3    0    0 -0.29167449184E+02 -0.13142917629E+02  0.78644613890E+02  0.11818110946E+03  0.82209019961E+02 0.  0.
         -6    2    1    2    0  502 -0.60917123211E+02  0.91948787342E+01  0.10299522599E+03  0.21111172045E+03  0.17367987862E+03 0.  0.
        -24    2    5    5    0    0  0.40227722065E+01  0.34444926420E+02  0.10911286397E+03  0.14100986299E+03  0.82313599879E+02 0.  0.
          5    1    3    3  501    0  0.90084572395E+02  0.39480388952E+01  0.17831460286E+03  0.19987247131E+03  0.47000000000E+01 0. -1.
        -11    1    4    4    0    0 -0.13873579574E+02 -0.48023386054E+02  0.41307269037E+02  0.64846066139E+02  0.00000000000E+00 0.  1.
         12    1    4    4    0    0 -0.15293869609E+02  0.34880468425E+02  0.37337344852E+02  0.53335043319E+02  0.00000000000E+00 0. -1.
         -5    1    5    5    0  502 -0.64939895418E+02 -0.25250047686E+02 -0.61176379732E+01  0.70101857460E+02  0.47000000000E+01 0.  1.
         11    1    6    6    0    0 -0.37400693988E+02  0.35646587731E+01  0.48959063456E+02  0.61713115279E+02  0.00000000000E+00 0. -1.
        -12    1    6    6    0    0  0.41423466195E+02  0.30880267647E+02  0.60153800510E+02  0.79296747710E+02  0.00000000000E+00 0.  1.
<mgrwt>
<rscale>  2 0.18663826E+03</rscale>
<asrwt>0</asrwt>
<pdfrwt beam="1">  1       21 0.68393825E-01 0.18743010E+03</pdfrwt>
<pdfrwt beam="2">  1       21 0.13016220E-01 0.18743010E+03</pdfrwt>
<totfact> 0.99098809E+04</totfact>
</mgrwt>
</event>
<event>
12    1  0.1026879E-001  0.1818869E+03  0.7546771E-02  0.1166028E+00
         21   -1    0    0  503  502  0.00000000000E+00  0.00000000000E+00  0.14004161553E+03  0.14004161553E+03  0.00000000000E+00 0.  1.
         21   -1    0    0  501  503 -0.00000000000E+00 -0.00000000000E+00 -0.24076766854E+03  0.24076766854E+03  0.00000000000E+00 0.  1.
          6    2    1    2  501    0 -0.86061662289E+01 -0.57882568036E+02 -0.77112369154E+02  0.19755801691E+03  0.17221612813E+03 0.  0.
         24    2    3    3    0    0 -0.70105587446E+02 -0.54900506348E+02 -0.46097826086E+02  0.12845618347E+03  0.80293975580E+02 0.  0.
         -6    2    1    2    0  502  0.86061662289E+01  0.57882568036E+02 -0.23613683855E+02  0.18325126717E+03  0.17204349181E+03 0.  0.
        -24    2    5    5    0    0 -0.36695138750E+02  0.85664347734E+02 -0.35589824864E+02  0.12857445792E+03  0.81116224733E+02 0.  0.
          5    1    3    3  501    0  0.61499421217E+02 -0.29820616879E+01 -0.31014543068E+02  0.69101833431E+02  0.47000000000E+01 0. -1.
        -13    1    4    4    0    0 -0.15396304514E+01 -0.50573043872E+02 -0.13236525383E+02  0.52299224016E+02  0.00000000000E+00 0.  1.
         14    1    4    4    0    0 -0.68565956994E+02 -0.43274624755E+01 -0.32861300703E+02  0.76156959458E+02  0.00000000000E+00 0. -1.
         -5    1    5    5    0  502  0.45301304979E+02 -0.27781779698E+02  0.11976141009E+02  0.54676809247E+02  0.47000000000E+01 0.  1.
         11    1    6    6    0    0 -0.29535326101E+02 -0.60579154153E+01 -0.17339003492E+02  0.34780380521E+02  0.00000000000E+00 0. -1.
        -12    1    6    6    0    0 -0.71598126487E+01  0.91722263149E+02 -0.18250821373E+02  0.93794077399E+02  0.00000000000E+00 0.  1.
<mgrwt>
<rscale>  2 0.18184605E+03</rscale>
<asrwt>0</asrwt>
<pdfrwt beam="1">  1       21 0.21544864E-01 0.18188692E+03</pdfrwt>
<pdfrwt beam="2">  1       21 0.37041180E-01 0.18188692E+03</pdfrwt>
<totfact> 0.14163348E+05</totfact>
</mgrwt>
</event>
<event>
12    1  0.1026879E-001  0.2226711E+03  0.7546771E-02  0.1131933E+00
         21   -1    0    0  501  502  0.00000000000E+00  0.00000000000E+00  0.61549302435E+03  0.61549302435E+03  0.00000000000E+00 0.  1.
         21   -1    0    0  502  503 -0.00000000000E+00 -0.00000000000E+00 -0.12684920648E+03  0.12684920648E+03  0.00000000000E+00 0. -1.
         -6    2    1    2    0  503 -0.82587238870E+02 -0.11238357871E+03  0.19928006983E+02  0.22342323744E+03  0.17340731466E+03 0.  0.
        -24    2    3    3    0    0 -0.91868773734E+02 -0.65399527110E+02  0.69404745837E+02  0.15440377872E+03  0.79413716733E+02 0.  0.
          6    2    1    2  501    0  0.82587238870E+02  0.11238357871E+03  0.46871581089E+03  0.51891899339E+03  0.17358481943E+03 0.  0.
         24    2    5    5    0    0 -0.13551884622E+02  0.63012207241E+02  0.30629924499E+03  0.32377419007E+03  0.82802818988E+02 0.  0.
          5    1    5    5  501    0  0.96139123492E+02  0.49371371466E+02  0.16241656590E+03  0.19514480332E+03  0.47000000000E+01 0. -1.
        -13    1    6    6    0    0  0.14769554339E+02  0.26246098924E+01  0.59991388469E+01  0.16156050860E+02  0.00000000000E+00 0.  1.
         14    1    6    6    0    0 -0.28321438961E+02  0.60387597349E+02  0.30030010614E+03  0.30761813921E+03  0.00000000000E+00 0. -1.
         -5    1    3    3    0  503  0.92815348634E+01 -0.46984051598E+02 -0.49476738855E+02  0.69019458717E+02  0.47000000000E+01 0.  1.
         11    1    4    4    0    0 -0.10395026947E+02 -0.51673625719E+02  0.41868332988E+02  0.67314021477E+02  0.00000000000E+00 0. -1.
        -12    1    4    4    0    0 -0.81473746786E+02 -0.13725901391E+02  0.27536412849E+02  0.87089757245E+02  0.00000000000E+00 0.  1.
<mgrwt>
<rscale>  2 0.22263649E+03</rscale>
<asrwt>0</asrwt>
<pdfrwt beam="1">  1       21 0.94691232E-01 0.22267108E+03</pdfrwt>
<pdfrwt beam="2">  1       21 0.19515263E-01 0.22267108E+03</pdfrwt>
<totfact> 0.22163985E+04</totfact>
</mgrwt>
</event>
<event>
12    1  0.1026879E-001  0.1796415E+03  0.7546771E-02  0.1168363E+00
         21   -1    0    0  503  502  0.00000000000E+00  0.00000000000E+00  0.13485693177E+04  0.13485693177E+04  0.00000000000E+00 0. -1.
         21   -1    0    0  501  503 -0.00000000000E+00 -0.00000000000E+00 -0.49234450226E+02  0.49234450226E+02  0.00000000000E+00 0.  1.
          6    2    1    2  501    0 -0.82469591670E+01  0.41794850035E+02  0.14823393316E+03  0.23290423025E+03  0.17451721894E+03 0.  0.
         24    2    3    3    0    0 -0.28387151920E+02 -0.30205507798E+02  0.34928326225E+02  0.97073712863E+02  0.80530209615E+02 0.  0.
         -6    2    1    2    0  502  0.82469591670E+01 -0.41794850035E+02  0.11511009344E+04  0.11648995377E+04  0.17361667564E+03 0.  0.
        -24    2    5    5    0    0  0.56857440228E+01 -0.85646519186E+02  0.55955560764E+03  0.57170691109E+03  0.79866515014E+02 0.  0.
          5    1    3    3  501    0  0.20140192753E+02  0.72000357834E+02  0.11330560693E+03  0.13583051739E+03  0.47000000000E+01 0. -1.
        -13    1    4    4    0    0  0.20052059773E+02  0.71708752618E+01 -0.75455576127E+01  0.22592963348E+02  0.00000000000E+00 0.  1.
         14    1    4    4    0    0 -0.48439211693E+02 -0.37376383060E+02  0.42473883837E+02  0.74480749515E+02  0.00000000000E+00 0. -1.
         -5    1    5    5    0  502  0.25612151443E+01  0.43851669151E+02  0.59154532672E+03  0.59319262662E+03  0.47000000000E+01 0.  1.
         11    1    6    6    0    0  0.30552986108E+02 -0.29469117564E+02  0.37040637158E+03  0.37283078462E+03  0.00000000000E+00 0. -1.
        -12    1    6    6    0    0 -0.24867242085E+02 -0.56177401622E+02  0.18914923606E+03  0.19887612648E+03  0.00000000000E+00 0.  1.
<mgrwt>
<rscale>  2 0.17942245E+03</rscale>
<asrwt>0</asrwt>
<pdfrwt beam="1">  1       21 0.20747217E+00 0.17964154E+03</pdfrwt>
<pdfrwt beam="2">  1       21 0.75745318E-02 0.17964154E+03</pdfrwt>
<totfact> 0.16052192E+04</totfact>
</mgrwt>
</event>
<event>
12    1  0.1026879E-001  0.1890017E+03  0.7546771E-02  0.1159702E+00
         21   -1    0    0  503  502  0.00000000000E+00  0.00000000000E+00  0.43272569773E+03  0.43272569773E+03  0.00000000000E+00 0.  1.
         21   -1    0    0  501  503 -0.00000000000E+00 -0.00000000000E+00 -0.91649928831E+02  0.91649928831E+02  0.00000000000E+00 0. -1.
          6    2    1    2  501    0  0.29318089924E+02 -0.70189014782E+02  0.85645277961E+02  0.20750121060E+03  0.17301904684E+03 0.  0.
         24    2    3    3    0    0 -0.31720765196E+02 -0.66943216227E+02  0.98062344051E+01  0.10998235309E+03  0.80699161175E+02 0.  0.
         -6    2    1    2    0  502 -0.29318089924E+02  0.70189014782E+02  0.25543049094E+03  0.31687441596E+03  0.17140190080E+03 0.  0.
        -24    2    5    5    0    0  0.13469510885E+02 -0.17591696490E+02  0.15491802379E+03  0.17665644954E+03  0.81957376491E+02 0.  0.
          5    1    3    3  501    0  0.61038855120E+02 -0.32457985549E+01  0.75839043556E+02  0.97518857510E+02  0.47000000000E+01 0. -1.
        -11    1    4    4    0    0 -0.29732062352E+01 -0.68524409326E+02  0.29951434542E+02  0.74843323416E+02  0.00000000000E+00 0.  1.
         12    1    4    4    0    0 -0.28747558961E+02  0.15811930991E+01 -0.20145200137E+02  0.35139029673E+02  0.00000000000E+00 0. -1.
         -5    1    5    5    0  502 -0.42787600809E+02  0.87780711272E+02  0.10051246715E+03  0.14021796642E+03  0.47000000000E+01 0.  1.
         11    1    6    6    0    0  0.21266515595E+01 -0.18112089394E+02 -0.28695031019E+01  0.18460890475E+02  0.00000000000E+00 0. -1.
        -12    1    6    6    0    0  0.11342859326E+02  0.52039290340E+00  0.15778752689E+03  0.15819555907E+03  0.00000000000E+00 0.  1.
<mgrwt>
<rscale>  2 0.18863078E+03</rscale>
<asrwt>0</asrwt>
<pdfrwt beam="1">  1       21 0.66573183E-01 0.18900169E+03</pdfrwt>
<pdfrwt beam="2">  1       21 0.14099989E-01 0.18900169E+03</pdfrwt>
<totfact> 0.90939297E+04</totfact>
</mgrwt>
</event>
<event>
12    1  0.1026879E-001  0.1782228E+03  0.7546771E-02  0.1169557E+00
         21   -1    0    0  503  502  0.00000000000E+00  0.00000000000E+00  0.47114352076E+02  0.47114352076E+02  0.00000000000E+00 0. -1.
         21   -1    0    0  501  503 -0.00000000000E+00 -0.00000000000E+00 -0.79354399398E+03  0.79354399398E+03  0.00000000000E+00 0. -1.
          6    2    1    2  501    0 -0.30669442478E+02 -0.31689713237E+02 -0.53639725648E+03  0.56520059438E+03  0.17258285692E+03 0.  0.
         24    2    3    3    0    0  0.45612441982E+02 -0.42018302978E+02 -0.29457473601E+03  0.31137816221E+03  0.79599322620E+02 0.  0.
         -6    2    1    2    0  502  0.30669442478E+02  0.31689713237E+02 -0.21003238543E+03  0.27545775168E+03  0.17268039091E+03 0.  0.
        -24    2    5    5    0    0  0.56973124377E+02 -0.38158836287E+02 -0.11563473950E+03  0.15502640564E+03  0.77199480428E+02 0.  0.
          5    1    3    3  501    0 -0.76281884460E+02  0.10328589741E+02 -0.24182252047E+03  0.25382243217E+03  0.47000000000E+01 0. -1.
        -13    1    4    4    0    0  0.22219074564E+02  0.97123125511E+00 -0.13377650719E+02  0.25953652988E+02  0.00000000000E+00 0.  1.
         14    1    4    4    0    0  0.23393367418E+02 -0.42989534234E+02 -0.28119708529E+03  0.28542450922E+03  0.00000000000E+00 0. -1.
         -5    1    5    5    0  502 -0.26303681899E+02  0.69848549524E+02 -0.94397645929E+02  0.12043134604E+03  0.47000000000E+01 0.  1.
         13    1    6    6    0    0  0.75462206828E+02 -0.23612575260E+02 -0.96099026926E+02  0.12444726331E+03  0.00000000000E+00 0. -1.
        -14    1    6    6    0    0 -0.18489082451E+02 -0.14546261027E+02 -0.19535712574E+02  0.30579142328E+02  0.00000000000E+00 0.  1.
<mgrwt>
<rscale>  2 0.17819918E+03</rscale>
<asrwt>0</asrwt>
<pdfrwt beam="1">  1       21 0.72483624E-02 0.17822281E+03</pdfrwt>
<pdfrwt beam="2">  1       21 0.12208368E+00 0.17822281E+03</pdfrwt>
<totfact> 0.72558414E+04</totfact>
</mgrwt>
</event>
<event>
12    1  0.1026879E-001  0.1787578E+03  0.7546771E-02  0.1169174E+00
         21   -1    0    0  503  502  0.00000000000E+00  0.00000000000E+00  0.63355285951E+03  0.63355285951E+03  0.00000000000E+00 0. -1.
         21   -1    0    0  501  503 -0.00000000000E+00 -0.00000000000E+00 -0.93459612287E+02  0.93459612287E+02  0.00000000000E+00 0.  1.
          6    2    1    2  501    0  0.39072994741E+02  0.11890062838E+02  0.23146841515E+02  0.18025020999E+03  0.17402956477E+03 0.  0.
         24    2    3    3    0    0  0.71421143609E+02 -0.29161963036E+01 -0.33703733085E+02  0.11302145217E+03  0.80798657612E+02 0.  0.
         -6    2    1    2    0  502 -0.39072994741E+02 -0.11890062838E+02  0.51694640570E+03  0.54676226181E+03  0.17334160509E+03 0.  0.
        -24    2    5    5    0    0 -0.51216532674E+02 -0.46287596552E+02  0.48992980529E+03  0.50112628327E+03  0.79565462718E+02 0.  0.
          5    1    3    3  501    0 -0.32348148868E+02  0.14806259142E+02  0.56850574600E+02  0.67228757815E+02  0.47000000000E+01 0. -1.
        -13    1    4    4    0    0  0.31013071469E+02  0.34619556073E+02 -0.34466460227E+02  0.57864161147E+02  0.00000000000E+00 0.  1.
         14    1    4    4    0    0  0.40408072140E+02 -0.37535752376E+02  0.76272714258E+00  0.55157291025E+02  0.00000000000E+00 0. -1.
         -5    1    5    5    0  502  0.12143537934E+02  0.34397533714E+02  0.27016600411E+02  0.45635978536E+02  0.47000000000E+01 0.  1.
         13    1    6    6    0    0  0.14812634644E+00 -0.52742633718E+02  0.21586635310E+03  0.22221631298E+03  0.00000000000E+00 0. -1.
        -14    1    6    6    0    0 -0.51364659021E+02  0.64550371667E+01  0.27406345220E+03  0.27890997030E+03  0.00000000000E+00 0.  1.
<mgrwt>
<rscale>  2 0.17859017E+03</rscale>
<asrwt>0</asrwt>
<pdfrwt beam="1">  1       21 0.97469668E-01 0.17875783E+03</pdfrwt>
<pdfrwt beam="2">  1       21 0.14378402E-01 0.17875783E+03</pdfrwt>
<totfact> 0.37227068E+04</totfact>
</mgrwt>
</event>
<event>
12    1  0.1026879E-001  0.1885142E+03  0.7546771E-02  0.1159829E+00
         21   -1    0    0  503  502  0.00000000000E+00  0.00000000000E+00  0.26246359321E+03  0.26246359321E+03  0.00000000000E+00 0.  1.
         21   -1    0    0  501  503 -0.00000000000E+00 -0.00000000000E+00 -0.15551825543E+03  0.15551825543E+03  0.00000000000E+00 0.  1.
          6    2    1    2  501    0  0.38750827681E+02  0.67611535774E+02 -0.21806584342E+02  0.18977123306E+03  0.17165269401E+03 0.  0.
         24    2    3    3    0    0  0.72860616935E+02  0.92138857443E+02 -0.31865952527E+02  0.14631610541E+03  0.81207913534E+02 0.  0.
         -6    2    1    2    0  502 -0.38750827681E+02 -0.67611535774E+02  0.12875192212E+03  0.22821061557E+03  0.17155197811E+03 0.  0.
        -24    2    5    5    0    0  0.30319333700E+01  0.32087268873E+02  0.87789207398E+02  0.11251409545E+03  0.62559502049E+02 0.  0.
          5    1    3    3  501    0 -0.34109789254E+02 -0.24527321669E+02  0.10059368185E+02  0.43455127654E+02  0.47000000000E+01 0. -1.
        -11    1    4    4    0    0  0.21139667254E+02  0.57733206099E+02  0.20769978541E+02  0.64895305120E+02  0.00000000000E+00 0.  1.
         12    1    4    4    0    0  0.51720949680E+02  0.34405651344E+02 -0.52635931068E+02  0.81420800289E+02  0.00000000000E+00 0. -1.
         -5    1    5    5    0  502 -0.41782761051E+02 -0.99698804647E+02  0.40962714726E+02  0.11569652012E+03  0.47000000000E+01 0.  1.
         11    1    6    6    0    0  0.16347391273E+02  0.27745518188E+02  0.10360394467E+02  0.33828815446E+02  0.00000000000E+00 0. -1.
        -12    1    6    6    0    0 -0.13315457903E+02  0.43417506855E+01  0.77428812931E+02  0.78685280009E+02  0.00000000000E+00 0.  1.
<mgrwt>
<rscale>  2 0.18849124E+03</rscale>
<asrwt>0</asrwt>
<pdfrwt beam="1">  1       21 0.40379014E-01 0.18851417E+03</pdfrwt>
<pdfrwt beam="2">  1       21 0.23925886E-01 0.18851417E+03</pdfrwt>
<totfact> 0.97477352E+04</totfact>
</mgrwt>
</event>
<event>
12    1  0.1026879E-001  0.2311029E+03  0.7546771E-02  0.1126717E+00
         21   -1    0    0  501  502  0.00000000000E+00  0.00000000000E+00  0.11027017554E+03  0.11027017554E+03  0.00000000000E+00 0.  1.
         21   -1    0    0  502  503 -0.00000000000E+00 -0.00000000000E+00 -0.71402739588E+03  0.71402739588E+03  0.00000000000E+00 0. -1.
         -6    2    1    2    0  503 -0.14611356742E+03 -0.95789995217E+01 -0.54278670939E+03  0.58993725397E+03  0.17879491022E+03 0.  0.
        -24    2    3    3    0    0 -0.54765432944E+02 -0.61589397034E+02 -0.19222072688E+03  0.22392064067E+03  0.79994618588E+02 0.  0.
          6    2    1    2  501    0  0.14611356742E+03  0.95789995217E+01 -0.60970510956E+02  0.23436031745E+03  0.17252948552E+03 0.  0.
         24    2    5    5    0    0  0.49207910682E+02 -0.46476529196E+02 -0.19581776769E+01  0.10772116835E+03  0.83776663876E+02 0.  0.
          5    1    5    5  501    0  0.96905656733E+02  0.56055528718E+02 -0.59012333279E+02  0.12663914910E+03  0.47000000000E+01 0. -1.
        -13    1    6    6    0    0  0.59434416434E+02 -0.59835867641E+02  0.12847162198E+02  0.85310201557E+02  0.00000000000E+00 0.  1.
         14    1    6    6    0    0 -0.10226505752E+02  0.13359338445E+02 -0.14805339875E+02  0.22410966788E+02  0.00000000000E+00 0. -1.
         -5    1    3    3    0  503 -0.91348134471E+02  0.52010397513E+02 -0.35056598251E+03  0.36601661330E+03  0.47000000000E+01 0.  1.
         11    1    4    4    0    0 -0.59159074538E+02 -0.42992021419E+02 -0.19128564481E+03  0.20478844674E+03  0.00000000000E+00 0. -1.
        -12    1    4    4    0    0  0.43936415935E+01 -0.18597375615E+02 -0.93508206890E+00  0.19132193933E+02  0.00000000000E+00 0.  1.
<mgrwt>
<rscale>  2 0.22989027E+03</rscale>
<asrwt>0</asrwt>
<pdfrwt beam="1">  1       21 0.16964643E-01 0.23110290E+03</pdfrwt>
<pdfrwt beam="2">  1       21 0.10985037E+00 0.23110290E+03</pdfrwt>
<totfact> 0.20055623E+04</totfact>
</mgrwt>
</event>
<event>
12    1  0.1026879E-001  0.2945820E+03  0.7546771E-02  0.1088028E+00
         21   -1    0    0  501  502  0.00000000000E+00  0.00000000000E+00  0.16219222804E+04  0.16219222804E+04  0.00000000000E+00 0. -1.
         21   -1    0    0  502  503 -0.00000000000E+00 -0.00000000000E+00 -0.72951794583E+02  0.72951794583E+02  0.00000000000E+00 0.  1.
         -6    2    1    2    0  503 -0.12405633876E+03 -0.20333754119E+03  0.33583735380E+03  0.44648690265E+03  0.17270696334E+03 0.  0.
        -24    2    3    3    0    0 -0.81220660544E+02 -0.45763188562E+02  0.93387998742E+02  0.15413719476E+03  0.79661103263E+02 0.  0.
          6    2    1    2  501    0  0.12405633876E+03  0.20333754119E+03  0.12131331320E+04  0.12483871723E+04  0.17332745083E+03 0.  0.
         24    2    5    5    0    0  0.97238937210E+02  0.14764090647E+03  0.57014912188E+03  0.60242137182E+03  0.81167973194E+02 0.  0.
          5    1    5    5  501    0  0.26817401550E+02  0.55696634715E+02  0.64298401009E+03  0.64596580046E+03  0.47000000000E+01 0. -1.
        -13    1    6    6    0    0  0.12487060469E+02  0.26036551514E+02  0.27438809108E+02  0.39833615693E+02  0.00000000000E+00 0.  1.
         14    1    6    6    0    0  0.84751876741E+02  0.12160435496E+03  0.54271031277E+03  0.56258775613E+03  0.00000000000E+00 0. -1.
         -5    1    3    3    0  503 -0.42835678217E+02 -0.15757435262E+03  0.24244935506E+03  0.29234970789E+03  0.47000000000E+01 0.  1.
         13    1    4    4    0    0 -0.12352927052E+02  0.22031804297E+02  0.26496202183E+02  0.36606610571E+02  0.00000000000E+00 0. -1.
        -14    1    4    4    0    0 -0.68867733492E+02 -0.67794992860E+02  0.66891796558E+02  0.11753058419E+03  0.00000000000E+00 0.  1.
<mgrwt>
<rscale>  2 0.29449076E+03</rscale>
<asrwt>0</asrwt>
<pdfrwt beam="1">  1       21 0.24952648E+00 0.29458197E+03</pdfrwt>
<pdfrwt beam="2">  1       21 0.11223354E-01 0.29458197E+03</pdfrwt>
<totfact> 0.40546627E+03</totfact>
</mgrwt>
</event>
<event>
12    1  0.1026879E-001  0.3229828E+03  0.7546771E-02  0.1074342E+00
         21   -1    0    0  501  502  0.00000000000E+00  0.00000000000E+00  0.10276084662E+04  0.10276084662E+04  0.00000000000E+00 0.  1.
         21   -1    0    0  502  503 -0.00000000000E+00 -0.00000000000E+00 -0.13060219716E+03  0.13060219716E+03  0.00000000000E+00 0. -1.
         -6    2    1    2    0  503  0.26780373354E+03  0.49548822464E+02  0.17419124086E+03  0.36651660487E+03  0.17267862562E+03 0.  0.
        -24    2    3    3    0    0  0.60457030132E+02  0.50818964116E+01  0.20194554636E+02  0.10439634183E+03  0.82522106055E+02 0.  0.
          6    2    1    2  501    0 -0.26780373354E+03 -0.49548822464E+02  0.72281502817E+03  0.79169405848E+03  0.17362025164E+03 0.  0.
         24    2    5    5    0    0 -0.24513640544E+03 -0.58838611343E+02  0.71966797962E+03  0.76655242259E+03  0.78273726277E+02 0.  0.
          5    1    5    5  501    0 -0.22667328104E+02  0.92897888787E+01  0.31470485452E+01  0.25141635892E+02  0.47000000000E+01 0. -1.
        -13    1    6    6    0    0 -0.42558478923E+02 -0.31689301733E+02  0.22801769262E+03  0.23411002567E+03  0.00000000000E+00 0.  1.
         14    1    6    6    0    0 -0.20257792652E+03 -0.27149309610E+02  0.49165028701E+03  0.53244239692E+03  0.00000000000E+00 0. -1.
         -5    1    3    3    0  503  0.20734670341E+03  0.44466926052E+02  0.15399668622E+03  0.26212026304E+03  0.47000000000E+01 0.  1.
         13    1    4    4    0    0  0.27131924186E+02  0.40112271939E+02  0.27198805390E+02  0.55541972280E+02  0.00000000000E+00 0. -1.
        -14    1    4    4    0    0  0.33325105946E+02 -0.35030375527E+02 -0.70042507533E+01  0.48854369554E+02  0.00000000000E+00 0.  1.
<mgrwt>
<rscale>  2 0.32285647E+03</rscale>
<asrwt>0</asrwt>
<pdfrwt beam="1">  1       21 0.15809361E+00 0.32298284E+03</pdfrwt>
<pdfrwt beam="2">  1       21 0.20092646E-01 0.32298284E+03</pdfrwt>
<totfact> 0.54623510E+03</totfact>
</mgrwt>
</event>
<event>
12    1  0.1026879E-001  0.2353703E+03  0.7546771E-02  0.1122952E+00
         21   -1    0    0  503  502  0.00000000000E+00  0.00000000000E+00  0.41323092462E+03  0.41323092462E+03  0.00000000000E+00 0.  1.
         21   -1    0    0  501  503 -0.00000000000E+00 -0.00000000000E+00 -0.16081788261E+03  0.16081788261E+03  0.00000000000E+00 0. -1.
          6    2    1    2  501    0 -0.18513180243E+02 -0.15852801822E+03  0.88271115070E+01  0.23532579023E+03  0.17270332726E+03 0.  0.
         24    2    3    3    0    0 -0.18483657626E+02 -0.17444274702E+02 -0.29874817965E+02  0.88954505814E+02  0.79840159301E+02 0.  0.
         -6    2    1    2    0  502  0.18513180243E+02  0.15852801822E+03  0.24358593050E+03  0.33872301700E+03  0.17298932424E+03 0.  0.
        -24    2    5    5    0    0  0.69769692233E+02  0.12647699371E+03  0.13187613712E+03  0.21161807559E+03  0.80787712438E+02 0.  0.
          5    1    3    3  501    0 -0.29522616878E-01 -0.14108374352E+03  0.38701929472E+02  0.14637128441E+03  0.47000000000E+01 0. -1.
        -11    1    4    4    0    0  0.22653471533E+02  0.17414483443E+02 -0.30665470500E+01  0.28737566301E+02  0.00000000000E+00 0.  1.
         12    1    4    4    0    0 -0.41137129159E+02 -0.34858758145E+02 -0.26808270915E+02  0.60216939513E+02  0.00000000000E+00 0. -1.
         -5    1    5    5    0  502 -0.51256511990E+02  0.32051024502E+02  0.11170979338E+03  0.12710494140E+03  0.47000000000E+01 0.  1.
         13    1    6    6    0    0  0.30157375336E+01 -0.99151123755E+01 -0.19847622736E+00  0.10365496568E+02  0.00000000000E+00 0. -1.
        -14    1    6    6    0    0  0.66753954700E+02  0.13639210609E+03  0.13207461335E+03  0.20125257902E+03  0.00000000000E+00 0.  1.
<mgrwt>
<rscale>  2 0.23531775E+03</rscale>
<asrwt>0</asrwt>
<pdfrwt beam="1">  1       21 0.63573988E-01 0.23537030E+03</pdfrwt>
<pdfrwt beam="2">  1       21 0.24741213E-01 0.23537030E+03</pdfrwt>
<totfact> 0.34584024E+04</totfact>
</mgrwt>
</event>
<event>
12    1  0.1026879E-001  0.1981890E+03  0.7546771E-02  0.1152478E+00
         21   -1    0    0  503  502  0.00000000000E+00  0.00000000000E+00  0.40924424161E+03  0.40924424161E+03  0.00000000000E+00 0. -1.
         21   -1    0    0  501  503 -0.00000000000E+00 -0.00000000000E+00 -0.18110959049E+03  0.18110959049E+03  0.00000000000E+00 0. -1.
          6    2    1    2  501    0 -0.24152389880E+02  0.81948728302E+02 -0.90607145967E+02  0.21791862951E+03  0.17882936611E+03 0.  0.
         24    2    3    3    0    0 -0.46515576918E+00 -0.24558347582E+02 -0.18701915023E+02  0.87162006315E+02  0.81511501725E+02 0.  0.
         -6    2    1    2    0  502  0.24152389880E+02 -0.81948728302E+02  0.31874179709E+03  0.37243520258E+03  0.17266358882E+03 0.  0.
        -24    2    5    5    0    0  0.64485196354E+02 -0.45176604352E+01  0.19679536216E+03  0.22238411615E+03  0.80916813716E+02 0.  0.
          5    1    3    3  501    0 -0.23687234111E+02  0.10650707588E+03 -0.71905230944E+02  0.13075662320E+03  0.47000000000E+01 0. -1.
        -11    1    4    4    0    0  0.20536454586E+02 -0.45762821266E+01 -0.43945466632E+02  0.48722606278E+02  0.00000000000E+00 0.  1.
         12    1    4    4    0    0 -0.21001610355E+02 -0.19982065456E+02  0.25243551608E+02  0.38439400037E+02  0.00000000000E+00 0. -1.
         -5    1    5    5    0  502 -0.40332806474E+02 -0.77431067867E+02  0.12194643492E+03  0.15005108643E+03  0.47000000000E+01 0.  1.
         11    1    6    6    0    0 -0.53324563115E+01  0.20820640176E+02  0.88457113302E+02  0.91030736794E+02  0.00000000000E+00 0. -1.
        -12    1    6    6    0    0  0.69817652666E+02 -0.25338300611E+02  0.10833824886E+03  0.13135337935E+03  0.00000000000E+00 0.  1.
<mgrwt>
<rscale>  2 0.19678791E+03</rscale>
<asrwt>0</asrwt>
<pdfrwt beam="1">  1       21 0.62960652E-01 0.19818899E+03</pdfrwt>
<pdfrwt beam="2">  1       21 0.27863014E-01 0.19818899E+03</pdfrwt>
<totfact> 0.28638551E+04</totfact>
</mgrwt>
</event>
<event>
12    1  0.1026879E-001  0.2618329E+03  0.7546771E-02  0.1106424E+00
         21   -1    0    0  501  502  0.00000000000E+00  0.00000000000E+00  0.25784326420E+04  0.25784326420E+04  0.00000000000E+00 0.  1.
         21   -1    0    0  502  503 -0.00000000000E+00 -0.00000000000E+00 -0.85084907792E+02  0.85084907792E+02  0.00000000000E+00 0. -1.
         -6    2    1    2    0  503 -0.78553826858E+02  0.17952409660E+03  0.13816260333E+03  0.29382273988E+03  0.16983313145E+03 0.  0.
        -24    2    3    3    0    0 -0.10270318286E+03  0.10355408027E+03  0.13138692358E+03  0.21368139841E+03  0.84414601987E+02 0.  0.
          6    2    1    2  501    0  0.78553826858E+02 -0.17952409660E+03  0.23551851309E+04  0.23696948099E+04  0.17365738233E+03 0.  0.
         24    2    5    5    0    0  0.27316796673E+02 -0.17958265604E+03  0.21004697286E+04  0.21098347267E+04  0.80208200792E+02 0.  0.
          5    1    5    5  501    0  0.51237030185E+02  0.58559442513E-01  0.25471540230E+03  0.25986008324E+03  0.47000000000E+01 0. -1.
        -11    1    6    6    0    0  0.38652937303E+02 -0.14112863340E+03  0.18847318658E+04  0.18904035407E+04  0.00000000000E+00 0.  1.
         12    1    6    6    0    0 -0.11336140630E+02 -0.38454022641E+02  0.21573786273E+03  0.21943118593E+03  0.00000000000E+00 0. -1.
         -5    1    3    3    0  503  0.24149355999E+02  0.75970016334E+02  0.67756797476E+01  0.80141341472E+02  0.47000000000E+01 0.  1.
         11    1    4    4    0    0 -0.33442404174E+02  0.17316604211E+02 -0.51002227377E+01  0.38003571547E+02  0.00000000000E+00 0. -1.
        -12    1    4    4    0    0 -0.69260778683E+02  0.86237476055E+02  0.13648714632E+03  0.17567782686E+03  0.00000000000E+00 0.  1.
<mgrwt>
<rscale>  2 0.26120051E+03</rscale>
<asrwt>0</asrwt>
<pdfrwt beam="1">  1       21 0.39668189E+00 0.26183295E+03</pdfrwt>
<pdfrwt beam="2">  1       21 0.13089988E-01 0.26183295E+03</pdfrwt>
<totfact> 0.41637423E+02</totfact>
</mgrwt>
</event>
<event>
12    1  0.1026879E-001  0.3298708E+03  0.7546771E-02  0.1071218E+00
         21   -1    0    0  501  502  0.00000000000E+00  0.00000000000E+00  0.13764723522E+04  0.13764723522E+04  0.00000000000E+00 0.  1.
         21   -1    0    0  502  503 -0.00000000000E+00 -0.00000000000E+00 -0.11574417119E+03  0.11574417119E+03  0.00000000000E+00 0.  1.
         -6    2    1    2    0  503 -0.28121208404E+03  0.73801895751E+01  0.21013006874E+03  0.39111302828E+03  0.17227899377E+03 0.  0.
        -24    2    3    3    0    0 -0.27563856402E+03 -0.30732922777E+02  0.19759721655E+03  0.35033514405E+03  0.82273462595E+02 0.  0.
          6    2    1    2  501    0  0.28121208404E+03 -0.73801895751E+01  0.10505981123E+04  0.11011034952E+04  0.17186567443E+03 0.  0.
         24    2    5    5    0    0  0.25008893344E+03  0.32668125690E+02  0.73307233166E+03  0.77951800195E+03  0.81495956132E+02 0.  0.
          5    1    5    5  501    0  0.31123150605E+02 -0.40048315265E+02  0.31752578066E+03  0.32158549321E+03  0.47000000000E+01 0. -1.
        -13    1    6    6    0    0  0.15129323296E+03  0.58959466626E+02  0.47151496360E+03  0.49869050718E+03  0.00000000000E+00 0.  1.
         14    1    6    6    0    0  0.98795700476E+02 -0.26291340936E+02  0.26155736805E+03  0.28082749478E+03  0.00000000000E+00 0. -1.
         -5    1    3    3    0  503 -0.55735200180E+01  0.38113112353E+02  0.12532852195E+02  0.40777884235E+02  0.47000000000E+01 0.  1.
         13    1    4    4    0    0  0.20776584671E+01  0.72200626155E+01  0.12010501214E+02  0.14166795978E+02  0.00000000000E+00 0. -1.
        -14    1    4    4    0    0 -0.27771622249E+03 -0.37952985393E+02  0.18558671533E+03  0.33616834807E+03  0.00000000000E+00 0.  1.
<mgrwt>
<rscale>  2 0.32981688E+03</rscale>
<asrwt>0</asrwt>
<pdfrwt beam="1">  1       21 0.21176497E+00 0.32987082E+03</pdfrwt>
<pdfrwt beam="2">  1       21 0.17806797E-01 0.32987082E+03</pdfrwt>
<totfact> 0.29145567E+03</totfact>
</mgrwt>
</event>
<event>
12    1  0.1026879E-001  0.2259001E+03  0.7546771E-02  0.1129686E+00
         21   -1    0    0  501  502  0.00000000000E+00  0.00000000000E+00  0.37870290946E+03  0.37870290946E+03  0.00000000000E+00 0.  1.
         21   -1    0    0  502  503 -0.00000000000E+00 -0.00000000000E+00 -0.13843057007E+03  0.13843057007E+03  0.00000000000E+00 0. -1.
         -6    2    1    2    0  503 -0.13425684892E+03  0.54741577692E+02  0.16443503047E+03  0.27884342906E+03  0.17231725646E+03 0.  0.
        -24    2    3    3    0    0 -0.16040191982E+03  0.48549616357E+02  0.10485499251E+03  0.21331651824E+03  0.80146904914E+02 0.  0.
          6    2    1    2  501    0  0.13425684892E+03 -0.54741577692E+02  0.75837308907E+02  0.23829005047E+03  0.17323195122E+03 0.  0.
         24    2    5    5    0    0  0.89556332342E+00 -0.45075513264E+00  0.12984763860E+02  0.81110985937E+02  0.80058620606E+02 0.  0.
          5    1    5    5  501    0  0.13336128559E+03 -0.54290822559E+02  0.62852545047E+02  0.15717906454E+03  0.47000000000E+01 0. -1.
        -11    1    6    6    0    0 -0.36887559802E+02 -0.65585535668E+01  0.19579025251E+02  0.42273454115E+02  0.00000000000E+00 0.  1.
         12    1    6    6    0    0  0.37783123125E+02  0.61077984341E+01 -0.65942613912E+01  0.38837531823E+02  0.00000000000E+00 0. -1.
         -5    1    3    3    0  503  0.26145070908E+02  0.61919613348E+01  0.59580037959E+02  0.65526910817E+02  0.47000000000E+01 0.  1.
         11    1    4    4    0    0 -0.13935041874E+03  0.11471586223E+02  0.62289597934E+02  0.15306903836E+03  0.00000000000E+00 0. -1.
        -12    1    4    4    0    0 -0.21051501088E+02  0.37078030134E+02  0.42565394580E+02  0.60247479884E+02  0.00000000000E+00 0.  1.
<mgrwt>
<rscale>  2 0.22572472E+03</rscale>
<asrwt>0</asrwt>
<pdfrwt beam="1">  1       21 0.58261986E-01 0.22590009E+03</pdfrwt>
<pdfrwt beam="2">  1       21 0.21297011E-01 0.22590009E+03</pdfrwt>
<totfact> 0.55770023E+04</totfact>
</mgrwt>
</event>
<event>
12    1  0.1026879E-001  0.2365524E+03  0.7546771E-02  0.1122203E+00
         21   -1    0    0  501  502  0.00000000000E+00  0.00000000000E+00  0.76190978779E+03  0.76190978779E+03  0.00000000000E+00 0. -1.
         21   -1    0    0  502  503 -0.00000000000E+00 -0.00000000000E+00 -0.12280788956E+03  0.12280788956E+03  0.00000000000E+00 0.  1.
         -6    2    1    2    0  503  0.81307556659E+02  0.13855432530E+03  0.38832472254E+02  0.23971854837E+03  0.17363410294E+03 0.  0.
        -24    2    3    3    0    0  0.11467146047E+03  0.13499661624E+03  0.15638153107E+02  0.19865915466E+03  0.88584861321E+02 0.  0.
          6    2    1    2  501    0 -0.81307556659E+02 -0.13855432530E+03  0.60026942598E+03  0.64499912897E+03  0.17289381939E+03 0.  0.
         24    2    5    5    0    0  0.21191321065E+02 -0.35936525195E+02  0.23299198625E+03  0.25009250638E+03  0.80749552074E+02 0.  0.
          5    1    5    5  501    0 -0.10249887772E+03 -0.10261780011E+03  0.36727743973E+03  0.39490662259E+03  0.47000000000E+01 0. -1.
        -11    1    6    6    0    0 -0.67781155953E+00 -0.56673704220E+02  0.18439468694E+03  0.19290870574E+03  0.00000000000E+00 0.  1.
         12    1    6    6    0    0  0.21869132625E+02  0.20737179025E+02  0.48597299311E+02  0.57183800643E+02  0.00000000000E+00 0. -1.
         -5    1    3    3    0  503 -0.33363903812E+02  0.35577090667E+01  0.23194319147E+02  0.41059393713E+02  0.47000000000E+01 0.  1.
         13    1    4    4    0    0  0.44343923537E+02  0.78560680197E+02  0.48821406518E+02  0.10257530776E+03  0.00000000000E+00 0. -1.
        -14    1    4    4    0    0  0.70327536934E+02  0.56435936040E+02 -0.33183253411E+02  0.96083846899E+02  0.00000000000E+00 0.  1.
<mgrwt>
<rscale>  2 0.23641654E+03</rscale>
<asrwt>0</asrwt>
<pdfrwt beam="1">  1       21 0.11721689E+00 0.23655237E+03</pdfrwt>
<pdfrwt beam="2">  1       21 0.18893522E-01 0.23655237E+03</pdfrwt>
<totfact> 0.13966594E+04</totfact>
</mgrwt>
</event>
<event>
12    1  0.1026879E-001  0.2095800E+03  0.7546771E-02  0.1142411E+00
         21   -1    0    0  503  502  0.00000000000E+00  0.00000000000E+00  0.61061654570E+03  0.61061654570E+03  0.00000000000E+00 0.  1.
         21   -1    0    0  501  503 -0.00000000000E+00 -0.00000000000E+00 -0.97624137898E+02  0.97624137898E+02  0.00000000000E+00 0.  1.
          6    2    1    2  501    0 -0.62297717062E+01 -0.11622951388E+03  0.72912242750E+02  0.22190085922E+03  0.17428621927E+03 0.  0.
         24    2    3    3    0    0  0.58534617631E+01 -0.10956570612E+03 -0.11138873173E+02  0.13659499217E+03  0.80592868281E+02 0.  0.
         -6    2    1    2    0  502  0.62297717062E+01  0.11622951388E+03  0.44008016505E+03  0.48633982438E+03  0.17119510261E+03 0.  0.
        -24    2    5    5    0    0  0.52192088688E+02  0.10380977274E+03  0.39864060176E+03  0.42304597035E+03  0.80951100175E+02 0.  0.
          5    1    3    3  501    0 -0.12083233469E+02 -0.66638077560E+01  0.84051115923E+02  0.85305867048E+02  0.47000000000E+01 0. -1.
        -11    1    4    4    0    0  0.85365555778E+01  0.90989307920E+01 -0.12818820233E+02  0.17888137825E+02  0.00000000000E+00 0.  1.
         12    1    4    4    0    0 -0.26830938146E+01 -0.11866463691E+03  0.16799470603E+01  0.11870685434E+03  0.00000000000E+00 0. -1.
         -5    1    5    5    0  502 -0.45962316982E+02  0.12419741138E+02  0.41439563283E+02  0.63293854025E+02  0.47000000000E+01 0.  1.
         11    1    6    6    0    0  0.21711997453E+02 -0.77415973421E+01  0.39355619800E+02  0.45609296997E+02  0.00000000000E+00 0. -1.
        -12    1    6    6    0    0  0.30480091235E+02  0.11155137008E+03  0.35928498197E+03  0.37743667336E+03  0.00000000000E+00 0.  1.
<mgrwt>
<rscale>  2 0.20893623E+03</rscale>
<asrwt>0</asrwt>
<pdfrwt beam="1">  1       21 0.93941005E-01 0.20958005E+03</pdfrwt>
<pdfrwt beam="2">  1       21 0.15019098E-01 0.20958005E+03</pdfrwt>
<totfact> 0.36879644E+04</totfact>
</mgrwt>
</event>
<event>
12    1  0.1026879E-001  0.1825703E+03  0.7546771E-02  0.1165523E+00
         21   -1    0    0  503  502  0.00000000000E+00  0.00000000000E+00  0.88386583927E+02  0.88386583927E+02  0.00000000000E+00 0.  1.
         21   -1    0    0  501  503 -0.00000000000E+00 -0.00000000000E+00 -0.38213030346E+03  0.38213030346E+03  0.00000000000E+00 0. -1.
          6    2    1    2  501    0  0.55433114418E+02  0.22874213308E+02 -0.17813632814E+03  0.25507739153E+03  0.17244090136E+03 0.  0.
         24    2    3    3    0    0 -0.24065095294E+01  0.45568279054E+02 -0.16821387924E+03  0.19198232270E+03  0.80492507221E+02 0.  0.
         -6    2    1    2    0  502 -0.55433114418E+02 -0.22874213308E+02 -0.11560739139E+03  0.21543949585E+03  0.17161890228E+03 0.  0.
        -24    2    5    5    0    0 -0.78788305364E+02 -0.67281475558E+02 -0.78925122141E+02  0.15310853435E+03  0.80490088640E+02 0.  0.
          5    1    3    3  501    0  0.57839623947E+02 -0.22694065747E+02 -0.99224489015E+01  0.63095068830E+02  0.47000000000E+01 0. -1.
        -13    1    4    4    0    0  0.86290854290E+01  0.89794997195E+01  0.58594669613E+01  0.13763207607E+02  0.00000000000E+00 0.  1.
         14    1    4    4    0    0 -0.11035594958E+02  0.36588779335E+02 -0.17407334620E+03  0.17821911510E+03  0.00000000000E+00 0. -1.
         -5    1    5    5    0  502  0.23355190947E+02  0.44407262251E+02 -0.36682269252E+02  0.62330961506E+02  0.47000000000E+01 0.  1.
         13    1    6    6    0    0 -0.44532873962E+02  0.34174543421E+01 -0.55276255712E+02  0.71065605627E+02  0.00000000000E+00 0. -1.
        -14    1    6    6    0    0 -0.34255431402E+02 -0.70698929900E+02 -0.23648866429E+02  0.82042928720E+02  0.00000000000E+00 0.  1.
<mgrwt>
<rscale>  2 0.18237597E+03</rscale>
<asrwt>0</asrwt>
<pdfrwt beam="1">  1       21 0.13597936E-01 0.18257033E+03</pdfrwt>
<pdfrwt beam="2">  1       21 0.58789278E-01 0.18257033E+03</pdfrwt>
<totfact> 0.12732434E+05</totfact>
</mgrwt>
</event>
<event>
12    1  0.1026879E-001  0.1822485E+03  0.7546771E-02  0.1165856E+00
         21   -1    0    0  501  502  0.00000000000E+00  0.00000000000E+00  0.67271536850E+03  0.67271536850E+03  0.00000000000E+00 0.  1.
         21   -1    0    0  502  503 -0.00000000000E+00 -0.00000000000E+00 -0.59938937309E+02  0.59938937309E+02  0.00000000000E+00 0.  1.
         -6    2    1    2    0  503  0.15065803373E+02 -0.53812891800E+02  0.15146651504E+03  0.23697386913E+03  0.17346960459E+03 0.  0.
        -24    2    3    3    0    0  0.24257046666E+02  0.11417699681E+02  0.14917941731E+03  0.17089187586E+03  0.78935204480E+02 0.  0.
          6    2    1    2  501    0 -0.15065803373E+02  0.53812891800E+02  0.46130991616E+03  0.49568043669E+03  0.17253825899E+03 0.  0.
         24    2    5    5    0    0 -0.47715782829E+02  0.82962412368E+02  0.40786422160E+03  0.42643992850E+03  0.79613011232E+02 0.  0.
          5    1    5    5  501    0  0.32649979456E+02 -0.29149520568E+02  0.53445694555E+02  0.69240508189E+02  0.47000000000E+01 0. -1.
        -13    1    6    6    0    0 -0.24610325167E+01  0.65601038686E+02  0.14533390993E+03  0.15947256295E+03  0.00000000000E+00 0.  1.
         14    1    6    6    0    0 -0.45254750312E+02  0.17361373681E+02  0.26253031167E+03  0.26696736555E+03  0.00000000000E+00 0. -1.
         -5    1    3    3    0  503 -0.91912432934E+01 -0.65230591481E+02  0.22870977270E+01  0.66081993268E+02  0.47000000000E+01 0.  1.
         11    1    4    4    0    0 -0.11669062924E+02  0.37287451118E+02  0.67976116912E+02  0.78404550319E+02  0.00000000000E+00 0. -1.
        -12    1    4    4    0    0  0.35926109591E+02 -0.25869751436E+02  0.81203300399E+02  0.92487325539E+02  0.00000000000E+00 0.  1.
<mgrwt>
<rscale>  2 0.18202651E+03</rscale>
<asrwt>0</asrwt>
<pdfrwt beam="1">  1       21 0.10349467E+00 0.18224848E+03</pdfrwt>
<pdfrwt beam="2">  1       21 0.92213754E-02 0.18224848E+03</pdfrwt>
<totfact> 0.71133414E+04</totfact>
</mgrwt>
</event>
<event>
12    1  0.1026879E-001  0.2019590E+03  0.7546771E-02  0.1148336E+00
         21   -1    0    0  501  502  0.00000000000E+00  0.00000000000E+00  0.36688211925E+03  0.36688211925E+03  0.00000000000E+00 0.  1.
         21   -1    0    0  502  503 -0.00000000000E+00 -0.00000000000E+00 -0.28202092501E+03  0.28202092501E+03  0.00000000000E+00 0.  1.
         -6    2    1    2    0  503  0.56625323608E+02  0.83917075828E+02 -0.21061080376E+03  0.29100484254E+03  0.17343126832E+03 0.  0.
        -24    2    3    3    0    0  0.10099930317E+03  0.86859117094E+02 -0.15845060135E+03  0.22229907579E+03  0.81024197412E+02 0.  0.
          6    2    1    2  501    0 -0.56625323608E+02 -0.83917075828E+02  0.29547199800E+03  0.35789820172E+03  0.17475387923E+03 0.  0.
         24    2    5    5    0    0 -0.79485630932E+02 -0.11318369528E+03  0.26569354229E+03  0.31006541914E+03  0.80118607899E+02 0.  0.
          5    1    5    5  501    0  0.22860307323E+02  0.29266619452E+02  0.29778455709E+02  0.47832782582E+02  0.47000000000E+01 0. -1.
        -11    1    6    6    0    0 -0.45023223119E+02 -0.86366367848E+01  0.11197572356E+03  0.12099687922E+03  0.00000000000E+00 0.  1.
         12    1    6    6    0    0 -0.34462407813E+02 -0.10454705850E+03  0.15371781873E+03  0.18906853992E+03  0.00000000000E+00 0. -1.
         -5    1    3    3    0  503 -0.44373979561E+02 -0.29420412654E+01 -0.52160202416E+02  0.68705766752E+02  0.47000000000E+01 0.  1.
         13    1    4    4    0    0 -0.12666509202E+02  0.20439274118E+01 -0.22150835938E+02  0.25598391109E+02  0.00000000000E+00 0. -1.
        -14    1    4    4    0    0  0.11366581237E+03  0.84815189682E+02 -0.13629976541E+03  0.19670068468E+03  0.00000000000E+00 0.  1.
<mgrwt>
<rscale>  2 0.20167251E+03</rscale>
<asrwt>0</asrwt>
<pdfrwt beam="1">  1       21 0.56443403E-01 0.20195896E+03</pdfrwt>
<pdfrwt beam="2">  1       21 0.43387835E-01 0.20195896E+03</pdfrwt>
<totfact> 0.14987215E+04</totfact>
</mgrwt>
</event>
<event>
12    1  0.1026879E-001  0.1839277E+03  0.7546771E-02  0.1164064E+00
         21   -1    0    0  503  502  0.00000000000E+00  0.00000000000E+00  0.67768903330E+02  0.67768903330E+02  0.00000000000E+00 0. -1.
         21   -1    0    0  501  503 -0.00000000000E+00 -0.00000000000E+00 -0.90126697811E+03  0.90126697811E+03  0.00000000000E+00 0.  1.
          6    2    1    2  501    0  0.25120873079E+02  0.57294305333E+02 -0.74039021109E+03  0.76288427822E+03  0.17291923430E+03 0.  0.
         24    2    3    3    0    0  0.88839545806E+01  0.14730549617E+02 -0.68982328068E+03  0.69466100306E+03  0.80011479544E+02 0.  0.
         -6    2    1    2    0  502 -0.25120873079E+02 -0.57294305333E+02 -0.93107863687E+02  0.20615160322E+03  0.17296159556E+03 0.  0.
        -24    2    5    5    0    0 -0.31081856993E+02 -0.97590132301E+02 -0.99220950209E+02  0.16469383160E+03  0.82397484495E+02 0.  0.
          5    1    3    3  501    0  0.16236918499E+02  0.42563755716E+02 -0.50566930407E+02  0.68223275162E+02  0.47000000000E+01 0. -1.
        -11    1    4    4    0    0 -0.29564885774E+01  0.45212803684E+02 -0.29181474584E+03  0.29531133458E+03  0.00000000000E+00 0.  1.
         12    1    4    4    0    0  0.11840443158E+02 -0.30482254067E+02 -0.39800853484E+03  0.39934966848E+03  0.00000000000E+00 0. -1.
         -5    1    5    5    0  502  0.59609839137E+01  0.40295826967E+02  0.61130865217E+01  0.41457771612E+02  0.47000000000E+01 0.  1.
         11    1    6    6    0    0 -0.27886815091E+02 -0.80421085814E+02 -0.25389151077E+02  0.88824740314E+02  0.00000000000E+00 0. -1.
        -12    1    6    6    0    0 -0.31950419019E+01 -0.17169046487E+02 -0.73831799132E+02  0.75869091289E+02  0.00000000000E+00 0.  1.
<mgrwt>
<rscale>  2 0.18391777E+03</rscale>
<asrwt>0</asrwt>
<pdfrwt beam="1">  1       21 0.10425986E-01 0.18392773E+03</pdfrwt>
<pdfrwt beam="2">  1       21 0.13865645E+00 0.18392773E+03</pdfrwt>
<totfact> 0.27798847E+04</totfact>
</mgrwt>
</event>
<event>
12    1  0.1026879E-001  0.2207230E+03  0.7546771E-02  0.1134417E+00
         21   -1    0    0  503  502  0.00000000000E+00  0.00000000000E+00  0.24458362260E+03  0.24458362260E+03  0.00000000000E+00 0.  1.
         21   -1    0    0  501  503 -0.00000000000E+00 -0.00000000000E+00 -0.20714141960E+03  0.20714141960E+03  0.00000000000E+00 0.  1.
          6    2    1    2  501    0  0.11995317178E+03 -0.42261769275E+02 -0.38205599453E+02  0.21839863403E+03  0.17338822034E+03 0.  0.
         24    2    3    3    0    0  0.83434664035E+02 -0.10294644617E+03 -0.28963094759E+02  0.14681829238E+03  0.56191068485E+02 0.  0.
         -6    2    1    2    0  502 -0.11995317178E+03  0.42261769275E+02  0.75647802455E+02  0.23332640817E+03  0.18039900823E+03 0.  0.
        -24    2    5    5    0    0 -0.14977485909E+03  0.49830306882E+01  0.43325154550E+02  0.17548281776E+03  0.80372951314E+02 0.  0.
          5    1    3    3  501    0  0.36518507747E+02  0.60684676895E+02 -0.92425046941E+01  0.71580341651E+02  0.47000000000E+01 0. -1.
        -11    1    4    4    0    0  0.21212622538E+02 -0.67556237704E+02 -0.25122212417E+02  0.75132856756E+02  0.00000000000E+00 0.  1.
         12    1    4    4    0    0  0.62222041497E+02 -0.35390208467E+02 -0.38408823422E+01  0.71685435624E+02  0.00000000000E+00 0. -1.
         -5    1    5    5    0  502  0.29821687304E+02  0.37278738587E+02  0.32322647905E+02  0.57843590413E+02  0.47000000000E+01 0.  1.
         11    1    6    6    0    0 -0.13629821455E+02  0.12989026873E+02  0.33899704089E+02  0.38777271556E+02  0.00000000000E+00 0. -1.
        -12    1    6    6    0    0 -0.13614503763E+03 -0.80059961847E+01  0.94254504612E+01  0.13670554620E+03  0.00000000000E+00 0.  1.
<mgrwt>
<rscale>  2 0.21928597E+03</rscale>
<asrwt>0</asrwt>
<pdfrwt beam="1">  1       21 0.37628250E-01 0.22072295E+03</pdfrwt>
<pdfrwt beam="2">  1       21 0.31867911E-01 0.22072295E+03</pdfrwt>
<totfact> 0.63698565E+04</totfact>
</mgrwt>
</event>
<event>
12    1  0.1026879E-001  0.1807564E+03  0.7546771E-02  0.1167281E+00
         21   -1    0    0  501  502  0.00000000000E+00  0.00000000000E+00  0.19381375412E+03  0.19381375412E+03  0.00000000000E+00 0. -1.
         21   -1    0    0  502  503 -0.00000000000E+00 -0.00000000000E+00 -0.29833574447E+03  0.29833574447E+03  0.00000000000E+00 0. -1.
         -6    2    1    2    0  503 -0.21067928243E+02 -0.50289477154E+02 -0.21497688199E+03  0.28031663152E+03  0.17143355858E+03 0.  0.
        -24    2    3    3    0    0  0.29750946793E+02 -0.31113562638E+02 -0.20570621442E+03  0.22501465114E+03  0.80395111539E+02 0.  0.
          6    2    1    2  501    0  0.21067928243E+02  0.50289477154E+02  0.11045489165E+03  0.21183286707E+03  0.17233685435E+03 0.  0.
         24    2    5    5    0    0  0.25839200465E+02 -0.38395931942E+02  0.59235828137E+02  0.10920076053E+03  0.79208654169E+02 0.  0.
          5    1    5    5  501    0 -0.47712722221E+01  0.88685409096E+02  0.51219063509E+02  0.10263210654E+03  0.47000000000E+01 0. -1.
        -11    1    6    6    0    0 -0.28688078347E+02 -0.13972483273E+02  0.18448466698E+02  0.36858948054E+02  0.00000000000E+00 0.  1.
         12    1    6    6    0    0  0.54527278812E+02 -0.24423448669E+02  0.40787361438E+02  0.72341812478E+02  0.00000000000E+00 0. -1.
         -5    1    3    3    0  503 -0.50818875036E+02 -0.19175914516E+02 -0.92706675659E+01  0.55301980385E+02  0.47000000000E+01 0.  1.
         11    1    4    4    0    0  0.37163675006E+02  0.16169498162E+02 -0.67235975538E+02  0.78506482645E+02  0.00000000000E+00 0. -1.
        -12    1    4    4    0    0 -0.74127282134E+01 -0.47283060800E+02 -0.13847023888E+03  0.14650816849E+03  0.00000000000E+00 0.  1.
<mgrwt>
<rscale>  2 0.18054077E+03</rscale>
<asrwt>0</asrwt>
<pdfrwt beam="1">  1       21 0.29817501E-01 0.18075641E+03</pdfrwt>
<pdfrwt beam="2">  1       21 0.45897807E-01 0.18075641E+03</pdfrwt>
<totfact> 0.49341612E+04</totfact>
</mgrwt>
</event>
<event>
12    1  0.1026879E-001  0.1936350E+03  0.7546771E-02  0.1155428E+00
         21   -1    0    0  501  502  0.00000000000E+00  0.00000000000E+00  0.24588685358E+03  0.24588685358E+03  0.00000000000E+00 0. -1.
         21   -1    0    0  502  503 -0.00000000000E+00 -0.00000000000E+00 -0.20781468144E+03  0.20781468144E+03  0.00000000000E+00 0.  1.
         -6    2    1    2    0  503  0.80170065622E+02  0.35689993149E+02 -0.98751673812E+02  0.21736240576E+03  0.17260795846E+03 0.  0.
        -24    2    3    3    0    0  0.38912426607E+02 -0.21135264661E+02 -0.11289476408E+03  0.14557508303E+03  0.80535710623E+02 0.  0.
          6    2    1    2  501    0 -0.80170065622E+02 -0.35689993149E+02  0.13682384595E+03  0.23633912925E+03  0.17156457724E+03 0.  0.
         24    2    5    5    0    0 -0.88437996014E+02 -0.49887738675E+02  0.38035856016E+02  0.13608399669E+03  0.82231759088E+02 0.  0.
          5    1    5    5  501    0  0.82679303920E+01  0.14197745526E+02  0.98787989931E+02  0.10025513257E+03  0.47000000000E+01 0. -1.
        -11    1    6    6    0    0 -0.50416428471E+02 -0.65431843140E+02  0.39325887197E+01  0.82695874205E+02  0.00000000000E+00 0.  1.
         12    1    6    6    0    0 -0.38021567543E+02  0.15544104465E+02  0.34103267296E+02  0.53388122483E+02  0.00000000000E+00 0. -1.
         -5    1    3    3    0  503  0.41257639015E+02  0.56825257810E+02  0.14143090272E+02  0.71787322730E+02  0.47000000000E+01 0.  1.
         11    1    4    4    0    0 -0.12656723904E+02 -0.31950956539E+02 -0.22924208965E+02  0.41310720647E+02  0.00000000000E+00 0. -1.
        -12    1    4    4    0    0  0.51569150511E+02  0.10815691878E+02 -0.89970555118E+02  0.10426436238E+03  0.00000000000E+00 0.  1.
<mgrwt>
<rscale>  2 0.19340223E+03</rscale>
<asrwt>0</asrwt>
<pdfrwt beam="1">  1       21 0.37828747E-01 0.19363502E+03</pdfrwt>
<pdfrwt beam="2">  1       21 0.31971489E-01 0.19363502E+03</pdfrwt>
<totfact> 0.63384773E+04</totfact>
</mgrwt>
</event>
<event>
12    1  0.1026879E-001  0.1882470E+03  0.7546771E-02  0.1160202E+00
         21   -1    0    0  503  502  0.00000000000E+00  0.00000000000E+00  0.19343698341E+03  0.19343698341E+03  0.00000000000E+00 0. -1.
         21   -1    0    0  501  503 -0.00000000000E+00 -0.00000000000E+00 -0.18583399599E+03  0.18583399599E+03  0.00000000000E+00 0. -1.
          6    2    1    2  501    0 -0.53089682417E+02  0.50353467276E+02  0.28987517178E+02  0.19046579722E+03  0.17344439372E+03 0.  0.
         24    2    3    3    0    0 -0.92965485304E+02  0.71663782080E+02  0.31780556738E+02  0.14492350652E+03  0.78832352714E+02 0.  0.
         -6    2    1    2    0  502  0.53089682417E+02 -0.50353467276E+02 -0.21384529755E+02  0.18880518218E+03  0.17273133086E+03 0.  0.
        -24    2    5    5    0    0  0.24683758828E+02 -0.33902471262E+02  0.55296023849E+02  0.10526160633E+03  0.79143477343E+02 0.  0.
          5    1    3    3  501    0  0.39875802887E+02 -0.21310314804E+02 -0.27930395591E+01  0.45542290707E+02  0.47000000000E+01 0. -1.
        -11    1    4    4    0    0 -0.54140364404E+02  0.63741712022E+02 -0.13543030732E+02  0.84720709338E+02  0.00000000000E+00 0.  1.
         12    1    4    4    0    0 -0.38825120900E+02  0.79220700580E+01  0.45323587470E+02  0.60202797178E+02  0.00000000000E+00 0. -1.
         -5    1    5    5    0  502  0.28405923589E+02 -0.16450996014E+02 -0.76680553604E+02  0.83543575850E+02  0.47000000000E+01 0.  1.
         11    1    6    6    0    0 -0.26348377748E+02 -0.58560338971E+01  0.33649254951E+02  0.43137020084E+02  0.00000000000E+00 0. -1.
        -12    1    6    6    0    0  0.51032136576E+02 -0.28046437365E+02  0.21646768898E+02  0.62124586245E+02  0.00000000000E+00 0.  1.
<mgrwt>
<rscale>  2 0.18808262E+03</rscale>
<asrwt>0</asrwt>
<pdfrwt beam="1">  1       21 0.29759536E-01 0.18824703E+03</pdfrwt>
<pdfrwt beam="2">  1       21 0.28589845E-01 0.18824703E+03</pdfrwt>
<totfact> 0.12685709E+05</totfact>
</mgrwt>
</event>
<event>
12    1  0.1026879E-001  0.2920394E+03  0.7546771E-02  0.1089334E+00
         21   -1    0    0  501  502  0.00000000000E+00  0.00000000000E+00  0.24631990830E+03  0.24631990830E+03  0.00000000000E+00 0. -1.
         21   -1    0    0  502  503 -0.00000000000E+00 -0.00000000000E+00 -0.35040722258E+03  0.35040722258E+03  0.00000000000E+00 0. -1.
         -6    2    1    2    0  503  0.12031458987E+03 -0.20084460193E+03 -0.86097745381E+02  0.30413419110E+03  0.17398456765E+03 0.  0.
        -24    2    3    3    0    0  0.11802916530E+03 -0.69664502986E+02 -0.33924472144E+02  0.16286288487E+03  0.81175258678E+02 0.  0.
          6    2    1    2  501    0 -0.12031458987E+03  0.20084460193E+03 -0.17989568898E+02  0.29259293977E+03  0.17456474201E+03 0.  0.
         24    2    5    5    0    0 -0.55414881672E+02  0.91714487311E+02  0.57891419703E+02  0.14460183033E+03  0.77948165901E+02 0.  0.
          5    1    5    5  501    0 -0.64899708200E+02  0.10913011462E+03 -0.75880988601E+02  0.14799110944E+03  0.47000000000E+01 0. -1.
        -13    1    6    6    0    0 -0.40209123426E+02  0.17330024739E+02  0.52680249426E+02  0.68500452872E+02  0.00000000000E+00 0.  1.
         14    1    6    6    0    0 -0.15205758246E+02  0.74384462572E+02  0.52111702774E+01  0.76101377462E+02  0.00000000000E+00 0. -1.
         -5    1    3    3    0  503  0.22854245721E+01 -0.13118009894E+03 -0.52173273237E+02  0.14127130623E+03  0.47000000000E+01 0.  1.
         13    1    4    4    0    0  0.84498807683E+02 -0.71159157683E+01 -0.14338909497E+01  0.84810027711E+02  0.00000000000E+00 0. -1.
        -14    1    4    4    0    0  0.33530357616E+02 -0.62548587218E+02 -0.32490581195E+02  0.78052857162E+02  0.00000000000E+00 0.  1.
<mgrwt>
<rscale>  2 0.29195274E+03</rscale>
<asrwt>0</asrwt>
<pdfrwt beam="1">  1       21 0.37895371E-01 0.29203939E+03</pdfrwt>
<pdfrwt beam="2">  1       21 0.53908803E-01 0.29203939E+03</pdfrwt>
<totfact> 0.20800515E+04</totfact>
</mgrwt>
</event>
<event>
12    1  0.1026879E-001  0.2758527E+03  0.7546771E-02  0.1097995E+00
         21   -1    0    0  503  502  0.00000000000E+00  0.00000000000E+00  0.10210015706E+03  0.10210015706E+03  0.00000000000E+00 0.  1.
         21   -1    0    0  501  503 -0.00000000000E+00 -0.00000000000E+00 -0.95184217196E+03  0.95184217196E+03  0.00000000000E+00 0. -1.
          6    2    1    2  501    0 -0.16259975980E+03  0.13984956392E+03 -0.67065550397E+03  0.72517136431E+03  0.17348809815E+03 0.  0.
         24    2    3    3    0    0 -0.77821805317E+02  0.12151525540E+03 -0.26422773267E+03  0.30956449271E+03  0.72053381319E+02 0.  0.
         -6    2    1    2    0  502  0.16259975980E+03 -0.13984956392E+03 -0.17908651093E+03  0.32877096471E+03  0.17326796134E+03 0.  0.
        -24    2    5    5    0    0  0.10628376486E+03 -0.16626494547E+03 -0.13122406389E+03  0.25014420397E+03  0.80075570986E+02 0.  0.
          5    1    3    3  501    0 -0.84777954483E+02  0.18334308515E+02 -0.40642777130E+03  0.41560687160E+03  0.47000000000E+01 0. -1.
        -11    1    4    4    0    0 -0.56384616767E+02  0.28627738153E+02 -0.78513245880E+02  0.10081221245E+03  0.00000000000E+00 0.  1.
         12    1    4    4    0    0 -0.21437188550E+02  0.92887517248E+02 -0.18571448679E+03  0.20875228027E+03  0.00000000000E+00 0. -1.
         -5    1    5    5    0  502  0.56315994940E+02  0.26415381557E+02 -0.47862447041E+02  0.78626760747E+02  0.47000000000E+01 0.  1.
         13    1    6    6    0    0  0.13957961674E+02 -0.80390230979E+01 -0.44763664742E+02  0.47573482819E+02  0.00000000000E+00 0. -1.
        -14    1    6    6    0    0  0.92325803186E+02 -0.15822592238E+03 -0.86460399144E+02  0.20257072115E+03  0.00000000000E+00 0.  1.
<mgrwt>
<rscale>  2 0.27581808E+03</rscale>
<asrwt>0</asrwt>
<pdfrwt beam="1">  1       21 0.15707717E-01 0.27585268E+03</pdfrwt>
<pdfrwt beam="2">  1       21 0.14643725E+00 0.27585268E+03</pdfrwt>
<totfact> 0.10890066E+04</totfact>
</mgrwt>
</event>
<event>
12    1  0.1026879E-001  0.1831903E+03  0.7546771E-02  0.1165749E+00
         21   -1    0    0  503  502  0.00000000000E+00  0.00000000000E+00  0.48556134610E+03  0.48556134610E+03  0.00000000000E+00 0. -1.
         21   -1    0    0  501  503 -0.00000000000E+00 -0.00000000000E+00 -0.10406795394E+03  0.10406795394E+03  0.00000000000E+00 0. -1.
          6    2    1    2  501    0  0.40042820948E+02 -0.27035571796E+02  0.14688342115E+02  0.17962363823E+03  0.17237910072E+03 0.  0.
         24    2    3    3    0    0 -0.38474835142E+02 -0.30898814688E+01 -0.16736066466E+02  0.91600903341E+02  0.81368109634E+02 0.  0.
         -6    2    1    2    0  502 -0.40042820948E+02  0.27035571796E+02  0.36680505004E+03  0.41000566182E+03  0.17670412653E+03 0.  0.
        -24    2    5    5    0    0 -0.49519165664E+02  0.20560068970E+02  0.37984498541E+03  0.39200946332E+03  0.80711474947E+02 0.  0.
          5    1    3    3  501    0  0.78517656090E+02 -0.23945690327E+02  0.31424408581E+02  0.88022734892E+02  0.47000000000E+01 0. -1.
        -11    1    4    4    0    0 -0.25956374251E+02  0.30303484965E+01  0.31767726653E+02  0.41135201871E+02  0.00000000000E+00 0.  1.
         12    1    4    4    0    0 -0.12518460892E+02 -0.61202299653E+01 -0.48503793119E+02  0.50465701470E+02  0.00000000000E+00 0. -1.
         -5    1    5    5    0  502  0.94763447161E+01  0.64755028256E+01 -0.13039935364E+02  0.17996198496E+02  0.47000000000E+01 0.  1.
         13    1    6    6    0    0  0.17411737564E+02 -0.83872557552E+01  0.13988461415E+03  0.14121338443E+03  0.00000000000E+00 0. -1.
        -14    1    6    6    0    0 -0.66930903228E+02  0.28947324725E+02  0.23996037125E+03  0.25079607889E+03  0.00000000000E+00 0.  1.
<mgrwt>
<rscale>  2 0.18213926E+03</rscale>
<asrwt>0</asrwt>
<pdfrwt beam="1">  1       21 0.74701745E-01 0.18319033E+03</pdfrwt>
<pdfrwt beam="2">  1       21 0.16010455E-01 0.18319033E+03</pdfrwt>
<totfact> 0.56111688E+04</totfact>
</mgrwt>
</event>
<event>
12    1  0.1026879E-001  0.2116295E+03  0.7546771E-02  0.1141577E+00
         21   -1    0    0  501  502  0.00000000000E+00  0.00000000000E+00  0.91266909160E+02  0.91266909160E+02  0.00000000000E+00 0.  1.
         21   -1    0    0  502  503 -0.00000000000E+00 -0.00000000000E+00 -0.50963903992E+03  0.50963903992E+03  0.00000000000E+00 0.  1.
         -6    2    1    2    0  503  0.47372792948E+02 -0.99847377162E+02 -0.28357961611E+03  0.34999548615E+03  0.17281713287E+03 0.  0.
        -24    2    3    3    0    0  0.57706238529E+02 -0.13340749469E+03 -0.20643280729E+03  0.26510272029E+03  0.80854058473E+02 0.  0.
          6    2    1    2  501    0 -0.47372792948E+02  0.99847377162E+02 -0.13479251464E+03  0.25091046292E+03  0.18048090803E+03 0.  0.
         24    2    5    5    0    0 -0.17954144369E+02 -0.19379031636E+02 -0.34145318007E+02  0.92063550362E+02  0.81313568341E+02 0.  0.
          5    1    5    5  501    0 -0.29418648579E+02  0.11922640880E+03 -0.10064719664E+03  0.15884691256E+03  0.47000000000E+01 0. -1.
        -13    1    6    6    0    0  0.30691196584E+02  0.90316207243E+00 -0.22558881179E+02  0.38100765997E+02  0.00000000000E+00 0.  1.
         14    1    6    6    0    0 -0.48645340953E+02 -0.20282193709E+02 -0.11586436828E+02  0.53962784365E+02  0.00000000000E+00 0. -1.
         -5    1    3    3    0  503 -0.10333445581E+02  0.33560117524E+02 -0.77146808818E+02  0.84892765867E+02  0.47000000000E+01 0.  1.
         11    1    4    4    0    0  0.67133826792E+02 -0.55936870496E+02 -0.12274690494E+03  0.15067410810E+03  0.00000000000E+00 0. -1.
        -12    1    4    4    0    0 -0.94275882630E+01 -0.77470624191E+02 -0.83685902358E+02  0.11442861218E+03  0.00000000000E+00 0.  1.
<mgrwt>
<rscale>  2 0.20998626E+03</rscale>
<asrwt>0</asrwt>
<pdfrwt beam="1">  1       21 0.14041063E-01 0.21162948E+03</pdfrwt>
<pdfrwt beam="2">  1       21 0.78406005E-01 0.21162948E+03</pdfrwt>
<totfact> 0.63095784E+04</totfact>
</mgrwt>
</event>
<event>
12    1  0.1026879E-001  0.3177217E+03  0.7546771E-02  0.1076809E+00
         21   -1    0    0  501  502  0.00000000000E+00  0.00000000000E+00  0.63420547636E+03  0.63420547636E+03  0.00000000000E+00 0.  1.
         21   -1    0    0  502  503 -0.00000000000E+00 -0.00000000000E+00 -0.16548961258E+03  0.16548961258E+03  0.00000000000E+00 0. -1.
         -6    2    1    2    0  503  0.13941574628E+03  0.22661340689E+03  0.15377670043E+03  0.35297922165E+03  0.17365676154E+03 0.  0.
        -24    2    3    3    0    0  0.13344285190E+02  0.12486181099E+03  0.11708970473E+03  0.18680032340E+03  0.73592255553E+02 0.  0.
          6    2    1    2  501    0 -0.13941574628E+03 -0.22661340689E+03  0.31493916335E+03  0.44671586729E+03  0.17198256592E+03 0.  0.
         24    2    5    5    0    0 -0.22421348359E+02 -0.15579249357E+03  0.20909407854E+03  0.27371713062E+03  0.80166801118E+02 0.  0.
          5    1    5    5  501    0 -0.11699439792E+03 -0.70820913317E+02  0.10584508481E+03  0.17299873666E+03  0.47000000000E+01 0. -1.
        -11    1    6    6    0    0 -0.86999571203E+01  0.25426652045E+01  0.42571705526E+02  0.43525906213E+02  0.00000000000E+00 0.  1.
         12    1    6    6    0    0 -0.13721391239E+02 -0.15833515878E+03  0.16652237301E+03  0.23019122441E+03  0.00000000000E+00 0. -1.
         -5    1    3    3    0  503  0.12607146109E+03  0.10175159590E+03  0.36686995692E+02  0.16617889825E+03  0.47000000000E+01 0.  1.
         13    1    4    4    0    0  0.52272659815E+01  0.52279003008E+02  0.46799425925E+01  0.52747704479E+02  0.00000000000E+00 0. -1.
        -14    1    4    4    0    0  0.81170192084E+01  0.72582807984E+02  0.11240976214E+03  0.13405261892E+03  0.00000000000E+00 0.  1.
<mgrwt>
<rscale>  2 0.31749343E+03</rscale>
<asrwt>0</asrwt>
<pdfrwt beam="1">  1       21 0.97570072E-01 0.31772167E+03</pdfrwt>
<pdfrwt beam="2">  1       21 0.25459941E-01 0.31772167E+03</pdfrwt>
<totfact> 0.11896458E+04</totfact>
</mgrwt>
</event>
<event>
12    1  0.1026879E-001  0.2706465E+03  0.7546771E-02  0.1101048E+00
         21   -1    0    0  501  502  0.00000000000E+00  0.00000000000E+00  0.28269483697E+04  0.28269483697E+04  0.00000000000E+00 0. -1.
         21   -1    0    0  502  503 -0.00000000000E+00 -0.00000000000E+00 -0.54028465826E+02  0.54028465826E+02  0.00000000000E+00 0. -1.
         -6    2    1    2    0  503  0.20536845976E+03  0.28723878127E+02  0.34441311181E+03  0.43743540043E+03  0.17241830681E+03 0.  0.
        -24    2    3    3    0    0  0.21945204571E+03  0.18525443660E+02  0.27480723934E+03  0.36553670127E+03  0.97957484429E+02 0.  0.
          6    2    1    2  501    0 -0.20536845976E+03 -0.28723878127E+02  0.24285067920E+04  0.24435414351E+04  0.17392021294E+03 0.  0.
         24    2    5    5    0    0 -0.21787752523E+03 -0.46124909458E+02  0.23535841278E+04  0.23654724385E+04  0.80644202136E+02 0.  0.
          5    1    5    5  501    0  0.12509065465E+02  0.17401031331E+02  0.74922664212E+02  0.78068996553E+02  0.47000000000E+01 0. -1.
        -13    1    6    6    0    0 -0.17695102479E+03 -0.52463277686E+01  0.16319621118E+04  0.16415357210E+04  0.00000000000E+00 0.  1.
         14    1    6    6    0    0 -0.40926500439E+02 -0.40878581689E+02  0.72162201603E+03  0.72393671747E+03  0.00000000000E+00 0. -1.
         -5    1    3    3    0  503 -0.14083585944E+02  0.10198434467E+02  0.69605872468E+02  0.71898699158E+02  0.47000000000E+01 0.  1.
         11    1    4    4    0    0  0.14848786794E+03  0.17430508578E+02  0.24817906718E+03  0.28973318578E+03  0.00000000000E+00 0. -1.
        -12    1    4    4    0    0  0.70964177765E+02  0.10949350818E+01  0.26628172161E+02  0.75803515495E+02  0.00000000000E+00 0.  1.
<mgrwt>
<rscale>  2 0.27040547E+03</rscale>
<asrwt>0</asrwt>
<pdfrwt beam="1">  1       21 0.43491502E+00 0.27064646E+03</pdfrwt>
<pdfrwt beam="2">  1       21 0.83120738E-02 0.27064646E+03</pdfrwt>
<totfact> 0.52676760E+02</totfact>
</mgrwt>
</event>
<event>
12    1  0.1026879E-001  0.1873379E+03  0.7546771E-02  0.1161305E+00
         21   -1    0    0  503  502  0.00000000000E+00  0.00000000000E+00  0.45634283014E+03  0.45634283014E+03  0.00000000000E+00 0.  1.
         21   -1    0    0  501  503 -0.00000000000E+00 -0.00000000000E+00 -0.64230145221E+03  0.64230145221E+03  0.00000000000E+00 0.  1.
          6    2    1    2  501    0  0.54810478828E+02  0.50585105370E+02 -0.60875955935E+03  0.63693304866E+03  0.17185012630E+03 0.  0.
         24    2    3    3    0    0 -0.98326855063E+01 -0.21612589183E+02 -0.38914245649E+03  0.39683930101E+03  0.74066143885E+02 0.  0.
         -6    2    1    2    0  502 -0.54810478828E+02 -0.50585105370E+02  0.42280093728E+03  0.46171123369E+03  0.16986344301E+03 0.  0.
        -24    2    5    5    0    0 -0.95348786705E+02 -0.36386987196E+01  0.29150171504E+03  0.31642222769E+03  0.77750530864E+02 0.  0.
          5    1    3    3  501    0  0.64643164334E+02  0.72197694553E+02 -0.21961710286E+03  0.24009374765E+03  0.47000000000E+01 0. -1.
        -13    1    4    4    0    0  0.29008409404E+02 -0.22649938991E+02 -0.23557899371E+03  0.23843651111E+03  0.00000000000E+00 0.  1.
         14    1    4    4    0    0 -0.38841094910E+02  0.10373498076E+01 -0.15356346278E+03  0.15840278990E+03  0.00000000000E+00 0. -1.
         -5    1    5    5    0  502  0.40538307877E+02 -0.46946406651E+02  0.13129922224E+03  0.14528900600E+03  0.47000000000E+01 0.  1.
         13    1    6    6    0    0 -0.93572313910E+02 -0.24411664726E+02  0.19460723793E+03  0.21731011104E+03  0.00000000000E+00 0. -1.
        -14    1    6    6    0    0 -0.17764727955E+01  0.20772966006E+02  0.96894477111E+02  0.99112116651E+02  0.00000000000E+00 0.  1.
<mgrwt>
<rscale>  2 0.18688109E+03</rscale>
<asrwt>0</asrwt>
<pdfrwt beam="1">  1       21 0.70206589E-01 0.18733795E+03</pdfrwt>
<pdfrwt beam="2">  1       21 0.98815608E-01 0.18733795E+03</pdfrwt>
<totfact> 0.15624584E+03</totfact>
</mgrwt>
</event>
<event>
12    1  0.1026879E-001  0.3142627E+03  0.7546771E-02  0.1078602E+00
         21   -1    0    0  501  502  0.00000000000E+00  0.00000000000E+00  0.21457422988E+04  0.21457422988E+04  0.00000000000E+00 0.  1.
         21   -1    0    0  502  503 -0.00000000000E+00 -0.00000000000E+00 -0.45679246186E+02  0.45679246186E+02  0.00000000000E+00 0. -1.
         -6    2    1    2    0  503 -0.25809270860E+03  0.46779160130E+02  0.10588403402E+04  0.11044925962E+04  0.17309215139E+03 0.  0.
        -24    2    3    3    0    0 -0.63704991712E+02 -0.14478032428E+02  0.23338131524E+03  0.25423162445E+03  0.76804564808E+02 0.  0.
          6    2    1    2  501    0  0.25809270860E+03 -0.46779160130E+02  0.10412227123E+04  0.10869289487E+04  0.16872956734E+03 0.  0.
         24    2    5    5    0    0  0.15949489675E+03 -0.19525481111E+02  0.41292955288E+03  0.45034535193E+03  0.80500023993E+02 0.  0.
          5    1    5    5  501    0  0.98597811858E+02 -0.27253679019E+02  0.62829315945E+03  0.63658359682E+03  0.47000000000E+01 0. -1.
        -13    1    6    6    0    0  0.98259514441E+02 -0.50677789969E+02  0.27007991239E+03  0.29183270833E+03  0.00000000000E+00 0.  1.
         14    1    6    6    0    0  0.61235382306E+02  0.31152308858E+02  0.14284964049E+03  0.15851264360E+03  0.00000000000E+00 0. -1.
         -5    1    3    3    0  503 -0.19438771689E+03  0.61257192558E+02  0.82545902500E+03  0.85026097174E+03  0.47000000000E+01 0.  1.
         11    1    4    4    0    0 -0.43959129218E+02 -0.30527037321E+02  0.21805538689E+03  0.22452718499E+03  0.00000000000E+00 0. -1.
        -12    1    4    4    0    0 -0.19745862494E+02  0.16049004893E+02  0.15325928352E+02  0.29704439458E+02  0.00000000000E+00 0.  1.
<mgrwt>
<rscale>  2 0.31366557E+03</rscale>
<asrwt>0</asrwt>
<pdfrwt beam="1">  1       21 0.33011412E+00 0.31426268E+03</pdfrwt>
<pdfrwt beam="2">  1       21 0.70275780E-02 0.31426268E+03</pdfrwt>
<totfact> 0.30464921E+03</totfact>
</mgrwt>
</event>
<event>
12    1  0.1026879E-001  0.1925069E+03  0.7546771E-02  0.1159243E+00
         21   -1    0    0  501  502  0.00000000000E+00  0.00000000000E+00  0.21168255040E+03  0.21168255040E+03  0.00000000000E+00 0. -1.
         21   -1    0    0  502  503 -0.00000000000E+00 -0.00000000000E+00 -0.17786282709E+03  0.17786282709E+03  0.00000000000E+00 0.  1.
         -6    2    1    2    0  503  0.80720174562E+02  0.73979337980E+01 -0.38189763854E+02  0.19625840156E+03  0.17460935288E+03 0.  0.
        -24    2    3    3    0    0 -0.19994584396E+02 -0.11304085207E+02  0.22787637385E+02  0.76953910244E+02  0.69821645187E+02 0.  0.
          6    2    1    2  501    0 -0.80720174562E+02 -0.73979337980E+01  0.72009487158E+02  0.19328697593E+03  0.16001253956E+03 0.  0.
         24    2    5    5    0    0 -0.85246493138E+02 -0.49369526873E+02  0.23652700315E+02  0.12892416820E+03  0.79735037073E+02 0.  0.
          5    1    5    5  501    0  0.45263185757E+01  0.41971593075E+02  0.48356786844E+02  0.64362807731E+02  0.47000000000E+01 0. -1.
        -13    1    6    6    0    0 -0.69007591997E+02  0.25497068303E+01 -0.13181014470E+01  0.69067258159E+02  0.00000000000E+00 0.  1.
         14    1    6    6    0    0 -0.16238901140E+02 -0.51919233704E+02  0.24970801762E+02  0.59856910038E+02  0.00000000000E+00 0. -1.
         -5    1    3    3    0  503  0.10071475896E+03  0.18702019005E+02 -0.60977401240E+02  0.11930449132E+03  0.47000000000E+01 0.  1.
         13    1    4    4    0    0 -0.49527571673E+01 -0.40188393181E+02  0.84173433787E+01  0.41358051449E+02  0.00000000000E+00 0. -1.
        -14    1    4    4    0    0 -0.15041827229E+02  0.28884307974E+02  0.14370294007E+02  0.35595858795E+02  0.00000000000E+00 0.  1.
<mgrwt>
<rscale>  2 0.18913577E+03</rscale>
<asrwt>0</asrwt>
<pdfrwt beam="1">  1       21 0.32566546E-01 0.19250689E+03</pdfrwt>
<pdfrwt beam="2">  1       21 0.27363512E-01 0.19250689E+03</pdfrwt>
<totfact> 0.11558442E+05</totfact>
</mgrwt>
</event>
<event>
12    1  0.1026879E-001  0.3707973E+03  0.7546771E-02  0.1054407E+00
         21   -1    0    0  503  502  0.00000000000E+00  0.00000000000E+00  0.92420902517E+03  0.92420902517E+03  0.00000000000E+00 0. -1.
         21   -1    0    0  501  503 -0.00000000000E+00 -0.00000000000E+00 -0.23055646779E+03  0.23055646779E+03  0.00000000000E+00 0.  1.
          6    2    1    2  501    0 -0.12522606911E+03 -0.30309458854E+03  0.27029090904E+01  0.37060856332E+03  0.17261374077E+03 0.  0.
         24    2    3    3    0    0 -0.65501340475E+02 -0.28199146068E+03  0.29427712644E+02  0.30169782148E+03  0.79661632619E+02 0.  0.
         -6    2    1    2    0  502  0.12522606911E+03  0.30309458854E+03  0.69094964829E+03  0.78415692964E+03  0.17303980999E+03 0.  0.
        -24    2    5    5    0    0  0.32042779571E+02  0.95918468526E+02  0.36269860159E+03  0.38493780458E+03  0.79998409191E+02 0.  0.
          5    1    3    3  501    0 -0.59724728631E+02 -0.21103127850E+02 -0.26724803554E+02  0.68910741834E+02  0.47000000000E+01 0. -1.
        -11    1    4    4    0    0 -0.60422585070E+02 -0.15435662596E+03 -0.15041925178E+02  0.16644253146E+03  0.00000000000E+00 0.  1.
         12    1    4    4    0    0 -0.50787554054E+01 -0.12763483473E+03  0.44469637822E+02  0.13525529003E+03  0.00000000000E+00 0. -1.
         -5    1    5    5    0  502  0.93183289536E+02  0.20717612001E+03  0.32825104670E+03  0.39921912506E+03  0.47000000000E+01 0.  1.
         13    1    6    6    0    0  0.37010516818E+02  0.29423560629E+02  0.68211930528E+02  0.82996335712E+02  0.00000000000E+00 0. -1.
        -14    1    6    6    0    0 -0.49677372470E+01  0.66494907897E+02  0.29448667106E+03  0.30194146887E+03  0.00000000000E+00 0.  1.
<mgrwt>
<rscale>  2 0.37074768E+03</rscale>
<asrwt>0</asrwt>
<pdfrwt beam="1">  1       21 0.14218600E+00 0.37079735E+03</pdfrwt>
<pdfrwt beam="2">  1       21 0.35470226E-01 0.37079735E+03</pdfrwt>
<totfact> 0.23424207E+03</totfact>
</mgrwt>
</event>
<event>
12    1  0.1026879E-001  0.2270932E+03  0.7546771E-02  0.1130108E+00
         21   -1    0    0  501  502  0.00000000000E+00  0.00000000000E+00  0.35511923228E+03  0.35511923228E+03  0.00000000000E+00 0.  1.
         21   -1    0    0  502  503 -0.00000000000E+00 -0.00000000000E+00 -0.16776926986E+03  0.16776926986E+03  0.00000000000E+00 0.  1.
         -6    2    1    2    0  503  0.58530014844E+02 -0.12115289479E+03 -0.10685057238E+02  0.22734438570E+03  0.18294128214E+03 0.  0.
        -24    2    3    3    0    0  0.44629339448E+02 -0.85429412433E+02  0.66086185190E+02  0.14140656148E+03  0.79614504388E+02 0.  0.
          6    2    1    2  501    0 -0.58530014844E+02  0.12115289479E+03  0.19803501966E+03  0.29554411644E+03  0.17327627997E+03 0.  0.
         24    2    5    5    0    0 -0.11429415899E+02  0.11583444495E+03  0.69685515139E+02  0.15864109369E+03  0.82235487475E+02 0.  0.
          5    1    5    5  501    0 -0.47100598945E+02  0.53184498318E+01  0.12834950452E+03  0.13690302276E+03  0.47000000000E+01 0. -1.
        -13    1    6    6    0    0 -0.68419903338E+01  0.19013545674E+02  0.57501578621E+02  0.60948825212E+02  0.00000000000E+00 0.  1.
         14    1    6    6    0    0 -0.45874255650E+01  0.96820899280E+02  0.12183936518E+02  0.97692268475E+02  0.00000000000E+00 0. -1.
         -5    1    3    3    0  503  0.13900675396E+02 -0.35723482352E+02 -0.76771242428E+02  0.85937824221E+02  0.47000000000E+01 0.  1.
         13    1    4    4    0    0  0.55079262635E+02 -0.87310755202E+02  0.74953276006E+02  0.12757306428E+03  0.00000000000E+00 0. -1.
        -14    1    4    4    0    0 -0.10449923187E+02  0.18813427691E+01 -0.88670908156E+01  0.13833497199E+02  0.00000000000E+00 0.  1.
<mgrwt>
<rscale>  2 0.22514031E+03</rscale>
<asrwt>0</asrwt>
<pdfrwt beam="1">  1       21 0.54633728E-01 0.22709315E+03</pdfrwt>
<pdfrwt beam="2">  1       21 0.25810657E-01 0.22709315E+03</pdfrwt>
<totfact> 0.44338514E+04</totfact>
</mgrwt>
</event>
<event>
12    1  0.1026879E-001  0.2467554E+03  0.7546771E-02  0.1115548E+00
         21   -1    0    0  501  502  0.00000000000E+00  0.00000000000E+00  0.17021522749E+03  0.17021522749E+03  0.00000000000E+00 0.  1.
         21   -1    0    0  502  503 -0.00000000000E+00 -0.00000000000E+00 -0.89848759825E+03  0.89848759825E+03  0.00000000000E+00 0. -1.
         -6    2    1    2    0  503 -0.15573889766E+03  0.79304677602E+02 -0.77897206826E+03  0.81679275038E+03  0.17265305622E+03 0.  0.
        -24    2    3    3    0    0 -0.97567020265E+02  0.70079174135E+02 -0.28910822589E+03  0.32337836947E+03  0.80991292576E+02 0.  0.
          6    2    1    2  501    0  0.15573889766E+03 -0.79304677602E+02  0.50699697488E+02  0.25191007536E+03  0.17419641387E+03 0.  0.
         24    2    5    5    0    0  0.18184800433E+03 -0.48361633249E+02  0.34102251647E+02  0.20790186415E+03  0.81563946082E+02 0.  0.
          5    1    5    5  501    0 -0.26109106669E+02 -0.30943044353E+02  0.16597445841E+02  0.44008211204E+02  0.47000000000E+01 0. -1.
        -13    1    6    6    0    0  0.66038043747E+02  0.60448017347E+01  0.43972670713E+02  0.79568578092E+02  0.00000000000E+00 0.  1.
         14    1    6    6    0    0  0.11580996059E+03 -0.54406434984E+02 -0.98704190665E+01  0.12833328606E+03  0.00000000000E+00 0. -1.
         -5    1    3    3    0  503 -0.58171877398E+02  0.92255034678E+01 -0.48986384236E+03  0.49341438091E+03  0.47000000000E+01 0.  1.
         11    1    4    4    0    0 -0.11992463436E+02  0.48292120321E+02 -0.15514804582E+03  0.16293208458E+03  0.00000000000E+00 0. -1.
        -12    1    4    4    0    0 -0.85574556829E+02  0.21787053814E+02 -0.13396018008E+03  0.16044628489E+03  0.00000000000E+00 0.  1.
<mgrwt>
<rscale>  2 0.24648317E+03</rscale>
<asrwt>0</asrwt>
<pdfrwt beam="1">  1       21 0.26186958E-01 0.24675540E+03</pdfrwt>
<pdfrwt beam="2">  1       21 0.13822886E+00 0.24675540E+03</pdfrwt>
<totfact> 0.49211093E+03</totfact>
</mgrwt>
</event>
<event>
12    1  0.1026879E-001  0.1914773E+03  0.7546771E-02  0.1158151E+00
         21   -1    0    0  503  502  0.00000000000E+00  0.00000000000E+00  0.55600710749E+03  0.55600710749E+03  0.00000000000E+00 0.  1.
         21   -1    0    0  501  503 -0.00000000000E+00 -0.00000000000E+00 -0.76331768163E+02  0.76331768163E+02  0.00000000000E+00 0.  1.
          6    2    1    2  501    0 -0.23658925687E+02  0.74911896712E+02  0.11246012802E+03  0.21820053737E+03  0.16968399182E+03 0.  0.
         24    2    3    3    0    0 -0.75596719557E+02  0.66603361298E+02  0.10268532774E+03  0.16449576185E+03  0.79772848698E+02 0.  0.
         -6    2    1    2    0  502  0.23658925687E+02 -0.74911896712E+02  0.36721521131E+03  0.41413833828E+03  0.17461962887E+03 0.  0.
        -24    2    5    5    0    0  0.34890636378E+02 -0.19838933854E+02  0.76768146377E+02  0.11826544312E+03  0.80513520205E+02 0.  0.
          5    1    3    3  501    0  0.51937793870E+02  0.83085354143E+01  0.97748002732E+01  0.53704775516E+02  0.47000000000E+01 0. -1.
        -11    1    4    4    0    0 -0.20758414745E+01  0.32355141605E+02 -0.15070944718E+01  0.32456673271E+02  0.00000000000E+00 0.  1.
         12    1    4    4    0    0 -0.73520878083E+02  0.34248219693E+02  0.10419242221E+03  0.13203908858E+03  0.00000000000E+00 0. -1.
         -5    1    5    5    0  502 -0.11231710691E+02 -0.55072962858E+02  0.29044706493E+03  0.29587289516E+03  0.47000000000E+01 0.  1.
         13    1    6    6    0    0  0.42974599794E+02 -0.44553810581E+02  0.41819887870E+02  0.74704493078E+02  0.00000000000E+00 0. -1.
        -14    1    6    6    0    0 -0.80839634160E+01  0.24714876727E+02  0.34948258508E+02  0.43560950045E+02  0.00000000000E+00 0.  1.
<mgrwt>
<rscale>  2 0.19034474E+03</rscale>
<asrwt>0</asrwt>
<pdfrwt beam="1">  1       21 0.85539552E-01 0.19147729E+03</pdfrwt>
<pdfrwt beam="2">  1       21 0.11743349E-01 0.19147729E+03</pdfrwt>
<totfact> 0.72075786E+04</totfact>
</mgrwt>
</event>
<event>
12    1  0.1026879E-001  0.2176807E+03  0.7546771E-02  0.1135887E+00
         21   -1    0    0  503  502  0.00000000000E+00  0.00000000000E+00  0.19290565624E+03  0.19290565624E+03  0.00000000000E+00 0.  1.
         21   -1    0    0  501  503 -0.00000000000E+00 -0.00000000000E+00 -0.36338840731E+03  0.36338840731E+03  0.00000000000E+00 0. -1.
          6    2    1    2  501    0  0.12719523821E+03  0.26906078659E+02 -0.24480242037E+03  0.32758681518E+03  0.17459189776E+03 0.  0.
         24    2    3    3    0    0  0.24169828413E+02  0.61736375072E+01 -0.19304775522E+03  0.21034900325E+03  0.79730627535E+02 0.  0.
         -6    2    1    2    0  502 -0.12719523821E+03 -0.26906078659E+02  0.74319669307E+02  0.22870724837E+03  0.17286129272E+03 0.  0.
        -24    2    5    5    0    0 -0.27113754983E+02  0.24531430974E+02 -0.94475962958E+01  0.88346408147E+02  0.79867915598E+02 0.  0.
          5    1    3    3  501    0  0.10302540980E+03  0.20732441152E+02 -0.51754665154E+02  0.11723781193E+03  0.47000000000E+01 0. -1.
        -13    1    4    4    0    0  0.12450104493E+02  0.88068388554E+01  0.15974278025E+01  0.15333534756E+02  0.00000000000E+00 0.  1.
         14    1    4    4    0    0  0.11719723920E+02 -0.26332013483E+01 -0.19464518302E+03  0.19501546850E+03  0.00000000000E+00 0. -1.
         -5    1    5    5    0  502 -0.10008148323E+03 -0.51437509633E+02  0.83767265602E+02  0.14036084023E+03  0.47000000000E+01 0.  1.
         11    1    6    6    0    0 -0.51559525258E+02 -0.22119468609E+01 -0.54544496839E+01  0.51894396375E+02  0.00000000000E+00 0. -1.
        -12    1    6    6    0    0  0.24445770276E+02  0.26743377835E+02 -0.39931466119E+01  0.36452011772E+02  0.00000000000E+00 0.  1.
<mgrwt>
<rscale>  2 0.21733350E+03</rscale>
<asrwt>0</asrwt>
<pdfrwt beam="1">  1       21 0.29677794E-01 0.21768072E+03</pdfrwt>
<pdfrwt beam="2">  1       21 0.55905908E-01 0.21768072E+03</pdfrwt>
<totfact> 0.32359267E+04</totfact>
</mgrwt>
</event>
<event>
12    1  0.1026879E-001  0.3091736E+03  0.7546771E-02  0.1080843E+00
         21   -1    0    0  501  502  0.00000000000E+00  0.00000000000E+00  0.15805545554E+03  0.15805545554E+03  0.00000000000E+00 0.  1.
         21   -1    0    0  502  503 -0.00000000000E+00 -0.00000000000E+00 -0.63852755935E+03  0.63852755935E+03  0.00000000000E+00 0.  1.
         -6    2    1    2    0  503 -0.45542888490E+02  0.25144655137E+03 -0.14678785127E+03  0.34224993143E+03  0.17403683345E+03 0.  0.
        -24    2    3    3    0    0  0.84399048951E+01  0.43847473529E+02 -0.24236651909E+02  0.95162081534E+02  0.80464734739E+02 0.  0.
          6    2    1    2  501    0  0.45542888490E+02 -0.25144655137E+03 -0.33368425254E+03  0.45433308346E+03  0.17255099957E+03 0.  0.
         24    2    5    5    0    0  0.59917745254E+01 -0.18891049799E+03 -0.14795701878E+03  0.25435372466E+03  0.84151412521E+02 0.  0.
          5    1    5    5  501    0  0.39551113964E+02 -0.62536053377E+02 -0.18572723376E+03  0.19997935881E+03  0.47000000000E+01 0. -1.
        -11    1    6    6    0    0 -0.31288256686E+02 -0.99607179978E+02 -0.46968766235E+02  0.11448410506E+03  0.00000000000E+00 0.  1.
         12    1    6    6    0    0  0.37280031212E+02 -0.89303318011E+02 -0.10098825254E+03  0.13986961960E+03  0.00000000000E+00 0. -1.
         -5    1    3    3    0  503 -0.53982793385E+02  0.20759907784E+03 -0.12255119936E+03  0.24708784989E+03  0.47000000000E+01 0.  1.
         13    1    4    4    0    0  0.35960814721E+02  0.48925350395E+02 -0.44385397416E+01  0.60881612509E+02  0.00000000000E+00 0. -1.
        -14    1    4    4    0    0 -0.27520909826E+02 -0.50778768661E+01 -0.19798112168E+02  0.34280469024E+02  0.00000000000E+00 0.  1.
<mgrwt>
<rscale>  2 0.30896495E+03</rscale>
<asrwt>0</asrwt>
<pdfrwt beam="1">  1       21 0.24316224E-01 0.30917364E+03</pdfrwt>
<pdfrwt beam="2">  1       21 0.98235010E-01 0.30917364E+03</pdfrwt>
<totfact> 0.12837329E+04</totfact>
</mgrwt>
</event>
<event>
12    1  0.1026879E-001  0.1928930E+03  0.7546771E-02  0.1156303E+00
         21   -1    0    0  501  502  0.00000000000E+00  0.00000000000E+00  0.16371680107E+03  0.16371680107E+03  0.00000000000E+00 0.  1.
         21   -1    0    0  502  503 -0.00000000000E+00 -0.00000000000E+00 -0.22523444356E+03  0.22523444356E+03  0.00000000000E+00 0.  1.
         -6    2    1    2    0  503  0.42025286312E+02  0.70876048759E+02 -0.36929281390E+02  0.19639627055E+03  0.17440809695E+03 0.  0.
        -24    2    3    3    0    0  0.11469646740E+02  0.74648737630E+02 -0.84836143661E+02  0.13925576177E+03  0.80566798917E+02 0.  0.
          6    2    1    2  501    0 -0.42025286312E+02 -0.70876048759E+02 -0.24588361101E+02  0.19255497408E+03  0.17228839649E+03 0.  0.
         24    2    5    5    0    0 -0.88098057657E+02 -0.83147429530E+02 -0.14187397425E+02  0.14352888826E+03  0.75660403911E+02 0.  0.
          5    1    5    5  501    0  0.46072771345E+02  0.12271380770E+02 -0.10400963676E+02  0.49026085820E+02  0.47000000000E+01 0. -1.
        -13    1    6    6    0    0 -0.27570119132E+02 -0.33641886148E+01  0.23644928913E+02  0.36476182603E+02  0.00000000000E+00 0.  1.
         14    1    6    6    0    0 -0.60527938525E+02 -0.79783240915E+02 -0.37832326338E+02  0.10705270566E+03  0.00000000000E+00 0. -1.
         -5    1    3    3    0  503  0.30555639572E+02 -0.37726888705E+01  0.47906862271E+02  0.57140508780E+02  0.47000000000E+01 0.  1.
         13    1    4    4    0    0  0.17619597278E+02  0.60157093502E+02 -0.10853836931E+02  0.63617072260E+02  0.00000000000E+00 0. -1.
        -14    1    4    4    0    0 -0.61499505378E+01  0.14491644128E+02 -0.73982306729E+02  0.75638689506E+02  0.00000000000E+00 0.  1.
<mgrwt>
<rscale>  2 0.19241264E+03</rscale>
<asrwt>0</asrwt>
<pdfrwt beam="1">  1       21 0.25187200E-01 0.19289304E+03</pdfrwt>
<pdfrwt beam="2">  1       21 0.34651453E-01 0.19289304E+03</pdfrwt>
<totfact> 0.11986387E+05</totfact>
</mgrwt>
</event>
<event>
12    1  0.1026879E-001  0.2016552E+03  0.7546771E-02  0.1148653E+00
         21   -1    0    0  503  502  0.00000000000E+00  0.00000000000E+00  0.20347638225E+03  0.20347638225E+03  0.00000000000E+00 0.  1.
         21   -1    0    0  501  503 -0.00000000000E+00 -0.00000000000E+00 -0.52178657822E+03  0.52178657822E+03  0.00000000000E+00 0. -1.
          6    2    1    2  501    0 -0.10098807830E+03 -0.18995645897E+02 -0.44484571737E+03  0.48841837984E+03  0.17350900549E+03 0.  0.
         24    2    3    3    0    0 -0.10302224452E+02 -0.10618026660E+02 -0.88976669522E+02  0.12105074680E+03  0.80731389578E+02 0.  0.
         -6    2    1    2    0  502  0.10098807830E+03  0.18995645897E+02  0.12653552140E+03  0.23684458062E+03  0.17182750266E+03 0.  0.
        -24    2    5    5    0    0  0.94864009327E+02  0.69941326116E+02  0.11564349272E+03  0.18417872031E+03  0.81592979110E+02 0.  0.
          5    1    3    3  501    0 -0.90685853848E+02 -0.83776192370E+01 -0.35586904785E+03  0.36736763304E+03  0.47000000000E+01 0. -1.
        -11    1    4    4    0    0 -0.41062100821E+02  0.10806928698E+02 -0.33442464230E+02  0.54048906053E+02  0.00000000000E+00 0.  1.
         12    1    4    4    0    0  0.30759876369E+02 -0.21424955358E+02 -0.55534205292E+02  0.67001840749E+02  0.00000000000E+00 0. -1.
         -5    1    5    5    0  502  0.61240689723E+01 -0.50945680220E+02  0.10892028672E+02  0.52665860312E+02  0.47000000000E+01 0.  1.
         13    1    6    6    0    0  0.18548593145E+02 -0.43354322788E+01 -0.82911195016E+01  0.20774718850E+02  0.00000000000E+00 0. -1.
        -14    1    6    6    0    0  0.76315416182E+02  0.74276758395E+02  0.12393461223E+03  0.16340400146E+03  0.00000000000E+00 0.  1.
<mgrwt>
<rscale>  2 0.20129294E+03</rscale>
<asrwt>0</asrwt>
<pdfrwt beam="1">  1       21 0.31304059E-01 0.20165515E+03</pdfrwt>
<pdfrwt beam="2">  1       21 0.80274858E-01 0.20165515E+03</pdfrwt>
<totfact> 0.13303463E+04</totfact>
</mgrwt>
</event>
<event>
12    1  0.1026879E-001  0.2323602E+03  0.7546771E-02  0.1126144E+00
         21   -1    0    0  501  502  0.00000000000E+00  0.00000000000E+00  0.22963094938E+03  0.22963094938E+03  0.00000000000E+00 0. -1.
         21   -1    0    0  502  503 -0.00000000000E+00 -0.00000000000E+00 -0.67816233938E+03  0.67816233938E+03  0.00000000000E+00 0.  1.
         -6    2    1    2    0  503  0.12511176526E+03  0.72465155887E+02 -0.59275657623E+03  0.63431172857E+03  0.17345563617E+03 0.  0.
        -24    2    3    3    0    0  0.32327829427E+01 -0.61454098801E+01 -0.19131813318E+03  0.20745224239E+03  0.79909873257E+02 0.  0.
          6    2    1    2  501    0 -0.12511176526E+03 -0.72465155887E+02  0.14422518623E+03  0.27348156018E+03  0.18189861680E+03 0.  0.
         24    2    5    5    0    0 -0.17439220139E+02 -0.77949613591E+02  0.30342732398E+02  0.11659064413E+03  0.79324827335E+02 0.  0.
          5    1    5    5  501    0 -0.10767254512E+03  0.54844577040E+01  0.11388245384E+03  0.15689091605E+03  0.47000000000E+01 0. -1.
        -13    1    6    6    0    0 -0.22775432485E+02 -0.66657059754E+02  0.54721772094E+02  0.89198409632E+02  0.00000000000E+00 0.  1.
         14    1    6    6    0    0  0.53362123457E+01 -0.11292553837E+02 -0.24379039696E+02  0.27392234499E+02  0.00000000000E+00 0. -1.
         -5    1    3    3    0  503  0.12187898231E+03  0.78610565767E+02 -0.40143844305E+03  0.42685948618E+03  0.47000000000E+01 0.  1.
         13    1    4    4    0    0  0.40344201226E+02  0.54413858200E+01 -0.84923104711E+02  0.94176414065E+02  0.00000000000E+00 0. -1.
        -14    1    4    4    0    0 -0.37111418284E+02 -0.11586795700E+02 -0.10639502847E+03  0.11327582833E+03  0.00000000000E+00 0.  1.
<mgrwt>
<rscale>  2 0.23070553E+03</rscale>
<asrwt>0</asrwt>
<pdfrwt beam="1">  1       21 0.35327838E-01 0.23236019E+03</pdfrwt>
<pdfrwt beam="2">  1       21 0.10433267E+00 0.23236019E+03</pdfrwt>
<totfact> 0.55661869E+03</totfact>
</mgrwt>
</event>
<event>
12    1  0.1026879E-001  0.2091800E+03  0.7546771E-02  0.1142376E+00
         21   -1    0    0  501  502  0.00000000000E+00  0.00000000000E+00  0.55829333856E+03  0.55829333856E+03  0.00000000000E+00 0. -1.
         21   -1    0    0  502  503 -0.00000000000E+00 -0.00000000000E+00 -0.13285522949E+03  0.13285522949E+03  0.00000000000E+00 0. -1.
         -6    2    1    2    0  503 -0.21268273866E+02  0.11631441172E+03 -0.89414328510E+01  0.20937098517E+03  0.17255398680E+03 0.  0.
        -24    2    3    3    0    0 -0.12332841551E+02 -0.20229548011E+01 -0.32212867017E+02  0.88345269250E+02  0.81308218961E+02 0.  0.
          6    2    1    2  501    0  0.21268273866E+02 -0.11631441172E+03  0.43437954192E+03  0.48177758288E+03  0.17158866828E+03 0.  0.
         24    2    5    5    0    0  0.76961334597E+02 -0.79712591215E+02  0.23835168537E+03  0.27467755675E+03  0.79743902866E+02 0.  0.
          5    1    5    5  501    0 -0.55693060731E+02 -0.36601820500E+02  0.19602785656E+03  0.20710002613E+03  0.47000000000E+01 0. -1.
        -13    1    6    6    0    0  0.62175686455E+02 -0.95968844976E+02  0.19436673091E+03  0.22550889401E+03  0.00000000000E+00 0.  1.
         14    1    6    6    0    0  0.14785648142E+02  0.16256253761E+02  0.43984954459E+02  0.49168662745E+02  0.00000000000E+00 0. -1.
         -5    1    3    3    0  503 -0.89354323147E+01  0.11833736652E+03  0.23271434166E+02  0.12102571592E+03  0.47000000000E+01 0.  1.
         11    1    4    4    0    0 -0.27144074477E+02  0.33473843527E+02 -0.11249219556E+02  0.44540362822E+02  0.00000000000E+00 0. -1.
        -12    1    4    4    0    0  0.14811232926E+02 -0.35496798328E+02 -0.20963647461E+02  0.43804906428E+02  0.00000000000E+00 0.  1.
<mgrwt>
<rscale>  2 0.20898079E+03</rscale>
<asrwt>0</asrwt>
<pdfrwt beam="1">  1       21 0.85891281E-01 0.20917997E+03</pdfrwt>
<pdfrwt beam="2">  1       21 0.20439266E-01 0.20917997E+03</pdfrwt>
<totfact> 0.25685387E+04</totfact>
</mgrwt>
</event>
<event>
12    1  0.1026879E-001  0.4022600E+03  0.7546771E-02  0.1043061E+00
         21   -1    0    0  503  502  0.00000000000E+00  0.00000000000E+00  0.30605391176E+03  0.30605391176E+03  0.00000000000E+00 0. -1.
         21   -1    0    0  501  503 -0.00000000000E+00 -0.00000000000E+00 -0.55301424709E+03  0.55301424709E+03  0.00000000000E+00 0.  1.
          6    2    1    2  501    0  0.78737486494E+02 -0.35421828009E+03 -0.21535065777E+03  0.45627730451E+03  0.17361708177E+03 0.  0.
         24    2    3    3    0    0 -0.12264696890E+02 -0.20374000333E+03 -0.66562638500E+02  0.22587532137E+03  0.70204445826E+02 0.  0.
         -6    2    1    2    0  502 -0.78737486494E+02  0.35421828009E+03 -0.31609677558E+02  0.40279085433E+03  0.17196255083E+03 0.  0.
        -24    2    5    5    0    0 -0.40317967169E+02  0.65683810830E+02 -0.19750503895E+02  0.11143037414E+03  0.78017590297E+02 0.  0.
          5    1    3    3  501    0  0.91002183384E+02 -0.15047827676E+03 -0.14878801927E+03  0.23040198314E+03  0.47000000000E+01 0. -1.
        -11    1    4    4    0    0  0.12156694836E+02 -0.16164289013E+03 -0.71078682405E+02  0.17699827189E+03  0.00000000000E+00 0.  1.
         12    1    4    4    0    0 -0.24421391726E+02 -0.42097113199E+02  0.45160439047E+01  0.48877049482E+02  0.00000000000E+00 0. -1.
         -5    1    5    5    0  502 -0.38419519326E+02  0.28853446926E+03 -0.11859173663E+02  0.29136048019E+03  0.47000000000E+01 0.  1.
         11    1    6    6    0    0 -0.49527458569E+02  0.73709308836E+02 -0.70759907355E+00  0.88806148761E+02  0.00000000000E+00 0. -1.
        -12    1    6    6    0    0  0.92094913999E+01 -0.80254980058E+01 -0.19042904821E+02  0.22624225382E+02  0.00000000000E+00 0.  1.
<mgrwt>
<rscale>  2 0.40208201E+03</rscale>
<asrwt>0</asrwt>
<pdfrwt beam="1">  1       21 0.47085218E-01 0.40225996E+03</pdfrwt>
<pdfrwt beam="2">  1       21 0.85079114E-01 0.40225996E+03</pdfrwt>
<totfact> 0.46070508E+03</totfact>
</mgrwt>
</event>
<event>
12    1  0.1026879E-001  0.1844850E+03  0.7546771E-02  0.1163906E+00
         21   -1    0    0  503  502  0.00000000000E+00  0.00000000000E+00  0.15700479254E+03  0.15700479254E+03  0.00000000000E+00 0.  1.
         21   -1    0    0  501  503 -0.00000000000E+00 -0.00000000000E+00 -0.29401252832E+03  0.29401252832E+03  0.00000000000E+00 0. -1.
          6    2    1    2  501    0  0.29637197586E+02  0.55361668097E+02  0.48679763963E+02  0.18926446291E+03  0.17177904333E+03 0.  0.
         24    2    3    3    0    0  0.71734595891E+02  0.42654975146E+02  0.79081060868E+02  0.13559901925E+03  0.71888668662E+02 0.  0.
         -6    2    1    2    0  502 -0.29637197586E+02 -0.55361668097E+02 -0.18568749974E+03  0.26175285795E+03  0.17346882519E+03 0.  0.
        -24    2    5    5    0    0  0.50686794522E+02 -0.40238783536E+02 -0.96425975778E+02  0.14063161702E+03  0.79315648272E+02 0.  0.
          5    1    3    3  501    0 -0.42097398305E+02  0.12706692951E+02 -0.30401296904E+02  0.53665443660E+02  0.47000000000E+01 0. -1.
        -11    1    4    4    0    0  0.85030648409E+02  0.33621193565E+02  0.76705857535E+02  0.11934984041E+03  0.00000000000E+00 0.  1.
         12    1    4    4    0    0 -0.13296052518E+02  0.90337815808E+01  0.23752033330E+01  0.16249178844E+02  0.00000000000E+00 0. -1.
         -5    1    5    5    0  502 -0.80323992108E+02 -0.15122884561E+02 -0.89261523965E+02  0.12112124094E+03  0.47000000000E+01 0.  1.
         11    1    6    6    0    0  0.41535724051E+02  0.68384832202E+01 -0.79166094715E+02  0.89661874716E+02  0.00000000000E+00 0. -1.
        -12    1    6    6    0    0  0.91510704715E+01 -0.47077266756E+02 -0.17259881063E+02  0.50969742302E+02  0.00000000000E+00 0.  1.
<mgrwt>
<rscale>  2 0.18408671E+03</rscale>
<asrwt>0</asrwt>
<pdfrwt beam="1">  1       21 0.24154584E-01 0.18448499E+03</pdfrwt>
<pdfrwt beam="2">  1       21 0.45232696E-01 0.18448499E+03</pdfrwt>
<totfact> 0.76086219E+04</totfact>
</mgrwt>
</event>
<event>
12    1  0.1026879E-001  0.1846881E+03  0.7546771E-02  0.1163530E+00
         21   -1    0    0  501  502  0.00000000000E+00  0.00000000000E+00  0.21509184931E+03  0.21509184931E+03  0.00000000000E+00 0. -1.
         21   -1    0    0  502  503 -0.00000000000E+00 -0.00000000000E+00 -0.18828844703E+03  0.18828844703E+03  0.00000000000E+00 0. -1.
         -6    2    1    2    0  503 -0.47828449861E+02 -0.33028311120E+02 -0.67608048722E+02  0.19667368691E+03  0.17530333972E+03 0.  0.
        -24    2    3    3    0    0 -0.71246602189E+02  0.15063041304E+02  0.35109060816E+00  0.11006120135E+03  0.82524973437E+02 0.  0.
          6    2    1    2  501    0  0.47828449861E+02  0.33028311120E+02  0.94411450999E+02  0.20670660943E+03  0.17445821950E+03 0.  0.
         24    2    5    5    0    0  0.51335289757E+02 -0.45522787386E+02  0.48426200529E+02  0.11549637829E+03  0.79288589063E+02 0.  0.
          5    1    5    5  501    0 -0.35068398967E+01  0.78551098506E+02  0.45985250470E+02  0.91210231133E+02  0.47000000000E+01 0. -1.
        -13    1    6    6    0    0  0.59778528118E+02 -0.19403341308E+02  0.58881975489E+02  0.86122291628E+02  0.00000000000E+00 0.  1.
         14    1    6    6    0    0 -0.84432383607E+01 -0.26119446079E+02 -0.10455774960E+02  0.29374086666E+02  0.00000000000E+00 0. -1.
         -5    1    3    3    0  503  0.23418152328E+02 -0.48091352423E+02 -0.67959139330E+02  0.86612485560E+02  0.47000000000E+01 0.  1.
         13    1    4    4    0    0 -0.35441932278E+02 -0.34053694816E+02 -0.24834683795E+01  0.49213334671E+02  0.00000000000E+00 0. -1.
        -14    1    4    4    0    0 -0.35804669911E+02  0.49116736120E+02  0.28345589876E+01  0.60847866677E+02  0.00000000000E+00 0.  1.
<mgrwt>
<rscale>  2 0.18448727E+03</rscale>
<asrwt>0</asrwt>
<pdfrwt beam="1">  1       21 0.33091054E-01 0.18468809E+03</pdfrwt>
<pdfrwt beam="2">  1       21 0.28967453E-01 0.18468809E+03</pdfrwt>
<totfact> 0.10060081E+05</totfact>
</mgrwt>
</event>
<event>
12    1  0.1026879E-001  0.2609952E+03  0.7546771E-02  0.1106550E+00
         21   -1    0    0  501  502  0.00000000000E+00  0.00000000000E+00  0.46112346431E+03  0.46112346431E+03  0.00000000000E+00 0. -1.
         21   -1    0    0  502  503 -0.00000000000E+00 -0.00000000000E+00 -0.24929876413E+03  0.24929876413E+03  0.00000000000E+00 0. -1.
         -6    2    1    2    0  503 -0.14189309835E+03  0.13559963110E+03 -0.12083827056E+03  0.28759464073E+03  0.17201127413E+03 0.  0.
        -24    2    3    3    0    0 -0.94263325164E+01  0.77891907496E+02 -0.79840813597E+02  0.13732652404E+03  0.79548813266E+02 0.  0.
          6    2    1    2  501    0  0.14189309835E+03 -0.13559963110E+03  0.33266297074E+03  0.42282758771E+03  0.17203954637E+03 0.  0.
         24    2    5    5    0    0  0.99376289737E+02 -0.15368036954E+03  0.31623249661E+03  0.37356662348E+03  0.77818553857E+02 0.  0.
          5    1    5    5  501    0  0.42516808614E+02  0.18080738432E+02  0.16430474126E+02  0.49260964230E+02  0.47000000000E+01 0. -1.
        -13    1    6    6    0    0  0.89169648899E+02 -0.13884408718E+03  0.21646775667E+03  0.27218963336E+03  0.00000000000E+00 0.  1.
         14    1    6    6    0    0  0.10206640838E+02 -0.14836282358E+02  0.99764739943E+02  0.10137699013E+03  0.00000000000E+00 0. -1.
         -5    1    3    3    0  503 -0.13246676583E+03  0.57707723607E+02 -0.40997456965E+02  0.15026811669E+03  0.47000000000E+01 0.  1.
         11    1    4    4    0    0 -0.26937215269E+02 -0.37490880415E+01 -0.28054153726E+02  0.39073069612E+02  0.00000000000E+00 0. -1.
        -12    1    4    4    0    0  0.17510882753E+02  0.81640995538E+02 -0.51786659871E+02  0.98253454432E+02  0.00000000000E+00 0.  1.
<mgrwt>
<rscale>  2 0.26099058E+03</rscale>
<asrwt>0</asrwt>
<pdfrwt beam="1">  1       21 0.70942071E-01 0.26099524E+03</pdfrwt>
<pdfrwt beam="2">  1       21 0.38353656E-01 0.26099524E+03</pdfrwt>
<totfact> 0.11322356E+04</totfact>
</mgrwt>
</event>
<event>
12    1  0.1026879E-001  0.1879914E+03  0.7546771E-02  0.1160709E+00
         21   -1    0    0  503  502  0.00000000000E+00  0.00000000000E+00  0.31442100062E+03  0.31442100062E+03  0.00000000000E+00 0. -1.
         21   -1    0    0  501  503 -0.00000000000E+00 -0.00000000000E+00 -0.34509602289E+03  0.34509602289E+03  0.00000000000E+00 0. -1.
          6    2    1    2  501    0 -0.68373085952E+02  0.26246110584E+02 -0.28673354025E+03  0.34185883957E+03  0.17113622025E+03 0.  0.
         24    2    3    3    0    0  0.54254108368E+01 -0.34092744784E+02 -0.10453195035E+03  0.13617338807E+03  0.80153057616E+02 0.  0.
         -6    2    1    2    0  502  0.68373085952E+02 -0.26246110584E+02  0.25605851797E+03  0.31765818394E+03  0.17313873049E+03 0.  0.
        -24    2    5    5    0    0  0.85857161972E+00 -0.94077789491E+01  0.41607445993E+02  0.92151883962E+02  0.81679536640E+02 0.  0.
          5    1    3    3  501    0 -0.73798496789E+02  0.60338855368E+02 -0.18220158990E+03  0.20568545149E+03  0.47000000000E+01 0. -1.
        -11    1    4    4    0    0 -0.19768707940E+02 -0.43474110539E+02 -0.97213538918E+02  0.10831099782E+03  0.00000000000E+00 0.  1.
         12    1    4    4    0    0  0.25194118777E+02  0.93813657556E+01 -0.73184114327E+01  0.27862390247E+02  0.00000000000E+00 0. -1.
         -5    1    5    5    0  502  0.67514514332E+02 -0.16838331635E+02  0.21445107198E+03  0.22550629998E+03  0.47000000000E+01 0.  1.
         11    1    6    6    0    0  0.56572815563E+01 -0.98677551918E+01  0.66159953988E+02  0.67130596145E+02  0.00000000000E+00 0. -1.
        -12    1    6    6    0    0 -0.47987099365E+01  0.45997624270E+00 -0.24552507995E+02  0.25021287817E+02  0.00000000000E+00 0.  1.
<mgrwt>
<rscale>  2 0.18752901E+03</rscale>
<asrwt>0</asrwt>
<pdfrwt beam="1">  1       21 0.48372462E-01 0.18799138E+03</pdfrwt>
<pdfrwt beam="2">  1       21 0.53091695E-01 0.18799138E+03</pdfrwt>
<totfact> 0.13758376E+04</totfact>
</mgrwt>
</event>
<event>
12    1  0.1026879E-001  0.2250670E+03  0.7546771E-02  0.1131559E+00
         21   -1    0    0  503  502  0.00000000000E+00  0.00000000000E+00  0.95627502075E+02  0.95627502075E+02  0.00000000000E+00 0.  1.
         21   -1    0    0  501  503 -0.00000000000E+00 -0.00000000000E+00 -0.53430578701E+03  0.53430578701E+03  0.00000000000E+00 0.  1.
          6    2    1    2  501    0  0.10829711535E+03 -0.76413448136E+02 -0.15139664281E+03  0.26498685678E+03  0.17242334691E+03 0.  0.
         24    2    3    3    0    0  0.89884847007E+02 -0.10783370866E+03 -0.51493476329E+02  0.15854918924E+03  0.52715015517E+02 0.  0.
         -6    2    1    2    0  502 -0.10829711535E+03  0.76413448136E+02 -0.28728164213E+03  0.36494643231E+03  0.18190073201E+03 0.  0.
        -24    2    5    5    0    0 -0.36015702895E+02  0.11756656162E+02 -0.24127840651E+03  0.25750579279E+03  0.81600331202E+02 0.  0.
          5    1    3    3  501    0  0.18412268340E+02  0.31420260521E+02 -0.99903166482E+02  0.10643766753E+03  0.47000000000E+01 0. -1.
        -11    1    4    4    0    0  0.62745600301E+02 -0.81042132531E+02 -0.11253139593E+02  0.10310902362E+03  0.00000000000E+00 0.  1.
         12    1    4    4    0    0  0.27139246707E+02 -0.26791576126E+02 -0.40240336736E+02  0.55440165618E+02  0.00000000000E+00 0. -1.
         -5    1    5    5    0  502 -0.72281412452E+02  0.64656791974E+02 -0.46003235619E+02  0.10744063953E+03  0.47000000000E+01 0.  1.
         13    1    6    6    0    0 -0.10415713463E+02 -0.24361168335E+02 -0.23952226508E+02  0.35716421493E+02  0.00000000000E+00 0. -1.
        -14    1    6    6    0    0 -0.25599989432E+02  0.36117824496E+02 -0.21732618000E+03  0.22178937129E+03  0.00000000000E+00 0.  1.
<mgrwt>
<rscale>  2 0.22314552E+03</rscale>
<asrwt>0</asrwt>
<pdfrwt beam="1">  1       21 0.14711923E-01 0.22506700E+03</pdfrwt>
<pdfrwt beam="2">  1       21 0.82200891E-01 0.22506700E+03</pdfrwt>
<totfact> 0.51749205E+04</totfact>
</mgrwt>
</event>
<event>
12    1  0.1026879E-001  0.2034707E+03  0.7546771E-02  0.1146856E+00
         21   -1    0    0  501  502  0.00000000000E+00  0.00000000000E+00  0.23667786718E+03  0.23667786718E+03  0.00000000000E+00 0. -1.
         21   -1    0    0  502  503 -0.00000000000E+00 -0.00000000000E+00 -0.17849761465E+03  0.17849761465E+03  0.00000000000E+00 0.  1.
         -6    2    1    2    0  503  0.10235792333E+03 -0.32177862992E+02 -0.50309841448E+00  0.20347135820E+03  0.17288082938E+03 0.  0.
        -24    2    3    3    0    0  0.11311356337E+02 -0.62442970887E+02  0.39965435993E+02  0.99234865580E+02  0.64986545355E+02 0.  0.
          6    2    1    2  501    0 -0.10235792333E+03  0.32177862992E+02  0.58683350943E+02  0.21170412363E+03  0.17280723639E+03 0.  0.
         24    2    5    5    0    0  0.41024028827E+01  0.44565700183E+02  0.52872018477E+02  0.10426520539E+03  0.77928501686E+02 0.  0.
          5    1    5    5  501    0 -0.10646032621E+03 -0.12387837191E+02  0.58113324660E+01  0.10743891824E+03  0.47000000000E+01 0. -1.
        -13    1    6    6    0    0 -0.24227667569E+02  0.76291310980E+01 -0.89025019568E+01  0.26915387017E+02  0.00000000000E+00 0.  1.
         14    1    6    6    0    0  0.28330070452E+02  0.36936569085E+02  0.61774520434E+02  0.77349818374E+02  0.00000000000E+00 0. -1.
         -5    1    3    3    0  503  0.91046566995E+02  0.30265107895E+02 -0.40468534407E+02  0.10423649262E+03  0.47000000000E+01 0.  1.
         11    1    4    4    0    0  0.72912721332E+01 -0.75997773956E+02  0.30462841064E+02  0.82199811322E+02  0.00000000000E+00 0. -1.
        -12    1    4    4    0    0  0.40200842034E+01  0.13554803069E+02  0.95025949283E+01  0.17035054259E+02  0.00000000000E+00 0.  1.
<mgrwt>
<rscale>  2 0.20345510E+03</rscale>
<asrwt>0</asrwt>
<pdfrwt beam="1">  1       21 0.36411980E-01 0.20347074E+03</pdfrwt>
<pdfrwt beam="2">  1       21 0.27461171E-01 0.20347074E+03</pdfrwt>
<totfact> 0.91600630E+04</totfact>
</mgrwt>
</event>
<event>
12    1  0.1026879E-001  0.1865109E+03  0.7546771E-02  0.1161818E+00
         21   -1    0    0  501  502  0.00000000000E+00  0.00000000000E+00  0.44975128073E+02  0.44975128073E+02  0.00000000000E+00 0. -1.
         21   -1    0    0  502  503 -0.00000000000E+00 -0.00000000000E+00 -0.80495957652E+03  0.80495957652E+03  0.00000000000E+00 0. -1.
         -6    2    1    2    0  503 -0.31056376640E+02 -0.58554220934E+02 -0.29118548458E+03  0.34539651113E+03  0.17354154589E+03 0.  0.
        -24    2    3    3    0    0 -0.20728579890E+02 -0.99608961931E+02 -0.16617789491E+03  0.21333159293E+03  0.86854225365E+02 0.  0.
          6    2    1    2  501    0  0.31056376640E+02  0.58554220934E+02 -0.46879896386E+03  0.50453819346E+03  0.17433652750E+03 0.  0.
         24    2    5    5    0    0 -0.34288899258E+01  0.15727304459E+02 -0.90847150917E+02  0.12257871748E+03  0.80704595636E+02 0.  0.
          5    1    5    5  501    0  0.34485266566E+02  0.42826916475E+02 -0.37795181295E+03  0.38195947598E+03  0.47000000000E+01 0. -1.
        -11    1    6    6    0    0 -0.16742505180E+02 -0.17168060083E+02 -0.82783370547E+02  0.86186659094E+02  0.00000000000E+00 0.  1.
         12    1    6    6    0    0  0.13313615254E+02  0.32895364542E+02 -0.80637803705E+01  0.36392058383E+02  0.00000000000E+00 0. -1.
         -5    1    3    3    0  503 -0.10327796750E+02  0.41054740996E+02 -0.12500758967E+03  0.13206491820E+03  0.47000000000E+01 0.  1.
         13    1    4    4    0    0 -0.18174599317E+02 -0.95946136493E+02 -0.17670721080E+03  0.20189456534E+03  0.00000000000E+00 0. -1.
        -14    1    4    4    0    0 -0.25539805734E+01 -0.36628254372E+01  0.10529315886E+02  0.11437027585E+02  0.00000000000E+00 0.  1.
<mgrwt>
<rscale>  2 0.18632491E+03</rscale>
<asrwt>0</asrwt>
<pdfrwt beam="1">  1       21 0.69192506E-02 0.18651091E+03</pdfrwt>
<pdfrwt beam="2">  1       21 0.12383993E+00 0.18651091E+03</pdfrwt>
<totfact> 0.75571777E+04</totfact>
</mgrwt>
</event>
<event>
12    1  0.1026879E-001  0.2007808E+03  0.7546771E-02  0.1149659E+00
         21   -1    0    0  503  502  0.00000000000E+00  0.00000000000E+00  0.82283433141E+02  0.82283433141E+02  0.00000000000E+00 0. -1.
         21   -1    0    0  501  503 -0.00000000000E+00 -0.00000000000E+00 -0.76010997272E+03  0.76010997272E+03  0.00000000000E+00 0.  1.
          6    2    1    2  501    0 -0.45474739355E+02 -0.88629690861E+02 -0.59161595638E+03  0.62388664878E+03  0.17117808467E+03 0.  0.
         24    2    3    3    0    0 -0.80417125220E+02 -0.10552771896E+03 -0.51365350232E+03  0.53666997649E+03  0.81066205810E+02 0.  0.
         -6    2    1    2    0  502  0.45474739355E+02  0.88629690861E+02 -0.86210583200E+02  0.21850675707E+03  0.17432660213E+03 0.  0.
        -24    2    5    5    0    0 -0.14136532742E+02  0.10995298303E+03 -0.68052584733E+02  0.15247654082E+03  0.79551500156E+02 0.  0.
          5    1    3    3  501    0  0.34942385865E+02  0.16898028094E+02 -0.77962454060E+02  0.87216672297E+02  0.47000000000E+01 0. -1.
        -11    1    4    4    0    0 -0.27792784130E+02 -0.60038724276E+02 -0.38281658140E+03  0.38849146999E+03  0.00000000000E+00 0.  1.
         12    1    4    4    0    0 -0.52624341090E+02 -0.45488994679E+02 -0.13083692092E+03  0.14817850649E+03  0.00000000000E+00 0. -1.
         -5    1    5    5    0  502  0.59611272097E+02 -0.21323292170E+02 -0.18157998467E+02  0.66030216252E+02  0.47000000000E+01 0.  1.
         13    1    6    6    0    0 -0.24242403100E+02  0.10236761629E+03 -0.25718799927E+02  0.10829718206E+03  0.00000000000E+00 0. -1.
        -14    1    6    6    0    0  0.10105870358E+02  0.75853667386E+01 -0.42333784807E+02  0.44179358758E+02  0.00000000000E+00 0.  1.
<mgrwt>
<rscale>  2 0.20009544E+03</rscale>
<asrwt>0</asrwt>
<pdfrwt beam="1">  1       21 0.12658990E-01 0.20078082E+03</pdfrwt>
<pdfrwt beam="2">  1       21 0.11693999E+00 0.20078082E+03</pdfrwt>
<totfact> 0.29864542E+04</totfact>
</mgrwt>
</event>
<event>
12    1  0.1026879E-001  0.1880602E+03  0.7546771E-02  0.1160684E+00
         21   -1    0    0  503  502  0.00000000000E+00  0.00000000000E+00  0.20071313226E+03  0.20071313226E+03  0.00000000000E+00 0.  1.
         21   -1    0    0  501  503 -0.00000000000E+00 -0.00000000000E+00 -0.19996235899E+03  0.19996235899E+03  0.00000000000E+00 0.  1.
          6    2    1    2  501    0  0.54656437970E+02  0.40632748419E+02  0.72099579092E+02  0.19953548743E+03  0.17314073751E+03 0.  0.
         24    2    3    3    0    0  0.97342533390E+01  0.61609441415E+01 -0.26931255489E+02  0.85362355043E+02  0.80179337834E+02 0.  0.
         -6    2    1    2    0  502 -0.54656437970E+02 -0.40632748419E+02 -0.71348805822E+02  0.20114000382E+03  0.17529490178E+03 0.  0.
        -24    2    5    5    0    0 -0.53041523954E+02 -0.79725600297E+02 -0.87196029750E+01  0.12714428729E+03  0.83186920299E+02 0.  0.
          5    1    3    3  501    0  0.44922184631E+02  0.34471804277E+02  0.99030834581E+02  0.11417313239E+03  0.47000000000E+01 0. -1.
        -11    1    4    4    0    0  0.32690034937E+02  0.13231355760E+01  0.16014941278E+02  0.36426191347E+02  0.00000000000E+00 0.  1.
         12    1    4    4    0    0 -0.22955781598E+02  0.48378085655E+01 -0.42946196767E+02  0.48936163696E+02  0.00000000000E+00 0. -1.
         -5    1    5    5    0  502 -0.16149140162E+01  0.39092851878E+02 -0.62629202847E+02  0.73995716528E+02  0.47000000000E+01 0.  1.
         13    1    6    6    0    0 -0.22055392293E+02  0.15329903800E+02 -0.23823620229E+01  0.26965198470E+02  0.00000000000E+00 0. -1.
        -14    1    6    6    0    0 -0.30986131661E+02 -0.95055504096E+02 -0.63372409521E+01  0.10017908882E+03  0.00000000000E+00 0.  1.
<mgrwt>
<rscale>  2 0.18755663E+03</rscale>
<asrwt>0</asrwt>
<pdfrwt beam="1">  1       21 0.30878943E-01 0.18806023E+03</pdfrwt>
<pdfrwt beam="2">  1       21 0.30763440E-01 0.18806023E+03</pdfrwt>
<totfact> 0.10236809E+05</totfact>
</mgrwt>
</event>
<event>
12    1  0.1026879E-001  0.1968991E+03  0.7546771E-02  0.1152396E+00
         21   -1    0    0  501  502  0.00000000000E+00  0.00000000000E+00  0.10771810525E+04  0.10771810525E+04  0.00000000000E+00 0. -1.
         21   -1    0    0  502  503 -0.00000000000E+00 -0.00000000000E+00 -0.43269540506E+02  0.43269540506E+02  0.00000000000E+00 0. -1.
         -6    2    1    2    0  503  0.80976460208E+01 -0.95761713687E+02  0.28707115431E+03  0.34810787586E+03  0.17185275068E+03 0.  0.
        -24    2    3    3    0    0 -0.55343912858E+02 -0.61615192962E+02  0.22374476038E+03  0.25207070369E+03  0.81354416994E+02 0.  0.
          6    2    1    2  501    0 -0.80976460208E+01  0.95761713687E+02  0.74684035773E+03  0.77234271720E+03  0.17177565366E+03 0.  0.
         24    2    5    5    0    0  0.61568398957E+01  0.10616337688E+03  0.28699752167E+03  0.31213742731E+03  0.61266849209E+02 0.  0.
          5    1    5    5  501    0 -0.14254485917E+02 -0.10401663195E+02  0.45984283606E+03  0.46020528989E+03  0.47000000000E+01 0. -1.
        -11    1    6    6    0    0  0.26548253361E+02  0.20460664172E+02  0.61463978143E+02  0.70009064728E+02  0.00000000000E+00 0.  1.
         12    1    6    6    0    0 -0.20391413466E+02  0.85702712709E+02  0.22553354353E+03  0.24212836258E+03  0.00000000000E+00 0. -1.
         -5    1    3    3    0  503  0.63441558879E+02 -0.34146520725E+02  0.63326393928E+02  0.96037172171E+02  0.47000000000E+01 0.  1.
         13    1    4    4    0    0 -0.67656037481E+02 -0.22782494002E+02  0.10889000401E+03  0.13020527798E+03  0.00000000000E+00 0. -1.
        -14    1    4    4    0    0  0.12312124623E+02 -0.38832698960E+02  0.11485475638E+03  0.12186542571E+03  0.00000000000E+00 0.  1.
<mgrwt>
<rscale>  2 0.19688225E+03</rscale>
<asrwt>0</asrwt>
<pdfrwt beam="1">  1       21 0.16572014E+00 0.19689907E+03</pdfrwt>
<pdfrwt beam="2">  1       21 0.66568532E-02 0.19689907E+03</pdfrwt>
<totfact> 0.37646923E+04</totfact>
</mgrwt>
</event>
<event>
12    1  0.1026879E-001  0.2120423E+03  0.7546771E-02  0.1141970E+00
         21   -1    0    0  503  502  0.00000000000E+00  0.00000000000E+00  0.41286630140E+03  0.41286630140E+03  0.00000000000E+00 0.  1.
         21   -1    0    0  501  503 -0.00000000000E+00 -0.00000000000E+00 -0.12996399217E+03  0.12996399217E+03  0.00000000000E+00 0. -1.
          6    2    1    2  501    0 -0.44125154606E+02 -0.10952605062E+03  0.16998625045E+02  0.20273220000E+03  0.16391585228E+03 0.  0.
         24    2    3    3    0    0  0.27329051096E+02 -0.20007073995E+02 -0.35183095513E+01  0.86274545489E+02  0.79270162442E+02 0.  0.
         -6    2    1    2    0  502  0.44125154606E+02  0.10952605062E+03  0.26590368418E+03  0.34009809357E+03  0.17612200021E+03 0.  0.
        -24    2    5    5    0    0  0.41282459795E+02  0.10112019418E+03  0.90384541870E+02  0.16429195416E+03  0.83023765485E+02 0.  0.
          5    1    3    3  501    0 -0.71454205701E+02 -0.89518976624E+02  0.20516934596E+02  0.11645765451E+03  0.47000000000E+01 0. -1.
        -13    1    4    4    0    0  0.51688196740E+02 -0.27793172813E+02  0.59883392533E+01  0.58991442975E+02  0.00000000000E+00 0.  1.
         14    1    4    4    0    0 -0.24359145644E+02  0.77860988183E+01 -0.95066488046E+01  0.27283102514E+02  0.00000000000E+00 0. -1.
         -5    1    5    5    0  502  0.28426948102E+01  0.84058564343E+01  0.17551914231E+03  0.17580613941E+03  0.47000000000E+01 0.  1.
         13    1    6    6    0    0  0.32419645130E+02  0.90346141646E+02  0.10623534392E+03  0.14317613977E+03  0.00000000000E+00 0. -1.
        -14    1    6    6    0    0  0.88628146654E+01  0.10774052539E+02 -0.15850802052E+02  0.21115814396E+02  0.00000000000E+00 0.  1.
<mgrwt>
<rscale>  2 0.20949062E+03</rscale>
<asrwt>0</asrwt>
<pdfrwt beam="1">  1       21 0.63517892E-01 0.21204232E+03</pdfrwt>
<pdfrwt beam="2">  1       21 0.19994461E-01 0.21204232E+03</pdfrwt>
<totfact> 0.52431089E+04</totfact>
</mgrwt>
</event>
<event>
12    1  0.1026879E-001  0.1981903E+03  0.7546771E-02  0.1151377E+00
         21   -1    0    0  501  502  0.00000000000E+00  0.00000000000E+00  0.19237950819E+03  0.19237950819E+03  0.00000000000E+00 0. -1.
         21   -1    0    0  502  503 -0.00000000000E+00 -0.00000000000E+00 -0.20846258638E+03  0.20846258638E+03  0.00000000000E+00 0. -1.
         -6    2    1    2    0  503 -0.18446412703E+02  0.94878482468E+02 -0.38386561688E+02  0.20187357224E+03  0.17302373962E+03 0.  0.
        -24    2    3    3    0    0  0.52535843738E+01 -0.14004452918E+02 -0.40366278934E+02  0.90324512359E+02  0.79406273099E+02 0.  0.
          6    2    1    2  501    0  0.18446412703E+02 -0.94878482468E+02  0.22303483491E+02  0.19896852233E+03  0.17247849409E+03 0.  0.
         24    2    5    5    0    0 -0.39036084088E+02 -0.31923840591E+02  0.52202457989E+02  0.10850547436E+03  0.80656022019E+02 0.  0.
          5    1    5    5  501    0  0.57482496790E+02 -0.62954641877E+02 -0.29898974498E+02  0.90463047965E+02  0.47000000000E+01 0. -1.
        -11    1    6    6    0    0 -0.24395650040E+02 -0.58793861564E+02  0.41948368070E+02  0.76233401355E+02  0.00000000000E+00 0.  1.
         12    1    6    6    0    0 -0.14640434048E+02  0.26870020974E+02  0.10254089920E+02  0.32272073009E+02  0.00000000000E+00 0. -1.
         -5    1    3    3    0  503 -0.23699997077E+02  0.10888293539E+03  0.19797172461E+01  0.11154905988E+03  0.47000000000E+01 0.  1.
         13    1    4    4    0    0 -0.80435352975E+01 -0.22841641751E+02  0.17769290044E+02  0.30036423333E+02  0.00000000000E+00 0. -1.
        -14    1    4    4    0    0  0.13297119671E+02  0.88371888335E+01 -0.58135568977E+02  0.60288089026E+02  0.00000000000E+00 0.  1.
<mgrwt>
<rscale>  2 0.19807128E+03</rscale>
<asrwt>0</asrwt>
<pdfrwt beam="1">  1       21 0.29596848E-01 0.19819034E+03</pdfrwt>
<pdfrwt beam="2">  1       21 0.32071167E-01 0.19819034E+03</pdfrwt>
<totfact> 0.10208601E+05</totfact>
</mgrwt>
</event>
<event>
12    1  0.1026879E-001  0.1896122E+03  0.7546771E-02  0.1159079E+00
         21   -1    0    0  501  502  0.00000000000E+00  0.00000000000E+00  0.32963089234E+03  0.32963089234E+03  0.00000000000E+00 0.  1.
         21   -1    0    0  502  503 -0.00000000000E+00 -0.00000000000E+00 -0.11148773338E+03  0.11148773338E+03  0.00000000000E+00 0.  1.
         -6    2    1    2    0  503 -0.47510711413E+02  0.58488722998E+02  0.14548759436E+03  0.23806296385E+03  0.17271113523E+03 0.  0.
        -24    2    3    3    0    0 -0.97122619714E+02  0.25011896111E+02  0.91995934715E+02  0.15765471157E+03  0.79582396735E+02 0.  0.
          6    2    1    2  501    0  0.47510711413E+02 -0.58488722998E+02  0.72655564608E+02  0.20305566187E+03  0.17399589746E+03 0.  0.
         24    2    5    5    0    0 -0.10101012853E+02 -0.95750545607E+02  0.23907468266E+02  0.11875844309E+03  0.65282488629E+02 0.  0.
          5    1    5    5  501    0  0.57611724265E+02  0.37261822609E+02  0.48748096342E+02  0.84297218779E+02  0.47000000000E+01 0. -1.
        -11    1    6    6    0    0 -0.70329186910E+01 -0.39045943421E+02  0.43321990125E+02  0.58743871777E+02  0.00000000000E+00 0.  1.
         12    1    6    6    0    0 -0.30680941619E+01 -0.56704602186E+02 -0.19414521859E+02  0.60014571313E+02  0.00000000000E+00 0. -1.
         -5    1    3    3    0  503  0.49611908301E+02  0.33476826887E+02  0.53491659641E+02  0.80408252281E+02  0.47000000000E+01 0.  1.
         13    1    4    4    0    0 -0.12332832531E+02 -0.12403247587E+02  0.55259002673E+02  0.57961165321E+02  0.00000000000E+00 0. -1.
        -14    1    4    4    0    0 -0.84789787183E+02  0.37415143698E+02  0.36736932042E+02  0.99693546253E+02  0.00000000000E+00 0.  1.
<mgrwt>
<rscale>  2 0.18931691E+03</rscale>
<asrwt>0</asrwt>
<pdfrwt beam="1">  1       21 0.50712445E-01 0.18961216E+03</pdfrwt>
<pdfrwt beam="2">  1       21 0.17151959E-01 0.18961216E+03</pdfrwt>
<totfact> 0.11366702E+05</totfact>
</mgrwt>
</event>
<event>
12    1  0.1026879E-001  0.2506200E+03  0.7546771E-02  0.1113590E+00
         21   -1    0    0  503  502  0.00000000000E+00  0.00000000000E+00  0.44466891155E+03  0.44466891155E+03  0.00000000000E+00 0. -1.
         21   -1    0    0  501  503 -0.00000000000E+00 -0.00000000000E+00 -0.38285560329E+03  0.38285560329E+03  0.00000000000E+00 0. -1.
          6    2    1    2  501    0 -0.28517549534E+02  0.17284005140E+03 -0.29949422070E+03  0.38780469304E+03  0.17323036024E+03 0.  0.
         24    2    3    3    0    0 -0.25971510402E+02  0.18328455722E+03 -0.18889497246E+03  0.27658484891E+03  0.80932810122E+02 0.  0.
         -6    2    1    2    0  502  0.28517549534E+02 -0.17284005140E+03  0.36130752896E+03  0.43971982180E+03  0.17923017938E+03 0.  0.
        -24    2    5    5    0    0  0.70615367241E+01 -0.19365098031E+03  0.26199044289E+03  0.33589579359E+03  0.81464252947E+02 0.  0.
          5    1    3    3  501    0 -0.25460391325E+01 -0.10444505823E+02 -0.11059924824E+03  0.11121984413E+03  0.47000000000E+01 0. -1.
        -11    1    4    4    0    0 -0.27977143735E+02  0.35389247239E+02 -0.83698457240E+02  0.95081812857E+02  0.00000000000E+00 0.  1.
         12    1    4    4    0    0  0.20056333336E+01  0.14789530999E+03 -0.10519651522E+03  0.18150303605E+03  0.00000000000E+00 0. -1.
         -5    1    5    5    0  502  0.21456012810E+02  0.20810928914E+02  0.99317086066E+02  0.10382402820E+03  0.47000000000E+01 0.  1.
         13    1    6    6    0    0  0.36845058860E+02 -0.63485925333E+02  0.65813877771E+02  0.98587461602E+02  0.00000000000E+00 0. -1.
        -14    1    6    6    0    0 -0.29783522136E+02 -0.13016505498E+03  0.19617656512E+03  0.23730833199E+03  0.00000000000E+00 0.  1.
<mgrwt>
<rscale>  2 0.24954941E+03</rscale>
<asrwt>0</asrwt>
<pdfrwt beam="1">  1       21 0.68410602E-01 0.25062001E+03</pdfrwt>
<pdfrwt beam="2">  1       21 0.58900862E-01 0.25062001E+03</pdfrwt>
<totfact> 0.50453867E+03</totfact>
</mgrwt>
</event>
<event>
12    1  0.1026879E-001  0.2061441E+03  0.7546771E-02  0.1144700E+00
         21   -1    0    0  503  502  0.00000000000E+00  0.00000000000E+00  0.44878061944E+03  0.44878061944E+03  0.00000000000E+00 0.  1.
         21   -1    0    0  501  503 -0.00000000000E+00 -0.00000000000E+00 -0.97034284132E+02  0.97034284132E+02  0.00000000000E+00 0.  1.
          6    2    1    2  501    0 -0.86611876379E+02  0.70900937887E+02  0.13247875441E+03  0.24486029094E+03  0.17285074945E+03 0.  0.
         24    2    3    3    0    0 -0.11456686789E+03  0.31781068847E+02  0.13500605630E+03  0.19648340639E+03  0.79015759145E+02 0.  0.
         -6    2    1    2    0  502  0.86611876379E+02 -0.70900937887E+02  0.21926758089E+03  0.30095461263E+03  0.17310934899E+03 0.  0.
        -24    2    5    5    0    0 -0.14221702671E+02 -0.59718816427E+02  0.10209785089E+03  0.14589563632E+03  0.84219781991E+02 0.  0.
          5    1    3    3  501    0  0.27954991509E+02  0.39119869040E+02 -0.25273018920E+01  0.48376884551E+02  0.47000000000E+01 0. -1.
        -11    1    4    4    0    0 -0.45007800014E+02 -0.19389791668E+02  0.80880831515E+02  0.94569418892E+02  0.00000000000E+00 0.  1.
         12    1    4    4    0    0 -0.69559067874E+02  0.51170860515E+02  0.54125224789E+02  0.10191398750E+03  0.00000000000E+00 0. -1.
         -5    1    5    5    0  502  0.10083357905E+03 -0.11182121460E+02  0.11716973001E+03  0.15505897631E+03  0.47000000000E+01 0.  1.
         13    1    6    6    0    0  0.16085609263E+02 -0.25839406254E+02 -0.37810421799E+01  0.30671126828E+02  0.00000000000E+00 0. -1.
        -14    1    6    6    0    0 -0.30307311934E+02 -0.33879410174E+02  0.10587889307E+03  0.11522450949E+03  0.00000000000E+00 0.  1.
<mgrwt>
<rscale>  2 0.20608984E+03</rscale>
<asrwt>0</asrwt>
<pdfrwt beam="1">  1       21 0.69043171E-01 0.20614414E+03</pdfrwt>
<pdfrwt beam="2">  1       21 0.14928352E-01 0.20614414E+03</pdfrwt>
<totfact> 0.75126888E+04</totfact>
</mgrwt>
</event>
<event>
12    1  0.1026879E-001  0.1789816E+03  0.7546771E-02  0.1169300E+00
         21   -1    0    0  503  502  0.00000000000E+00  0.00000000000E+00  0.32197834777E+03  0.32197834777E+03  0.00000000000E+00 0. -1.
         21   -1    0    0  501  503 -0.00000000000E+00 -0.00000000000E+00 -0.10029096782E+03  0.10029096782E+03  0.00000000000E+00 0.  1.
          6    2    1    2  501    0 -0.34387948583E+02 -0.13419347035E+02  0.80805380089E+02  0.19449277675E+03  0.17301826746E+03 0.  0.
         24    2    3    3    0    0 -0.10455478573E+01 -0.44205662373E+02  0.10771271825E+03  0.14152478882E+03  0.80448756507E+02 0.  0.
         -6    2    1    2    0  502  0.34387948583E+02  0.13419347035E+02  0.14088199986E+03  0.22777653885E+03  0.17513367432E+03 0.  0.
        -24    2    5    5    0    0 -0.35331739958E+02  0.20713498735E+02  0.12016516595E+03  0.15452821582E+03  0.88101767845E+02 0.  0.
          5    1    3    3  501    0 -0.33342400726E+02  0.30786315337E+02 -0.26907338157E+02  0.52967987926E+02  0.47000000000E+01 0. -1.
        -13    1    4    4    0    0 -0.54344092135E+01 -0.53015366783E+02  0.26136958277E+02  0.59357413240E+02  0.00000000000E+00 0.  1.
         14    1    4    4    0    0  0.43888613562E+01  0.88097044099E+01  0.81575759969E+02  0.82167375584E+02  0.00000000000E+00 0. -1.
         -5    1    5    5    0  502  0.69719688541E+02 -0.72941516998E+01  0.20716833905E+02  0.73248323027E+02  0.47000000000E+01 0.  1.
         11    1    6    6    0    0  0.18782696800E+02  0.29162411494E+02  0.78138949875E+02  0.85492288721E+02  0.00000000000E+00 0. -1.
        -12    1    6    6    0    0 -0.54114436758E+02 -0.84489127592E+01  0.42026216078E+02  0.69035927097E+02  0.00000000000E+00 0.  1.
<mgrwt>
<rscale>  2 0.17846200E+03</rscale>
<asrwt>0</asrwt>
<pdfrwt beam="1">  1       21 0.49535130E-01 0.17898160E+03</pdfrwt>
<pdfrwt beam="2">  1       21 0.15429380E-01 0.17898160E+03</pdfrwt>
<totfact> 0.14542562E+05</totfact>
</mgrwt>
</event>
<event>
12    1  0.1026879E-001  0.1862129E+03  0.7546771E-02  0.1162022E+00
         21   -1    0    0  501  502  0.00000000000E+00  0.00000000000E+00  0.15297389772E+04  0.15297389772E+04  0.00000000000E+00 0.  1.
         21   -1    0    0  502  503 -0.00000000000E+00 -0.00000000000E+00 -0.24690425782E+02  0.24690425782E+02  0.00000000000E+00 0. -1.
         -6    2    1    2    0  503 -0.32170677986E-01 -0.68250473861E+02  0.52638773247E+03  0.55821043881E+03  0.17279097454E+03 0.  0.
        -24    2    3    3    0    0  0.30265360328E+02 -0.65855456948E+02  0.17925318717E+03  0.20971630826E+03  0.81217557161E+02 0.  0.
          6    2    1    2  501    0  0.32170677986E-01  0.68250473861E+02  0.97866081896E+03  0.99621896419E+03  0.17325443087E+03 0.  0.
         24    2    5    5    0    0  0.64313250483E+01  0.92494651525E+02  0.43284508152E+03  0.44980736240E+03  0.79844700331E+02 0.  0.
          5    1    5    5  501    0 -0.63991543703E+01 -0.24244177664E+02  0.54581573744E+03  0.54641160179E+03  0.47000000000E+01 0. -1.
        -11    1    6    6    0    0  0.23210321451E+02  0.88860516026E+01  0.20546171707E+03  0.20695941176E+03  0.00000000000E+00 0.  1.
         12    1    6    6    0    0 -0.16778996403E+02  0.83608599922E+02  0.22738336444E+03  0.24284795063E+03  0.00000000000E+00 0. -1.
         -5    1    3    3    0  503 -0.30297531006E+02 -0.23950169126E+01  0.34713454530E+03  0.34849413055E+03  0.47000000000E+01 0.  1.
         13    1    4    4    0    0 -0.18960937121E+02 -0.44518532210E+02  0.12203907005E+03  0.13128195408E+03  0.00000000000E+00 0. -1.
        -14    1    4    4    0    0  0.49226297449E+02 -0.21336924738E+02  0.57214117120E+02  0.78434354180E+02  0.00000000000E+00 0.  1.
<mgrwt>
<rscale>  2 0.18610498E+03</rscale>
<asrwt>0</asrwt>
<pdfrwt beam="1">  1       21 0.23534438E+00 0.18621285E+03</pdfrwt>
<pdfrwt beam="2">  1       21 0.37985282E-02 0.18621285E+03</pdfrwt>
<totfact> 0.34877503E+04</totfact>
</mgrwt>
</event>
<event>
12    1  0.1026879E-001  0.2861966E+03  0.7546771E-02  0.1092355E+00
         21   -1    0    0  501  502  0.00000000000E+00  0.00000000000E+00  0.32844766565E+03  0.32844766565E+03  0.00000000000E+00 0.  1.
         21   -1    0    0  502  503 -0.00000000000E+00 -0.00000000000E+00 -0.43420010951E+03  0.43420010951E+03  0.00000000000E+00 0.  1.
         -6    2    1    2    0  503 -0.18508600773E+03 -0.13498974244E+03 -0.30167460687E+03  0.41583175442E+03  0.17155004731E+03 0.  0.
        -24    2    3    3    0    0 -0.15898604614E+03 -0.15035112302E+03 -0.30694594946E+03  0.38473421334E+03  0.76958274176E+02 0.  0.
          6    2    1    2  501    0  0.18508600773E+03  0.13498974244E+03  0.19592216300E+03  0.34681602074E+03  0.17151325741E+03 0.  0.
         24    2    5    5    0    0  0.18081270380E+03  0.79920503408E+02  0.97842375470E+02  0.23415450586E+03  0.78579141346E+02 0.  0.
          5    1    5    5  501    0  0.42733039278E+01  0.55069239028E+02  0.98079787532E+02  0.11266151488E+03  0.47000000000E+01 0. -1.
        -13    1    6    6    0    0  0.95118535998E+02  0.69703088652E+02  0.23488239882E+02  0.12024040033E+03  0.00000000000E+00 0.  1.
         14    1    6    6    0    0  0.85694167804E+02  0.10217414756E+02  0.74354135588E+02  0.11391410553E+03  0.00000000000E+00 0. -1.
         -5    1    3    3    0  503 -0.26099961587E+02  0.15361380579E+02  0.52713425940E+01  0.31097541074E+02  0.47000000000E+01 0.  1.
         13    1    4    4    0    0 -0.89258232269E+02 -0.11128074199E+03 -0.24541914658E+03  0.28386791484E+03  0.00000000000E+00 0. -1.
        -14    1    4    4    0    0 -0.69727813874E+02 -0.39070381026E+02 -0.61526802881E+02  0.10086629850E+03  0.00000000000E+00 0.  1.
<mgrwt>
<rscale>  2 0.28619106E+03</rscale>
<asrwt>0</asrwt>
<pdfrwt beam="1">  1       21 0.50530410E-01 0.28619658E+03</pdfrwt>
<pdfrwt beam="2">  1       21 0.66800016E-01 0.28619658E+03</pdfrwt>
<totfact> 0.72278862E+03</totfact>
</mgrwt>
</event>
<event>
12    1  0.1026879E-001  0.3622704E+03  0.7546771E-02  0.1057972E+00
         21   -1    0    0  501  502  0.00000000000E+00  0.00000000000E+00  0.26952835370E+03  0.26952835370E+03  0.00000000000E+00 0. -1.
         21   -1    0    0  502  503 -0.00000000000E+00 -0.00000000000E+00 -0.51131837809E+03  0.51131837809E+03  0.00000000000E+00 0. -1.
         -6    2    1    2    0  503 -0.19401075266E+03  0.25260273102E+03 -0.21313200087E+03  0.42031549380E+03  0.17260229623E+03 0.  0.
        -24    2    3    3    0    0 -0.10546140970E+03  0.70479700052E+02 -0.14064890274E+03  0.20517443760E+03  0.78898282279E+02 0.  0.
          6    2    1    2  501    0  0.19401075266E+03 -0.25260273102E+03 -0.28658023514E+02  0.36053123799E+03  0.16647275869E+03 0.  0.
         24    2    5    5    0    0  0.18256283684E+03 -0.16341662148E+03  0.15772203743E+02  0.26012530188E+03  0.85919896976E+02 0.  0.
          5    1    5    5  501    0  0.11447915817E+02 -0.89186109536E+02 -0.44430227257E+02  0.10040593610E+03  0.47000000000E+01 0. -1.
        -11    1    6    6    0    0  0.79726135190E+02 -0.82356671701E+02  0.49580072784E+02  0.12488819649E+03  0.00000000000E+00 0.  1.
         12    1    6    6    0    0  0.10283670165E+03 -0.81059949783E+02 -0.33807869042E+02  0.13523710539E+03  0.00000000000E+00 0. -1.
         -5    1    3    3    0  503 -0.88549342954E+02  0.18212303097E+03 -0.72483098136E+02  0.21514105620E+03  0.47000000000E+01 0.  1.
         11    1    4    4    0    0 -0.34179288099E+02  0.49992979684E+02 -0.10867193153E+03  0.12440703539E+03  0.00000000000E+00 0. -1.
        -12    1    4    4    0    0 -0.71282121603E+02  0.20486720368E+02 -0.31976971211E+02  0.80767402209E+02  0.00000000000E+00 0.  1.
<mgrwt>
<rscale>  2 0.36154828E+03</rscale>
<asrwt>0</asrwt>
<pdfrwt beam="1">  1       21 0.41465901E-01 0.36227043E+03</pdfrwt>
<pdfrwt beam="2">  1       21 0.78664365E-01 0.36227043E+03</pdfrwt>
<totfact> 0.73067888E+03</totfact>
</mgrwt>
</event>
<event>
12    1  0.1026879E-001  0.2158354E+03  0.7546771E-02  0.1137110E+00
         21   -1    0    0  503  502  0.00000000000E+00  0.00000000000E+00  0.81846972044E+03  0.81846972044E+03  0.00000000000E+00 0.  1.
         21   -1    0    0  501  503 -0.00000000000E+00 -0.00000000000E+00 -0.11870936514E+03  0.11870936514E+03  0.00000000000E+00 0. -1.
          6    2    1    2  501    0 -0.12286287063E+03  0.35881577938E+02  0.11318099446E+02  0.21569611597E+03  0.17324532448E+03 0.  0.
         24    2    3    3    0    0 -0.10376500820E+03  0.18856591333E+02  0.71191652926E+02  0.15041586685E+03  0.80211804569E+02 0.  0.
         -6    2    1    2    0  502  0.12286287063E+03 -0.35881577938E+02  0.68844225586E+03  0.72148296961E+03  0.17378769569E+03 0.  0.
        -24    2    5    5    0    0  0.69878384804E+02 -0.27365468685E+02  0.18373884382E+03  0.21391277350E+03  0.79792571083E+02 0.  0.
          5    1    3    3  501    0 -0.19097862433E+02  0.17024986605E+02 -0.59873553479E+02  0.65280249116E+02  0.47000000000E+01 0. -1.
        -13    1    4    4    0    0  0.72698634605E+01 -0.66713540710E+01  0.26069555550E+02  0.27874353920E+02  0.00000000000E+00 0.  1.
         14    1    4    4    0    0 -0.11103487166E+03  0.25527945404E+02  0.45122097376E+02  0.12254151293E+03  0.00000000000E+00 0. -1.
         -5    1    5    5    0  502  0.52984485824E+02 -0.85161092534E+01  0.50470341204E+03  0.50757019611E+03  0.47000000000E+01 0.  1.
         11    1    6    6    0    0  0.64296032015E+02  0.38773701716E+01  0.67017695615E+02  0.92953672643E+02  0.00000000000E+00 0. -1.
        -12    1    6    6    0    0  0.55823527894E+01 -0.31242838856E+02  0.11672114820E+03  0.12095910086E+03  0.00000000000E+00 0.  1.
<mgrwt>
<rscale>  2 0.21572624E+03</rscale>
<asrwt>0</asrwt>
<pdfrwt beam="1">  1       21 0.12591841E+00 0.21583544E+03</pdfrwt>
<pdfrwt beam="2">  1       21 0.18262980E-01 0.21583544E+03</pdfrwt>
<totfact> 0.12600298E+04</totfact>
</mgrwt>
</event>
<event>
12    1  0.1026879E-001  0.1928561E+03  0.7546771E-02  0.1159466E+00
         21   -1    0    0  503  502  0.00000000000E+00  0.00000000000E+00  0.17880264928E+03  0.17880264928E+03  0.00000000000E+00 0. -1.
         21   -1    0    0  501  503 -0.00000000000E+00 -0.00000000000E+00 -0.24314020622E+03  0.24314020622E+03  0.00000000000E+00 0.  1.
          6    2    1    2  501    0  0.75497305929E+02  0.20746511750E+01 -0.13014304709E+03  0.23266001859E+03  0.17745231519E+03 0.  0.
         24    2    3    3    0    0  0.37269102617E+02 -0.26385753669E+02 -0.15392332939E+03  0.17919056938E+03  0.79571821759E+02 0.  0.
         -6    2    1    2    0  502 -0.75497305929E+02 -0.20746511750E+01  0.65805490142E+02  0.18928283691E+03  0.16060349447E+03 0.  0.
        -24    2    5    5    0    0 -0.33520748372E+02  0.18404209052E+02  0.97696367019E+02  0.13253309569E+03  0.80982009367E+02 0.  0.
          5    1    3    3  501    0  0.38228203312E+02  0.28460404844E+02  0.23780282304E+02  0.53469449210E+02  0.47000000000E+01 0. -1.
        -11    1    4    4    0    0  0.62496246901E+02 -0.21127405249E+02 -0.11137169801E+03  0.12944420902E+03  0.00000000000E+00 0.  1.
         12    1    4    4    0    0 -0.25227144284E+02 -0.52583484204E+01 -0.42551631378E+02  0.49746360367E+02  0.00000000000E+00 0. -1.
         -5    1    5    5    0  502 -0.41976557557E+02 -0.20478860227E+02 -0.31890876877E+02  0.56749741220E+02  0.47000000000E+01 0.  1.
         11    1    6    6    0    0 -0.46743224653E+01 -0.30969484202E+02  0.25203580566E+02  0.40201725281E+02  0.00000000000E+00 0. -1.
        -12    1    6    6    0    0 -0.28846425906E+02  0.49373693254E+02  0.72492786453E+02  0.92331370405E+02  0.00000000000E+00 0.  1.
<mgrwt>
<rscale>  2 0.18889034E+03</rscale>
<asrwt>0</asrwt>
<pdfrwt beam="1">  1       21 0.27508100E-01 0.19285609E+03</pdfrwt>
<pdfrwt beam="2">  1       21 0.37406185E-01 0.19285609E+03</pdfrwt>
<totfact> 0.86901766E+04</totfact>
</mgrwt>
</event>
<event>
12    1  0.1026879E-001  0.2584939E+03  0.7546771E-02  0.1108193E+00
         21   -1    0    0  503  502  0.00000000000E+00  0.00000000000E+00  0.11594001124E+04  0.11594001124E+04  0.00000000000E+00 0. -1.
         21   -1    0    0  501  503 -0.00000000000E+00 -0.00000000000E+00 -0.10109082180E+03  0.10109082180E+03  0.00000000000E+00 0. -1.
          6    2    1    2  501    0  0.14481168604E+03  0.12623016319E+03  0.11440050464E+03  0.28182709863E+03  0.17156503008E+03 0.  0.
         24    2    3    3    0    0  0.10441178259E+03  0.15510164197E+03  0.66914077580E+02  0.21295936133E+03  0.76914602738E+02 0.  0.
         -6    2    1    2    0  502 -0.14481168604E+03 -0.12623016319E+03  0.94390878593E+03  0.97866383554E+03  0.17295845842E+03 0.  0.
        -24    2    5    5    0    0 -0.47237637026E+02 -0.11503134024E+03  0.65724968035E+03  0.67560997649E+03  0.94910981586E+02 0.  0.
          5    1    3    3  501    0  0.40399903443E+02 -0.28871478779E+02  0.47486427057E+02  0.68867737292E+02  0.47000000000E+01 0. -1.
        -11    1    4    4    0    0  0.16684743676E+02  0.12547246727E+01  0.26444001358E+02  0.31292814085E+02  0.00000000000E+00 0.  1.
         12    1    4    4    0    0  0.87727038918E+02  0.15384691730E+03  0.40470076222E+02  0.18166654725E+03  0.00000000000E+00 0. -1.
         -5    1    5    5    0  502 -0.97574049010E+02 -0.11198822949E+02  0.28665910558E+03  0.30305385905E+03  0.47000000000E+01 0.  1.
         13    1    6    6    0    0 -0.53570054794E+02 -0.77413200271E+02  0.59645031874E+03  0.60383403106E+03  0.00000000000E+00 0. -1.
        -14    1    6    6    0    0  0.63324177677E+01 -0.37618139973E+02  0.60799361609E+02  0.71775945427E+02  0.00000000000E+00 0.  1.
<mgrwt>
<rscale>  2 0.25826104E+03</rscale>
<asrwt>0</asrwt>
<pdfrwt beam="1">  1       21 0.17836924E+00 0.25849392E+03</pdfrwt>
<pdfrwt beam="2">  1       21 0.15552435E-01 0.25849392E+03</pdfrwt>
<totfact> 0.65245027E+03</totfact>
</mgrwt>
</event>
<event>
12    1  0.1026879E-001  0.1871952E+03  0.7546771E-02  0.1162724E+00
         21   -1    0    0  501  502  0.00000000000E+00  0.00000000000E+00  0.13542077191E+03  0.13542077191E+03  0.00000000000E+00 0.  1.
         21   -1    0    0  502  503 -0.00000000000E+00 -0.00000000000E+00 -0.25317527669E+03  0.25317527669E+03  0.00000000000E+00 0.  1.
         -6    2    1    2    0  503  0.60726897025E+02  0.36120069397E+02 -0.83243695735E+02  0.19824626407E+03  0.16546798150E+03 0.  0.
        -24    2    3    3    0    0 -0.25592911470E+02 -0.51797520743E+01 -0.47815672939E+02  0.96099216187E+02  0.79163715325E+02 0.  0.
          6    2    1    2  501    0 -0.60726897025E+02 -0.36120069397E+02 -0.34510809045E+02  0.19034978452E+03  0.17334828840E+03 0.  0.
         24    2    5    5    0    0 -0.70040824772E+02 -0.35567106018E+02 -0.82886404605E+02  0.14085894431E+03  0.82464234429E+02 0.  0.
          5    1    5    5  501    0  0.93139277463E+01 -0.55296337966E+00  0.48375595560E+02  0.49490840206E+02  0.47000000000E+01 0. -1.
        -13    1    6    6    0    0 -0.19623657839E+02 -0.36900402372E+00  0.15383566714E+02  0.24937486558E+02  0.00000000000E+00 0.  1.
         14    1    6    6    0    0 -0.50417166932E+02 -0.35198101994E+02 -0.98269971319E+02  0.11592145776E+03  0.00000000000E+00 0. -1.
         -5    1    3    3    0  503  0.86319808495E+02  0.41299821472E+02 -0.35428022796E+02  0.10214704788E+03  0.47000000000E+01 0.  1.
         11    1    4    4    0    0 -0.98690590948E+01 -0.18889504894E+02 -0.65419087970E+02  0.68803116160E+02  0.00000000000E+00 0. -1.
        -12    1    4    4    0    0 -0.15723852375E+02  0.13709752820E+02  0.17603415031E+02  0.27296100026E+02  0.00000000000E+00 0.  1.
<mgrwt>
<rscale>  2 0.18534990E+03</rscale>
<asrwt>0</asrwt>
<pdfrwt beam="1">  1       21 0.20833965E-01 0.18719520E+03</pdfrwt>
<pdfrwt beam="2">  1       21 0.38950042E-01 0.18719520E+03</pdfrwt>
<totfact> 0.13615308E+05</totfact>
</mgrwt>
</event>
<event>
12    1  0.1026879E-001  0.2209248E+03  0.7546771E-02  0.1133391E+00
         21   -1    0    0  501  502  0.00000000000E+00  0.00000000000E+00  0.75103614258E+02  0.75103614258E+02  0.00000000000E+00 0. -1.
         21   -1    0    0  502  503 -0.00000000000E+00 -0.00000000000E+00 -0.66732020823E+03  0.66732020823E+03  0.00000000000E+00 0.  1.
         -6    2    1    2    0  503  0.10121597006E+02  0.13644249043E+03 -0.36191316655E+03  0.42401519975E+03  0.17346108951E+03 0.  0.
        -24    2    3    3    0    0  0.38117305922E+02  0.65052880385E+02 -0.31553874046E+03  0.33427717250E+03  0.80571242148E+02 0.  0.
          6    2    1    2  501    0 -0.10121597006E+02 -0.13644249043E+03 -0.23030342742E+03  0.31840862274E+03  0.17212025573E+03 0.  0.
         24    2    5    5    0    0 -0.65232042661E+02 -0.12895003097E+03 -0.17304996127E+03  0.23845021133E+03  0.77645890484E+02 0.  0.
          5    1    5    5  501    0  0.55110445655E+02 -0.74924594597E+01 -0.57253466155E+02  0.79958411414E+02  0.47000000000E+01 0. -1.
        -11    1    6    6    0    0  0.17490615234E+02 -0.23677076681E+02 -0.23035103458E+02  0.37378357009E+02  0.00000000000E+00 0.  1.
         12    1    6    6    0    0 -0.82722657895E+02 -0.10527295429E+03 -0.15001485781E+03  0.20107185432E+03  0.00000000000E+00 0. -1.
         -5    1    3    3    0  503 -0.27995708916E+02  0.71389610048E+02 -0.46374426087E+02  0.89738027254E+02  0.47000000000E+01 0.  1.
         11    1    4    4    0    0  0.22659759170E+02  0.73936083288E+02 -0.15986746972E+03  0.17758833569E+03  0.00000000000E+00 0. -1.
        -12    1    4    4    0    0  0.15457546752E+02 -0.88832029030E+01 -0.15567127074E+03  0.15668883681E+03  0.00000000000E+00 0.  1.
<mgrwt>
<rscale>  2 0.22066149E+03</rscale>
<asrwt>0</asrwt>
<pdfrwt beam="1">  1       21 0.11554403E-01 0.22092476E+03</pdfrwt>
<pdfrwt beam="2">  1       21 0.10266464E+00 0.22092476E+03</pdfrwt>
<totfact> 0.47726265E+04</totfact>
</mgrwt>
</event>
<event>
12    1  0.1026879E-001  0.1841386E+03  0.7546771E-02  0.1166244E+00
         21   -1    0    0  503  502  0.00000000000E+00  0.00000000000E+00  0.36172772260E+03  0.36172772260E+03  0.00000000000E+00 0.  1.
         21   -1    0    0  501  503 -0.00000000000E+00 -0.00000000000E+00 -0.93655056862E+02  0.93655056862E+02  0.00000000000E+00 0.  1.
          6    2    1    2  501    0  0.49097838332E+02 -0.45044738316E+02  0.18246361883E+03  0.25231648400E+03  0.16103108309E+03 0.  0.
         24    2    3    3    0    0  0.54280831025E+02 -0.55322900827E+02  0.20121602339E+03  0.22981655700E+03  0.79503017718E+02 0.  0.
         -6    2    1    2    0  502 -0.49097838332E+02  0.45044738316E+02  0.85609046916E+02  0.20306629547E+03  0.17166066895E+03 0.  0.
        -24    2    5    5    0    0 -0.92205101375E+02  0.23168060211E+01  0.69379779021E+02  0.14006318871E+03  0.79353605993E+02 0.  0.
          5    1    3    3  501    0 -0.51829926930E+01  0.10278162511E+02 -0.18752404570E+02  0.22499927000E+02  0.47000000000E+01 0. -1.
        -11    1    4    4    0    0  0.22832060272E+02  0.19269417356E+02  0.60579262697E+02  0.67545987967E+02  0.00000000000E+00 0.  1.
         12    1    4    4    0    0  0.31448770753E+02 -0.74592318182E+02  0.14063676070E+03  0.16227056903E+03  0.00000000000E+00 0. -1.
         -5    1    5    5    0  502  0.43107263044E+02  0.42727932295E+02  0.16229267895E+02  0.63003106763E+02  0.47000000000E+01 0.  1.
         11    1    6    6    0    0 -0.10640486828E+02  0.20480822878E+02  0.48831600378E+02  0.54011195702E+02  0.00000000000E+00 0. -1.
        -12    1    6    6    0    0 -0.81564614548E+02 -0.18164016857E+02  0.20548178643E+02  0.86051993006E+02  0.00000000000E+00 0.  1.
<mgrwt>
<rscale>  2 0.18162068E+03</rscale>
<asrwt>0</asrwt>
<pdfrwt beam="1">  1       21 0.55650418E-01 0.18413857E+03</pdfrwt>
<pdfrwt beam="2">  1       21 0.14408471E-01 0.18413857E+03</pdfrwt>
<totfact> 0.12878793E+05</totfact>
</mgrwt>
</event>
<event>
12    1  0.1026879E-001  0.2542023E+03  0.7546771E-02  0.1110901E+00
         21   -1    0    0  503  502  0.00000000000E+00  0.00000000000E+00  0.69055279277E+03  0.69055279277E+03  0.00000000000E+00 0. -1.
         21   -1    0    0  501  503 -0.00000000000E+00 -0.00000000000E+00 -0.16682261537E+03  0.16682261537E+03  0.00000000000E+00 0. -1.
          6    2    1    2  501    0  0.14438159032E+03 -0.11778675212E+03 -0.23635697782E+02  0.25386216463E+03  0.17078521546E+03 0.  0.
         24    2    3    3    0    0  0.15084975950E+03 -0.11276047021E+03  0.22580719724E+02  0.20669069052E+03  0.82101029592E+02 0.  0.
         -6    2    1    2    0  502 -0.14438159032E+03  0.11778675212E+03  0.54736587518E+03  0.60351324352E+03  0.17291347890E+03 0.  0.
        -24    2    5    5    0    0 -0.21224564542E+02  0.55136074380E+02  0.33938176195E+03  0.35376889067E+03  0.80510737321E+02 0.  0.
          5    1    3    3  501    0 -0.64681691766E+01 -0.50262819089E+01 -0.46216417507E+02  0.47171474108E+02  0.47000000000E+01 0. -1.
        -13    1    4    4    0    0  0.12056003595E+02 -0.27738527035E+01  0.26835681776E+02  0.29549878136E+02  0.00000000000E+00 0.  1.
         14    1    4    4    0    0  0.13879375591E+03 -0.10998661751E+03 -0.42549620517E+01  0.17714081238E+03  0.00000000000E+00 0. -1.
         -5    1    5    5    0  502 -0.12315702578E+03  0.62650677744E+02  0.20798411324E+03  0.24974435285E+03  0.47000000000E+01 0.  1.
         11    1    6    6    0    0 -0.32934067520E+02  0.47030457619E+01  0.23402565357E+03  0.23637846342E+03  0.00000000000E+00 0. -1.
        -12    1    6    6    0    0  0.11709502979E+02  0.50433028618E+02  0.10535610838E+03  0.11739042724E+03  0.00000000000E+00 0.  1.
<mgrwt>
<rscale>  2 0.25384086E+03</rscale>
<asrwt>0</asrwt>
<pdfrwt beam="1">  1       21 0.10623889E+00 0.25420235E+03</pdfrwt>
<pdfrwt beam="2">  1       21 0.25665018E-01 0.25420235E+03</pdfrwt>
<totfact> 0.98381247E+03</totfact>
</mgrwt>
</event>
<event>
12    1  0.1026879E-001  0.2158619E+03  0.7546771E-02  0.1137133E+00
         21   -1    0    0  503  502  0.00000000000E+00  0.00000000000E+00  0.15867374650E+03  0.15867374650E+03  0.00000000000E+00 0. -1.
         21   -1    0    0  501  503 -0.00000000000E+00 -0.00000000000E+00 -0.39750890854E+03  0.39750890854E+03  0.00000000000E+00 0.  1.
          6    2    1    2  501    0  0.11023283869E+03 -0.65811029193E+02 -0.26203656351E+03  0.33907746785E+03  0.17270784086E+03 0.  0.
         24    2    3    3    0    0  0.12529396261E+03 -0.32304890593E+02 -0.26024258230E+03  0.30199907595E+03  0.82067394320E+02 0.  0.
         -6    2    1    2    0  502 -0.11023283869E+03  0.65811029193E+02  0.23201401473E+02  0.21710518719E+03  0.17353382087E+03 0.  0.
        -24    2    5    5    0    0 -0.11627642010E+02  0.33513584282E+02 -0.34956036232E+02  0.98065331169E+02  0.84477939832E+02 0.  0.
          5    1    3    3  501    0 -0.15061123913E+02 -0.33506138601E+02 -0.17939812148E+01  0.37078391902E+02  0.47000000000E+01 0. -1.
        -13    1    4    4    0    0  0.60095858200E+01 -0.33173655480E+02 -0.50818841506E+02  0.60984925938E+02  0.00000000000E+00 0.  1.
         14    1    4    4    0    0  0.11928437679E+03  0.86876488737E+00 -0.20942374079E+03  0.24101415001E+03  0.00000000000E+00 0. -1.
         -5    1    5    5    0  502 -0.98605196684E+02  0.32297444911E+02  0.58157437705E+02  0.11903985602E+03  0.47000000000E+01 0.  1.
         13    1    6    6    0    0 -0.41862145042E+02  0.38431237339E+02 -0.36251700883E+02  0.67406119958E+02  0.00000000000E+00 0. -1.
        -14    1    6    6    0    0  0.30234503033E+02 -0.49176530564E+01  0.12956646511E+01  0.30659211211E+02  0.00000000000E+00 0.  1.
<mgrwt>
<rscale>  2 0.21569584E+03</rscale>
<asrwt>0</asrwt>
<pdfrwt beam="1">  1       21 0.24411346E-01 0.21586189E+03</pdfrwt>
<pdfrwt beam="2">  1       21 0.61155216E-01 0.21586189E+03</pdfrwt>
<totfact> 0.38957851E+04</totfact>
</mgrwt>
</event>
<event>
12    1  0.1026879E-001  0.1875290E+03  0.7546771E-02  0.1161510E+00
         21   -1    0    0  503  502  0.00000000000E+00  0.00000000000E+00  0.11596535627E+04  0.11596535627E+04  0.00000000000E+00 0. -1.
         21   -1    0    0  501  503 -0.00000000000E+00 -0.00000000000E+00 -0.31719449060E+02  0.31719449060E+02  0.00000000000E+00 0. -1.
          6    2    1    2  501    0 -0.36212726214E+02  0.64386759569E+02  0.41133834589E+03  0.45064593260E+03  0.16859865190E+03 0.  0.
         24    2    3    3    0    0  0.38350913880E+02  0.10694459467E+02  0.24121614583E+03  0.25723897185E+03  0.80009346771E+02 0.  0.
         -6    2    1    2    0  502  0.36212726214E+02 -0.64386759569E+02  0.71659576779E+03  0.74072707919E+03  0.17236616574E+03 0.  0.
        -24    2    5    5    0    0  0.56713071380E+02  0.74539720838E+01  0.27197436341E+03  0.28984833928E+03  0.82280442790E+02 0.  0.
          5    1    3    3  501    0 -0.74563640094E+02  0.53692300102E+02  0.17012220006E+03  0.19340696075E+03  0.47000000000E+01 0. -1.
        -11    1    4    4    0    0  0.85868450684E+01  0.12674212794E+02  0.11779531743E+01  0.15354385428E+02  0.00000000000E+00 0.  1.
         12    1    4    4    0    0  0.29764068811E+02 -0.19797533273E+01  0.24003819265E+03  0.24188458642E+03  0.00000000000E+00 0. -1.
         -5    1    5    5    0  502 -0.20500345166E+02 -0.71840731653E+02  0.44462140438E+03  0.45087873992E+03  0.47000000000E+01 0.  1.
         13    1    6    6    0    0 -0.32913796337E+01 -0.29505109637E+02  0.84773648793E+02  0.89821802500E+02  0.00000000000E+00 0. -1.
        -14    1    6    6    0    0  0.60004451014E+02  0.36959081721E+02  0.18720071461E+03  0.20002653678E+03  0.00000000000E+00 0.  1.
<mgrwt>
<rscale>  2 0.18665870E+03</rscale>
<asrwt>0</asrwt>
<pdfrwt beam="1">  1       21 0.17840821E+00 0.18752896E+03</pdfrwt>
<pdfrwt beam="2">  1       21 0.48799161E-02 0.18752896E+03</pdfrwt>
<totfact> 0.52456916E+04</totfact>
</mgrwt>
</event>
<event>
12    1  0.1026879E-001  0.1839272E+03  0.7546771E-02  0.1164269E+00
         21   -1    0    0  501  502  0.00000000000E+00  0.00000000000E+00  0.69350013020E+02  0.69350013020E+02  0.00000000000E+00 0.  1.
         21   -1    0    0  502  503 -0.00000000000E+00 -0.00000000000E+00 -0.90984596473E+03  0.90984596473E+03  0.00000000000E+00 0.  1.
         -6    2    1    2    0  503  0.44294488825E+02 -0.40361419574E+02 -0.75409249630E+03  0.77598484704E+03  0.17293335114E+03 0.  0.
        -24    2    3    3    0    0 -0.55262286513E+01  0.28186506176E+02 -0.23393720823E+03  0.24895113301E+03  0.80156290473E+02 0.  0.
          6    2    1    2  501    0 -0.44294488825E+02  0.40361419574E+02 -0.86403455413E+02  0.20321113071E+03  0.17389123212E+03 0.  0.
         24    2    5    5    0    0  0.33952347855E+02  0.23359186396E+02 -0.23991570022E+01  0.87062710424E+02  0.76653415306E+02 0.  0.
          5    1    5    5  501    0 -0.78246836679E+02  0.17002233178E+02 -0.84004298410E+02  0.11614842029E+03  0.47000000000E+01 0. -1.
        -13    1    6    6    0    0 -0.16700382579E+02  0.12719022983E+02 -0.23194138817E+02  0.31283292656E+02  0.00000000000E+00 0.  1.
         14    1    6    6    0    0  0.50652730433E+02  0.10640163412E+02  0.20794981815E+02  0.55779417767E+02  0.00000000000E+00 0. -1.
         -5    1    3    3    0  503  0.49820717476E+02 -0.68547925749E+02 -0.52015528807E+03  0.52703371403E+03  0.47000000000E+01 0.  1.
         11    1    4    4    0    0 -0.39147149464E+02 -0.11709213396E+01 -0.13159134460E+03  0.13729585697E+03  0.00000000000E+00 0. -1.
        -12    1    4    4    0    0  0.33620920812E+02  0.29357427515E+02 -0.10234586363E+03  0.11165527605E+03  0.00000000000E+00 0.  1.
<mgrwt>
<rscale>  2 0.18370042E+03</rscale>
<asrwt>0</asrwt>
<pdfrwt beam="1">  1       21 0.10669233E-01 0.18392718E+03</pdfrwt>
<pdfrwt beam="2">  1       21 0.13997630E+00 0.18392718E+03</pdfrwt>
<totfact> 0.26042784E+04</totfact>
</mgrwt>
</event>
<event>
12    1  0.1026879E-001  0.2031958E+03  0.7546771E-02  0.1148702E+00
         21   -1    0    0  501  502  0.00000000000E+00  0.00000000000E+00  0.29381844495E+02  0.29381844495E+02  0.00000000000E+00 0. -1.
         21   -1    0    0  502  503 -0.00000000000E+00 -0.00000000000E+00 -0.13817522530E+04  0.13817522530E+04  0.00000000000E+00 0.  1.
         -6    2    1    2    0  503 -0.97930943019E+02 -0.47129639655E+02 -0.79205328604E+03  0.81770222680E+03  0.17168823854E+03 0.  0.
        -24    2    3    3    0    0 -0.12765269976E+02 -0.10586711441E+02 -0.17883599856E+03  0.19750378346E+03  0.82160814992E+02 0.  0.
          6    2    1    2  501    0  0.97930943019E+02  0.47129639655E+02 -0.56031712242E+03  0.59343187065E+03  0.16246364175E+03 0.  0.
         24    2    5    5    0    0  0.92332998105E+02  0.73480734522E+02 -0.54093530642E+03  0.55991378629E+03  0.83472399372E+02 0.  0.
          5    1    5    5  501    0  0.55979449146E+01 -0.26351094867E+02 -0.19381815999E+02  0.33518084363E+02  0.47000000000E+01 0. -1.
        -11    1    6    6    0    0  0.40688611427E+02 -0.13556235372E+02 -0.14150443603E+03  0.14786088067E+03  0.00000000000E+00 0.  1.
         12    1    6    6    0    0  0.51644386678E+02  0.87036969894E+02 -0.39943087039E+03  0.41205290562E+03  0.00000000000E+00 0. -1.
         -5    1    3    3    0  503 -0.85165673043E+02 -0.36542928214E+02 -0.61321728748E+03  0.62019844335E+03  0.47000000000E+01 0.  1.
         11    1    4    4    0    0 -0.89076008976E+01  0.31405321408E+02 -0.36108184223E+02  0.48676899392E+02  0.00000000000E+00 0. -1.
        -12    1    4    4    0    0 -0.38576690784E+01 -0.41992032850E+02 -0.14272781434E+03  0.14882688406E+03  0.00000000000E+00 0.  1.
<mgrwt>
<rscale>  2 0.20123458E+03</rscale>
<asrwt>0</asrwt>
<pdfrwt beam="1">  1       21 0.45202837E-02 0.20319578E+03</pdfrwt>
<pdfrwt beam="2">  1       21 0.21257727E+00 0.20319578E+03</pdfrwt>
<totfact> 0.35402178E+04</totfact>
</mgrwt>
</event>
<event>
12    1  0.1026879E-001  0.2478641E+03  0.7546771E-02  0.1114933E+00
         21   -1    0    0  503  502  0.00000000000E+00  0.00000000000E+00  0.19334676623E+03  0.19334676623E+03  0.00000000000E+00 0.  1.
         21   -1    0    0  501  503 -0.00000000000E+00 -0.00000000000E+00 -0.32812461789E+03  0.32812461789E+03  0.00000000000E+00 0.  1.
          6    2    1    2  501    0  0.13181446186E+03  0.11901648788E+03 -0.11812673075E+03  0.27304864793E+03  0.17047481595E+03 0.  0.
         24    2    3    3    0    0 -0.28059256563E+01  0.57528197901E+02 -0.36702577454E+02  0.10406509464E+03  0.78518137768E+02 0.  0.
         -6    2    1    2    0  502 -0.13181446186E+03 -0.11901648788E+03 -0.16651120900E+02  0.24842273619E+03  0.17290638880E+03 0.  0.
        -24    2    5    5    0    0 -0.90389752929E+02 -0.15152162633E+03 -0.21610616540E+02  0.19532587063E+03  0.80969539404E+02 0.  0.
          5    1    3    3  501    0  0.13462038752E+03  0.61488289981E+02 -0.81424153299E+02  0.16898355328E+03  0.47000000000E+01 0. -1.
        -13    1    4    4    0    0  0.69789881063E+01  0.75826553848E+02 -0.24493175364E+02  0.79989300427E+02  0.00000000000E+00 0.  1.
         14    1    4    4    0    0 -0.97849137626E+01 -0.18298355947E+02 -0.12209402090E+02  0.24075794215E+02  0.00000000000E+00 0. -1.
         -5    1    5    5    0  502 -0.41424708932E+02  0.32505138447E+02  0.49594956400E+01  0.53096865562E+02  0.47000000000E+01 0.  1.
         13    1    6    6    0    0  0.36513227985E+01  0.77750891673E+01 -0.40899074270E+01  0.95137538595E+01  0.00000000000E+00 0. -1.
        -14    1    6    6    0    0 -0.94041075728E+02 -0.15929671550E+03 -0.17520709113E+02  0.18581211677E+03  0.00000000000E+00 0.  1.
<mgrwt>
<rscale>  2 0.24744047E+03</rscale>
<asrwt>0</asrwt>
<pdfrwt beam="1">  1       21 0.29745657E-01 0.24786407E+03</pdfrwt>
<pdfrwt beam="2">  1       21 0.50480710E-01 0.24786407E+03</pdfrwt>
<totfact> 0.39424767E+04</totfact>
</mgrwt>
</event>
<event>
12    1  0.1026879E-001  0.2019646E+03  0.7546771E-02  0.1148322E+00
         21   -1    0    0  501  502  0.00000000000E+00  0.00000000000E+00  0.16937586437E+03  0.16937586437E+03  0.00000000000E+00 0.  1.
         21   -1    0    0  502  503 -0.00000000000E+00 -0.00000000000E+00 -0.24378260626E+03  0.24378260626E+03  0.00000000000E+00 0.  1.
         -6    2    1    2    0  503  0.93118427236E+02 -0.46214507820E+02 -0.99675064578E+01  0.20221042859E+03  0.17315566414E+03 0.  0.
        -24    2    3    3    0    0  0.15656205763E+02  0.14418478113E+02  0.34849664978E+02  0.94009580195E+02  0.84677581032E+02 0.  0.
          6    2    1    2  501    0 -0.93118427236E+02  0.46214507820E+02 -0.64439235429E+02  0.21094804204E+03  0.17187157751E+03 0.  0.
         24    2    5    5    0    0 -0.10669206673E+03 -0.70501340116E+01 -0.11642832688E+02  0.13458760791E+03  0.80903443420E+02 0.  0.
          5    1    5    5  501    0  0.13573639493E+02  0.53264641832E+02 -0.52796402741E+02  0.76360434132E+02  0.47000000000E+01 0. -1.
        -11    1    6    6    0    0 -0.46759519182E+02  0.34758580108E+02 -0.18656254565E+02  0.61177343516E+02  0.00000000000E+00 0.  1.
         12    1    6    6    0    0 -0.59932547547E+02 -0.41808714120E+02  0.70134218771E+01  0.73410264393E+02  0.00000000000E+00 0. -1.
         -5    1    3    3    0  503  0.77462221473E+02 -0.60632985933E+02 -0.44817171436E+02  0.10820084840E+03  0.47000000000E+01 0.  1.
         11    1    4    4    0    0 -0.29979719033E+02  0.25883518720E+01 -0.70844369667E+01  0.30913950990E+02  0.00000000000E+00 0. -1.
        -12    1    4    4    0    0  0.45635924796E+02  0.11830126241E+02  0.41934101945E+02  0.63095629205E+02  0.00000000000E+00 0.  1.
<mgrwt>
<rscale>  2 0.20168909E+03</rscale>
<asrwt>0</asrwt>
<pdfrwt beam="1">  1       21 0.26057825E-01 0.20196462E+03</pdfrwt>
<pdfrwt beam="2">  1       21 0.37505016E-01 0.20196462E+03</pdfrwt>
<totfact> 0.95571518E+04</totfact>
</mgrwt>
</event>
<event>
12    1  0.1026879E-001  0.1821665E+03  0.7546771E-02  0.1166546E+00
         21   -1    0    0  501  502  0.00000000000E+00  0.00000000000E+00  0.57580669430E+03  0.57580669430E+03  0.00000000000E+00 0. -1.
         21   -1    0    0  502  503 -0.00000000000E+00 -0.00000000000E+00 -0.66172124154E+02  0.66172124154E+02  0.00000000000E+00 0. -1.
         -6    2    1    2    0  503 -0.50782900901E+02 -0.23870521856E+02  0.13451102989E+03  0.22644614401E+03  0.17330878263E+03 0.  0.
        -24    2    3    3    0    0  0.18441813906E+02  0.15825620327E+02  0.11520224086E+03  0.14421011676E+03  0.83273349379E+02 0.  0.
          6    2    1    2  501    0  0.50782900901E+02  0.23870521856E+02  0.37512354025E+03  0.41553267444E+03  0.16970865695E+03 0.  0.
         24    2    5    5    0    0  0.60821628958E+01  0.22352534049E+02  0.35774756122E+03  0.36731986585E+03  0.80024607503E+02 0.  0.
          5    1    5    5  501    0  0.44700738005E+02  0.15179878068E+01  0.17375979030E+02  0.48212808593E+02  0.47000000000E+01 0. -1.
        -11    1    6    6    0    0  0.45271947120E+01  0.40075362202E+02  0.85961572847E+02  0.94952209843E+02  0.00000000000E+00 0.  1.
         12    1    6    6    0    0  0.15549681839E+01 -0.17722828153E+02  0.27178598837E+03  0.27236765601E+03  0.00000000000E+00 0. -1.
         -5    1    3    3    0  503 -0.69224714807E+02 -0.39696142183E+02  0.19308789034E+02  0.82236027252E+02  0.47000000000E+01 0.  1.
         11    1    4    4    0    0  0.43872600076E+01  0.47533111273E+02  0.43598392597E+02  0.64648778447E+02  0.00000000000E+00 0. -1.
        -12    1    4    4    0    0  0.14054553898E+02 -0.31707490946E+02  0.71603848264E+02  0.79561338310E+02  0.00000000000E+00 0.  1.
<mgrwt>
<rscale>  2 0.18130501E+03</rscale>
<asrwt>0</asrwt>
<pdfrwt beam="1">  1       21 0.88585642E-01 0.18216651E+03</pdfrwt>
<pdfrwt beam="2">  1       21 0.10180327E-01 0.18216651E+03</pdfrwt>
<totfact> 0.86054754E+04</totfact>
</mgrwt>
</event>
<event>
12    1  0.1026879E-001  0.1996719E+03  0.7546771E-02  0.1150073E+00
         21   -1    0    0  503  502  0.00000000000E+00  0.00000000000E+00  0.38880244007E+02  0.38880244007E+02  0.00000000000E+00 0.  1.
         21   -1    0    0  501  503 -0.00000000000E+00 -0.00000000000E+00 -0.10876157148E+04  0.10876157148E+04  0.00000000000E+00 0.  1.
          6    2    1    2  501    0 -0.98885192509E+02 -0.21886384333E+02 -0.66086187842E+03  0.69036749535E+03  0.17208010104E+03 0.  0.
         24    2    3    3    0    0  0.57441555933E+01  0.14628048861E+02 -0.20551176552E+03  0.22170298887E+03  0.81671013044E+02 0.  0.
         -6    2    1    2    0  502  0.98885192509E+02  0.21886384333E+02 -0.38787359242E+03  0.43612846350E+03  0.17176966514E+03 0.  0.
        -24    2    5    5    0    0  0.96829334031E+02  0.68676293121E+02 -0.22677867721E+03  0.26829764444E+03  0.80390947323E+02 0.  0.
          5    1    3    3  501    0 -0.10462934810E+03 -0.36514433194E+02 -0.45535011290E+03  0.46866450648E+03  0.47000000000E+01 0. -1.
        -13    1    4    4    0    0 -0.91948325442E+01  0.44690335081E+02 -0.15043624614E+03  0.15720316520E+03  0.00000000000E+00 0.  1.
         14    1    4    4    0    0  0.14938988138E+02 -0.30062286220E+02 -0.55075519377E+02  0.64499823674E+02  0.00000000000E+00 0. -1.
         -5    1    5    5    0  502  0.20558584772E+01 -0.46789908788E+02 -0.16109491521E+03  0.16783081905E+03  0.47000000000E+01 0.  1.
         11    1    6    6    0    0  0.79062800865E+02  0.20034798940E+02 -0.87088218696E+02  0.11931754894E+03  0.00000000000E+00 0. -1.
        -12    1    6    6    0    0  0.17766533167E+02  0.48641494181E+02 -0.13969045851E+03  0.14898009551E+03  0.00000000000E+00 0.  1.
<mgrwt>
<rscale>  2 0.19960497E+03</rscale>
<asrwt>0</asrwt>
<pdfrwt beam="1">  1       21 0.59815755E-02 0.19967187E+03</pdfrwt>
<pdfrwt beam="2">  1       21 0.16732551E+00 0.19967187E+03</pdfrwt>
<totfact> 0.43988042E+04</totfact>
</mgrwt>
</event>
<event>
12    1  0.1026879E-001  0.2334890E+03  0.7546771E-02  0.1126175E+00
         21   -1    0    0  501  502  0.00000000000E+00  0.00000000000E+00  0.63237449739E+03  0.63237449739E+03  0.00000000000E+00 0. -1.
         21   -1    0    0  502  503 -0.00000000000E+00 -0.00000000000E+00 -0.94586022366E+02  0.94586022366E+02  0.00000000000E+00 0. -1.
         -6    2    1    2    0  503  0.55856995275E+02  0.12906160182E+03  0.13147981218E+03  0.25834144845E+03  0.17226857517E+03 0.  0.
        -24    2    3    3    0    0 -0.17518338052E+02  0.38473404822E+02  0.10462046684E+03  0.13861811986E+03  0.80513638748E+02 0.  0.
          6    2    1    2  501    0 -0.55856995275E+02 -0.12906160182E+03  0.40630866285E+03  0.46861907131E+03  0.18638724072E+03 0.  0.
         24    2    5    5    0    0 -0.33031793957E+02  0.48063914736E+01  0.94068961211E+02  0.12809396104E+03  0.80280088321E+02 0.  0.
          5    1    5    5  501    0 -0.22825201318E+02 -0.13386799330E+03  0.31223970163E+03  0.34052511027E+03  0.47000000000E+01 0. -1.
        -13    1    6    6    0    0  0.22088140379E+02 -0.16786412520E+02  0.29646989368E+02  0.40603122654E+02  0.00000000000E+00 0.  1.
         14    1    6    6    0    0 -0.55119934335E+02  0.21592803994E+02  0.64421971844E+02  0.87490838387E+02  0.00000000000E+00 0. -1.
         -5    1    3    3    0  503  0.73375333326E+02  0.90588197002E+02  0.26859345335E+02  0.11972332859E+03  0.47000000000E+01 0.  1.
         11    1    4    4    0    0  0.18689146877E+02 -0.16555102573E+02  0.25933459746E+02  0.35998610620E+02  0.00000000000E+00 0. -1.
        -12    1    4    4    0    0 -0.36207484928E+02  0.55028507394E+02  0.78687007099E+02  0.10261950924E+03  0.00000000000E+00 0.  1.
<mgrwt>
<rscale>  2 0.23066105E+03</rscale>
<asrwt>0</asrwt>
<pdfrwt beam="1">  1       21 0.97288382E-01 0.23348898E+03</pdfrwt>
<pdfrwt beam="2">  1       21 0.14551696E-01 0.23348898E+03</pdfrwt>
<totfact> 0.35550554E+04</totfact>
</mgrwt>
</event>
<event>
12    1  0.1026879E-001  0.2051968E+03  0.7546771E-02  0.1145678E+00
         21   -1    0    0  503  502  0.00000000000E+00  0.00000000000E+00  0.18225731123E+03  0.18225731123E+03  0.00000000000E+00 0. -1.
         21   -1    0    0  501  503 -0.00000000000E+00 -0.00000000000E+00 -0.40372107695E+03  0.40372107695E+03  0.00000000000E+00 0. -1.
          6    2    1    2  501    0 -0.10794744494E+03  0.81618687783E+01 -0.30330889079E+03  0.36619940492E+03  0.17431710748E+03 0.  0.
         24    2    3    3    0    0 -0.93501128372E+02  0.69961179691E+02 -0.19280781555E+03  0.23868301961E+03  0.78471029336E+02 0.  0.
         -6    2    1    2    0  502  0.10794744494E+03 -0.81618687783E+01  0.81845125076E+02  0.21977898325E+03  0.17287252532E+03 0.  0.
        -24    2    5    5    0    0  0.23100597740E+02 -0.52633061353E+02  0.90658200859E+01  0.99381343397E+02  0.80564170437E+02 0.  0.
          5    1    3    3  501    0 -0.14446316564E+02 -0.61799310913E+02 -0.11050107525E+03  0.12751638531E+03  0.47000000000E+01 0. -1.
        -13    1    4    4    0    0 -0.69028281599E+02  0.32668218579E+01 -0.84583242539E+02  0.10922408482E+03  0.00000000000E+00 0.  1.
         14    1    4    4    0    0 -0.24472846773E+02  0.66694357833E+02 -0.10822457301E+03  0.12945893480E+03  0.00000000000E+00 0. -1.
         -5    1    5    5    0  502  0.84846847196E+02  0.44471192575E+02  0.72779304990E+02  0.12039763986E+03  0.47000000000E+01 0.  1.
         11    1    6    6    0    0  0.23532990858E+02  0.35172685906E+01  0.31015841564E+02  0.39091626533E+02  0.00000000000E+00 0. -1.
        -12    1    6    6    0    0 -0.43239311851E+00 -0.56150329944E+02 -0.21950021478E+02  0.60289716864E+02  0.00000000000E+00 0.  1.
<mgrwt>
<rscale>  2 0.20488966E+03</rscale>
<asrwt>0</asrwt>
<pdfrwt beam="1">  1       21 0.28039587E-01 0.20519679E+03</pdfrwt>
<pdfrwt beam="2">  1       21 0.62110934E-01 0.20519679E+03</pdfrwt>
<totfact> 0.29021496E+04</totfact>
</mgrwt>
</event>
<event>
12    1  0.1026879E-001  0.2605016E+03  0.7546771E-02  0.1107076E+00
         21   -1    0    0  503  502  0.00000000000E+00  0.00000000000E+00  0.45621437562E+03  0.45621437562E+03  0.00000000000E+00 0. -1.
         21   -1    0    0  501  503 -0.00000000000E+00 -0.00000000000E+00 -0.39405120200E+03  0.39405120200E+03  0.00000000000E+00 0.  1.
          6    2    1    2  501    0  0.15530355113E+03 -0.11418813779E+03 -0.30498805537E+03  0.40008659154E+03  0.17289720359E+03 0.  0.
         24    2    3    3    0    0  0.48351811253E+02 -0.11942315679E+03 -0.18429747748E+03  0.23867288185E+03  0.79996226759E+02 0.  0.
         -6    2    1    2    0  502 -0.15530355113E+03  0.11418813779E+03  0.36715122899E+03  0.45017898607E+03  0.17522263195E+03 0.  0.
        -24    2    5    5    0    0 -0.80607614817E+02  0.11311999960E+03  0.32879647696E+03  0.36607309553E+03  0.81293702920E+02 0.  0.
          5    1    3    3  501    0  0.10695173988E+03  0.52350189945E+01 -0.12069057789E+03  0.16141370969E+03  0.47000000000E+01 0. -1.
        -11    1    4    4    0    0  0.55670004982E+02 -0.80294881751E+02 -0.17055826083E+03  0.19656179138E+03  0.00000000000E+00 0.  1.
         12    1    4    4    0    0 -0.73181937286E+01 -0.39128275035E+02 -0.13739216646E+02  0.42111090472E+02  0.00000000000E+00 0. -1.
         -5    1    5    5    0  502 -0.74695936313E+02  0.10681381953E+01  0.38354752030E+02  0.84105890544E+02  0.47000000000E+01 0.  1.
         11    1    6    6    0    0 -0.66066481128E+01  0.65128893124E+02  0.19610014294E+03  0.20673820784E+03  0.00000000000E+00 0. -1.
        -12    1    6    6    0    0 -0.74000966704E+02  0.47991106472E+02  0.13269633402E+03  0.15933488769E+03  0.00000000000E+00 0.  1.
<mgrwt>
<rscale>  2 0.26011113E+03</rscale>
<asrwt>0</asrwt>
<pdfrwt beam="1">  1       21 0.70186827E-01 0.26050162E+03</pdfrwt>
<pdfrwt beam="2">  1       21 0.60623262E-01 0.26050162E+03</pdfrwt>
<totfact> 0.44519740E+03</totfact>
</mgrwt>
</event>
<event>
12    1  0.1026879E-001  0.2368891E+03  0.7546771E-02  0.1121927E+00
         21   -1    0    0  503  502  0.00000000000E+00  0.00000000000E+00  0.20697229670E+03  0.20697229670E+03  0.00000000000E+00 0.  1.
         21   -1    0    0  501  503 -0.00000000000E+00 -0.00000000000E+00 -0.64893606678E+03  0.64893606678E+03  0.00000000000E+00 0. -1.
          6    2    1    2  501    0 -0.16245573520E+03 -0.11090255046E+02 -0.54759620674E+03  0.59653481019E+03  0.17168958754E+03 0.  0.
         24    2    3    3    0    0 -0.72169265655E+02  0.49839636875E+02 -0.20713251527E+03  0.23904115497E+03  0.80897481890E+02 0.  0.
         -6    2    1    2    0  502  0.16245573520E+03  0.11090255046E+02  0.10563243666E+03  0.25937355330E+03  0.17205106457E+03 0.  0.
        -24    2    5    5    0    0  0.22124099450E+02 -0.30304579081E+02  0.56895165861E+02  0.10508838924E+03  0.79991664343E+02 0.  0.
          5    1    3    3  501    0 -0.90286469550E+02 -0.60929891920E+02 -0.34046369147E+03  0.35749365522E+03  0.47000000000E+01 0. -1.
        -13    1    4    4    0    0  0.11335353743E+01  0.45130258825E+02 -0.66409590120E+02  0.80301051201E+02  0.00000000000E+00 0.  1.
         14    1    4    4    0    0 -0.73302801029E+02  0.47093780497E+01 -0.14072292515E+03  0.15874010377E+03  0.00000000000E+00 0. -1.
         -5    1    5    5    0  502  0.14033163575E+03  0.41394834126E+02  0.48737270799E+02  0.15428516407E+03  0.47000000000E+01 0.  1.
         11    1    6    6    0    0 -0.18173022012E+02 -0.21289266583E+02 -0.71459278848E+01  0.28888680932E+02  0.00000000000E+00 0. -1.
        -12    1    6    6    0    0  0.40297121462E+02 -0.90153124977E+01  0.64041093746E+02  0.76199708305E+02  0.00000000000E+00 0.  1.
<mgrwt>
<rscale>  2 0.23682343E+03</rscale>
<asrwt>0</asrwt>
<pdfrwt beam="1">  1       21 0.31841892E-01 0.23688906E+03</pdfrwt>
<pdfrwt beam="2">  1       21 0.99836317E-01 0.23688906E+03</pdfrwt>
<totfact> 0.75818440E+03</totfact>
</mgrwt>
</event>
<event>
12    1  0.1026879E-001  0.1789637E+03  0.7546771E-02  0.1168854E+00
         21   -1    0    0  501  502  0.00000000000E+00  0.00000000000E+00  0.73351365948E+03  0.73351365948E+03  0.00000000000E+00 0. -1.
         21   -1    0    0  502  503 -0.00000000000E+00 -0.00000000000E+00 -0.54071496961E+02  0.54071496961E+02  0.00000000000E+00 0. -1.
         -6    2    1    2    0  503  0.31530748315E+02 -0.30943374906E+02  0.16672390219E+03  0.24459121678E+03  0.17342526697E+03 0.  0.
        -24    2    3    3    0    0 -0.64759108913E+01  0.11061656396E+01  0.99001957846E+01  0.80008580743E+02  0.79121413610E+02 0.  0.
          6    2    1    2  501    0 -0.31530748315E+02  0.30943374906E+02  0.51271826033E+03  0.54299393966E+03  0.17323603406E+03 0.  0.
         24    2    5    5    0    0  0.28922657425E+02 -0.26526639280E+02  0.33325131780E+03  0.34503462502E+03  0.80326016573E+02 0.  0.
          5    1    5    5  501    0 -0.60453405741E+02  0.57470014186E+02  0.17946694253E+03  0.19795931465E+03  0.47000000000E+01 0. -1.
        -13    1    6    6    0    0  0.33636046116E+02 -0.40939670765E+02  0.32153527707E+03  0.32587171501E+03  0.00000000000E+00 0.  1.
         14    1    6    6    0    0 -0.47133886912E+01  0.14413031485E+02  0.11716040730E+02  0.19162910007E+02  0.00000000000E+00 0. -1.
         -5    1    3    3    0  503  0.38006659207E+02 -0.32049540546E+02  0.15682370641E+03  0.16458263604E+03  0.47000000000E+01 0.  1.
         11    1    4    4    0    0 -0.53508386534E+01  0.39235446857E+02  0.13148847534E+02  0.41724620500E+02  0.00000000000E+00 0. -1.
        -12    1    4    4    0    0 -0.11250722380E+01 -0.38129281218E+02 -0.32486517495E+01  0.38283960243E+02  0.00000000000E+00 0.  1.
<mgrwt>
<rscale>  2 0.17891783E+03</rscale>
<asrwt>0</asrwt>
<pdfrwt beam="1">  1       21 0.11284825E+00 0.17896369E+03</pdfrwt>
<pdfrwt beam="2">  1       21 0.83186923E-02 0.17896369E+03</pdfrwt>
<totfact> 0.69260332E+04</totfact>
</mgrwt>
</event>
<event>
12    1  0.1026879E-001  0.4893902E+03  0.7546771E-02  0.1016934E+00
         21   -1    0    0  503  502  0.00000000000E+00  0.00000000000E+00  0.13186334117E+04  0.13186334117E+04  0.00000000000E+00 0. -1.
         21   -1    0    0  501  503 -0.00000000000E+00 -0.00000000000E+00 -0.19250363354E+03  0.19250363354E+03  0.00000000000E+00 0. -1.
          6    2    1    2  501    0 -0.52178243100E+02  0.44946097876E+03  0.36556407176E+03  0.60672399535E+03  0.17245050158E+03 0.  0.
         24    2    3    3    0    0 -0.31618681086E+02  0.30906220965E+03  0.16491516384E+03  0.36092614303E+03  0.80941207247E+02 0.  0.
         -6    2    1    2    0  502  0.52178243100E+02 -0.44946097876E+03  0.76056570636E+03  0.90441304985E+03  0.18645382957E+03 0.  0.
        -24    2    5    5    0    0 -0.44920926464E+02 -0.25698995941E+03  0.44884340108E+03  0.52537976947E+03  0.80633582389E+02 0.  0.
          5    1    3    3  501    0 -0.20559562015E+02  0.14039876911E+03  0.20064890792E+03  0.24579785233E+03  0.47000000000E+01 0. -1.
        -13    1    4    4    0    0  0.19306527847E+02  0.24516097608E+02  0.89296920996E+01  0.32457979919E+02  0.00000000000E+00 0.  1.
         14    1    4    4    0    0 -0.50925208933E+02  0.28454611204E+03  0.15598547174E+03  0.32846816311E+03  0.00000000000E+00 0. -1.
         -5    1    5    5    0  502  0.97099169564E+02 -0.19247101935E+03  0.31172230529E+03  0.37903328038E+03  0.47000000000E+01 0.  1.
         13    1    6    6    0    0  0.13078930222E+02 -0.13447683034E+03  0.18929115696E+03  0.23256443928E+03  0.00000000000E+00 0. -1.
        -14    1    6    6    0    0 -0.57999856687E+02 -0.12251312907E+03  0.25955224412E+03  0.29281533020E+03  0.00000000000E+00 0.  1.
<mgrwt>
<rscale>  2 0.48809456E+03</rscale>
<asrwt>0</asrwt>
<pdfrwt beam="1">  1       21 0.20286667E+00 0.48939020E+03</pdfrwt>
<pdfrwt beam="2">  1       21 0.29615944E-01 0.48939020E+03</pdfrwt>
<totfact> 0.11562849E+03</totfact>
</mgrwt>
</event>
<event>
12    1  0.1026879E-001  0.2068785E+03  0.7546771E-02  0.1144137E+00
         21   -1    0    0  501  502  0.00000000000E+00  0.00000000000E+00  0.17574804531E+03  0.17574804531E+03  0.00000000000E+00 0. -1.
         21   -1    0    0  502  503 -0.00000000000E+00 -0.00000000000E+00 -0.30369990245E+03  0.30369990245E+03  0.00000000000E+00 0. -1.
         -6    2    1    2    0  503 -0.10407244320E+03  0.52320052540E+02 -0.17112053243E+03  0.26847897896E+03  0.17096860588E+03 0.  0.
        -24    2    3    3    0    0 -0.90974563540E+02 -0.27314948531E+02 -0.87763903592E+02  0.15235962046E+03  0.80551061754E+02 0.  0.
          6    2    1    2  501    0  0.10407244320E+03 -0.52320052540E+02  0.43168675288E+02  0.21096896880E+03  0.17051659726E+03 0.  0.
         24    2    5    5    0    0  0.66709554722E+02  0.25683878347E+02 -0.11948216736E+02  0.10830173715E+03  0.80477823578E+02 0.  0.
          5    1    5    5  501    0  0.37362888474E+02 -0.78003930887E+02  0.55116892025E+02  0.10266723165E+03  0.47000000000E+01 0. -1.
        -11    1    6    6    0    0 -0.10555239895E+02  0.35842552621E+01  0.19128116523E+02  0.22139214456E+02  0.00000000000E+00 0.  1.
         12    1    6    6    0    0  0.77264794617E+02  0.22099623085E+02 -0.31076333259E+02  0.86162522691E+02  0.00000000000E+00 0. -1.
         -5    1    3    3    0  503 -0.13097879656E+02  0.79635001071E+02 -0.83356628838E+02  0.11611935850E+03  0.47000000000E+01 0.  1.
         13    1    4    4    0    0 -0.42647129278E+02  0.14875659308E+02 -0.74080120816E+02  0.86763628184E+02  0.00000000000E+00 0. -1.
        -14    1    4    4    0    0 -0.48327434262E+02 -0.42190607839E+02 -0.13683782776E+02  0.65595992280E+02  0.00000000000E+00 0.  1.
<mgrwt>
<rscale>  2 0.20678512E+03</rscale>
<asrwt>0</asrwt>
<pdfrwt beam="1">  1       21 0.27038161E-01 0.20687853E+03</pdfrwt>
<pdfrwt beam="2">  1       21 0.46723062E-01 0.20687853E+03</pdfrwt>
<totfact> 0.56782694E+04</totfact>
</mgrwt>
</event>
<event>
12    1  0.1026879E-001  0.2574726E+03  0.7546771E-02  0.1108674E+00
         21   -1    0    0  503  502  0.00000000000E+00  0.00000000000E+00  0.20818919892E+04  0.20818919892E+04  0.00000000000E+00 0. -1.
         21   -1    0    0  501  503 -0.00000000000E+00 -0.00000000000E+00 -0.53656627916E+02  0.53656627916E+02  0.00000000000E+00 0. -1.
          6    2    1    2  501    0  0.18488576280E+03 -0.48707563451E+02  0.33323321308E+03  0.42110280666E+03  0.17241817612E+03 0.  0.
         24    2    3    3    0    0  0.16808101968E+03 -0.26316554424E+01  0.32422016999E+03  0.37101574610E+03  0.65389681439E+02 0.  0.
         -6    2    1    2    0  502 -0.18488576280E+03  0.48707563451E+02  0.16950021482E+04  0.17144458105E+04  0.17244414327E+03 0.  0.
        -24    2    5    5    0    0 -0.10318777627E+03 -0.36342522870E+02  0.10686756221E+04  0.10770957610E+04  0.78097356193E+02 0.  0.
          5    1    3    3  501    0  0.16804743113E+02 -0.46075908008E+02  0.90130430931E+01  0.50087060562E+02  0.47000000000E+01 0. -1.
        -11    1    4    4    0    0  0.62938401473E+02  0.13632480882E+02  0.68355715805E+02  0.93912676451E+02  0.00000000000E+00 0.  1.
         12    1    4    4    0    0  0.10514261821E+03 -0.16264136325E+02  0.25586445418E+03  0.27710306965E+03  0.00000000000E+00 0. -1.
         -5    1    5    5    0  502 -0.81697986524E+02  0.85050086320E+02  0.62632652613E+03  0.63735004944E+03  0.47000000000E+01 0.  1.
         11    1    6    6    0    0 -0.31358562835E+02 -0.38331546175E+02  0.22603229624E+03  0.23139417849E+03  0.00000000000E+00 0. -1.
        -12    1    6    6    0    0 -0.71829213438E+02  0.19890233054E+01  0.84264332584E+03  0.84570158253E+03  0.00000000000E+00 0.  1.
<mgrwt>
<rscale>  2 0.25746828E+03</rscale>
<asrwt>0</asrwt>
<pdfrwt beam="1">  1       21 0.32029101E+00 0.25747263E+03</pdfrwt>
<pdfrwt beam="2">  1       21 0.82548674E-02 0.25747263E+03</pdfrwt>
<totfact> 0.27579413E+03</totfact>
</mgrwt>
</event>
<event>
12    1  0.1026879E-001  0.2443265E+03  0.7546771E-02  0.1117080E+00
         21   -1    0    0  501  502  0.00000000000E+00  0.00000000000E+00  0.17703871250E+03  0.17703871250E+03  0.00000000000E+00 0.  1.
         21   -1    0    0  502  503 -0.00000000000E+00 -0.00000000000E+00 -0.42470534897E+03  0.42470534897E+03  0.00000000000E+00 0.  1.
         -6    2    1    2    0  503 -0.13955527176E+03 -0.10201418290E+03  0.13807822494E+02  0.24388328803E+03  0.17148129586E+03 0.  0.
        -24    2    3    3    0    0 -0.33802144951E+02 -0.10398360869E+03  0.24246534726E+02  0.13749410070E+03  0.79759371864E+02 0.  0.
          6    2    1    2  501    0  0.13955527176E+03  0.10201418290E+03 -0.26147445896E+03  0.35786077345E+03  0.17266404691E+03 0.  0.
         24    2    5    5    0    0  0.10136603253E+02  0.73675233504E+01 -0.56830967901E+02  0.97844946326E+02  0.78656490406E+02 0.  0.
          5    1    5    5  501    0  0.12941866850E+03  0.94646659550E+02 -0.20464349106E+03  0.26001582712E+03  0.47000000000E+01 0. -1.
        -11    1    6    6    0    0  0.39377484698E+02  0.23894582284E+02 -0.32889664032E+02  0.56597414816E+02  0.00000000000E+00 0.  1.
         12    1    6    6    0    0 -0.29240881445E+02 -0.16527058933E+02 -0.23941303869E+02  0.41247531510E+02  0.00000000000E+00 0. -1.
         -5    1    3    3    0  503 -0.10575312681E+03  0.19694257939E+01 -0.10438712232E+02  0.10638918733E+03  0.47000000000E+01 0.  1.
         11    1    4    4    0    0  0.23558595317E+02 -0.35503485826E+02  0.22416668718E+02  0.48145736629E+02  0.00000000000E+00 0. -1.
        -12    1    4    4    0    0 -0.57360740268E+02 -0.68480122868E+02  0.18298660080E+01  0.89348364069E+02  0.00000000000E+00 0.  1.
<mgrwt>
<rscale>  2 0.24411763E+03</rscale>
<asrwt>0</asrwt>
<pdfrwt beam="1">  1       21 0.27236726E-01 0.24432650E+03</pdfrwt>
<pdfrwt beam="2">  1       21 0.65339283E-01 0.24432650E+03</pdfrwt>
<totfact> 0.26957316E+04</totfact>
</mgrwt>
</event>
<event>
12    1  0.1026879E-001  0.2697324E+03  0.7546771E-02  0.1101532E+00
         21   -1    0    0  503  502  0.00000000000E+00  0.00000000000E+00  0.11504488123E+04  0.11504488123E+04  0.00000000000E+00 0. -1.
         21   -1    0    0  501  503 -0.00000000000E+00 -0.00000000000E+00 -0.85583204961E+02  0.85583204961E+02  0.00000000000E+00 0. -1.
          6    2    1    2  501    0  0.72869290022E+02  0.19279809340E+03  0.21501982771E+03  0.34440798074E+03  0.17292279387E+03 0.  0.
         24    2    3    3    0    0  0.21838003976E+02  0.19012320347E+03  0.13864461572E+03  0.25239379598E+03  0.88637282571E+02 0.  0.
         -6    2    1    2    0  502 -0.72869290022E+02 -0.19279809340E+03  0.84984577959E+03  0.89162403649E+03  0.17399579046E+03 0.  0.
        -24    2    5    5    0    0 -0.49344205279E+02 -0.19748014246E+03  0.56337483290E+03  0.60411222022E+03  0.78275890328E+02 0.  0.
          5    1    3    3  501    0  0.51031286046E+02  0.26748899296E+01  0.76375211986E+02  0.92014184763E+02  0.47000000000E+01 0. -1.
        -13    1    4    4    0    0 -0.33287739973E+02  0.96074063287E+02  0.72565851802E+02  0.12491638050E+03  0.00000000000E+00 0.  1.
         14    1    4    4    0    0  0.55125743949E+02  0.94049140187E+02  0.66078763922E+02  0.12747741548E+03  0.00000000000E+00 0. -1.
         -5    1    5    5    0  502 -0.23525084742E+02  0.46820490586E+01  0.28647094669E+03  0.28751181627E+03  0.47000000000E+01 0.  1.
         13    1    6    6    0    0 -0.53186403034E+02 -0.13811119543E+03  0.47544184809E+03  0.49794422046E+03  0.00000000000E+00 0. -1.
        -14    1    6    6    0    0  0.38421977548E+01 -0.59368947031E+02  0.87932984813E+02  0.10616799976E+03  0.00000000000E+00 0.  1.
<mgrwt>
<rscale>  2 0.26955952E+03</rscale>
<asrwt>0</asrwt>
<pdfrwt beam="1">  1       21 0.17699211E+00 0.26973241E+03</pdfrwt>
<pdfrwt beam="2">  1       21 0.13166648E-01 0.26973241E+03</pdfrwt>
<totfact> 0.89791739E+03</totfact>
</mgrwt>
</event>
<event>
12    1  0.1026879E-001  0.2011156E+03  0.7546771E-02  0.1148834E+00
         21   -1    0    0  501  502  0.00000000000E+00  0.00000000000E+00  0.29551479630E+02  0.29551479630E+02  0.00000000000E+00 0. -1.
         21   -1    0    0  502  503 -0.00000000000E+00 -0.00000000000E+00 -0.17988838759E+04  0.17988838759E+04  0.00000000000E+00 0. -1.
         -6    2    1    2    0  503  0.75412150640E+02  0.69424938503E+02 -0.13325447719E+04  0.13476360948E+04  0.17303369739E+03 0.  0.
        -24    2    3    3    0    0 -0.33411285362E+02  0.24191614036E+02 -0.49100674564E+03  0.49787322585E+03  0.71334259463E+02 0.  0.
          6    2    1    2  501    0 -0.75412150640E+02 -0.69424938503E+02 -0.43678762441E+03  0.48079926074E+03  0.17285162925E+03 0.  0.
         24    2    5    5    0    0 -0.82252761049E+02  0.93066553076E+01 -0.19917946810E+03  0.23034929815E+03  0.80846818810E+02 0.  0.
          5    1    5    5  501    0  0.68406104086E+01 -0.78731593811E+02 -0.23760815631E+03  0.25044996259E+03  0.47000000000E+01 0. -1.
        -11    1    6    6    0    0 -0.46997827638E+02 -0.38515812645E+01 -0.18370621997E+03  0.18966181940E+03  0.00000000000E+00 0.  1.
         12    1    6    6    0    0 -0.35254933411E+02  0.13158236572E+02 -0.15473248130E+02  0.40687478752E+02  0.00000000000E+00 0. -1.
         -5    1    3    3    0  503  0.10882343600E+03  0.45233324467E+02 -0.84153802626E+03  0.84976286899E+03  0.47000000000E+01 0.  1.
         11    1    4    4    0    0 -0.15506082656E+02  0.44252010132E+02 -0.19130685315E+03  0.19696951810E+03  0.00000000000E+00 0. -1.
        -12    1    4    4    0    0 -0.17905202706E+02 -0.20060396095E+02 -0.29969989249E+03  0.30090370775E+03  0.00000000000E+00 0.  1.
<mgrwt>
<rscale>  2 0.20107641E+03</rscale>
<asrwt>0</asrwt>
<pdfrwt beam="1">  1       21 0.45463798E-02 0.20111558E+03</pdfrwt>
<pdfrwt beam="2">  1       21 0.27675147E+00 0.20111558E+03</pdfrwt>
<totfact> 0.14560278E+04</totfact>
</mgrwt>
</event>
<event>
12    1  0.1026879E-001  0.2792367E+03  0.7546771E-02  0.1096647E+00
         21   -1    0    0  503  502  0.00000000000E+00  0.00000000000E+00  0.57361832388E+02  0.57361832388E+02  0.00000000000E+00 0. -1.
         21   -1    0    0  501  503 -0.00000000000E+00 -0.00000000000E+00 -0.13936622318E+04  0.13936622318E+04  0.00000000000E+00 0. -1.
          6    2    1    2  501    0 -0.24210386043E+02 -0.21357831413E+03 -0.81461118508E+03  0.86114141608E+03  0.17824510252E+03 0.  0.
         24    2    3    3    0    0  0.18151009917E+02 -0.31934080267E+02 -0.34359279981E+03  0.35451579017E+03  0.79222400599E+02 0.  0.
         -6    2    1    2    0  502  0.24210386043E+02  0.21357831413E+03 -0.52168921438E+03  0.58988264816E+03  0.17204668882E+03 0.  0.
        -24    2    5    5    0    0 -0.21307692448E+01  0.23157208391E+03 -0.45855832545E+03  0.51899378197E+03  0.73814887755E+02 0.  0.
          5    1    3    3  501    0 -0.42361395961E+02 -0.18164423387E+03 -0.47101838527E+03  0.50662562591E+03  0.47000000000E+01 0. -1.
        -11    1    4    4    0    0  0.39157153681E+02 -0.34181885096E+02 -0.31330909060E+03  0.31759135726E+03  0.00000000000E+00 0.  1.
         12    1    4    4    0    0 -0.21006143764E+02  0.22478048297E+01 -0.30283709206E+02  0.36924432909E+02  0.00000000000E+00 0. -1.
         -5    1    5    5    0  502  0.26341155288E+02 -0.17993769775E+02 -0.63130888932E+02  0.70888866192E+02  0.47000000000E+01 0.  1.
         11    1    6    6    0    0 -0.31649690876E+01  0.15563438142E+03 -0.22658445283E+03  0.27490469617E+03  0.00000000000E+00 0. -1.
        -12    1    6    6    0    0  0.10341998428E+01  0.75937702494E+02 -0.23197387262E+03  0.24408908580E+03  0.00000000000E+00 0.  1.
<mgrwt>
<rscale>  2 0.27825273E+03</rscale>
<asrwt>0</asrwt>
<pdfrwt beam="1">  1       21 0.88248986E-02 0.27923674E+03</pdfrwt>
<pdfrwt beam="2">  1       21 0.21440954E+00 0.27923674E+03</pdfrwt>
<totfact> 0.10334479E+04</totfact>
</mgrwt>
</event>
<event>
12    1  0.1026879E-001  0.2136284E+03  0.7546771E-02  0.1140246E+00
         21   -1    0    0  503  502  0.00000000000E+00  0.00000000000E+00  0.31889235380E+03  0.31889235380E+03  0.00000000000E+00 0.  1.
         21   -1    0    0  501  503 -0.00000000000E+00 -0.00000000000E+00 -0.49179187201E+03  0.49179187201E+03  0.00000000000E+00 0.  1.
          6    2    1    2  501    0 -0.62370542463E+02 -0.93315765337E+02 -0.42978906246E+03  0.47657449190E+03  0.17264614529E+03 0.  0.
         24    2    3    3    0    0 -0.42778888278E+02 -0.16912647517E+01 -0.13110969478E+03  0.16350846579E+03  0.87820115355E+02 0.  0.
         -6    2    1    2    0  502  0.62370542463E+02  0.93315765337E+02  0.25688954426E+03  0.33410973391E+03  0.18176677287E+03 0.  0.
        -24    2    5    5    0    0  0.11251435889E+03  0.70171480399E+02  0.15952218786E+03  0.22207156032E+03  0.79277562188E+02 0.  0.
          5    1    3    3  501    0 -0.19591654186E+02 -0.91624500585E+02 -0.29867936769E+03  0.31306602611E+03  0.47000000000E+01 0. -1.
        -11    1    4    4    0    0 -0.16091957946E+02  0.31509434868E+02 -0.11081140999E+03  0.11632267268E+03  0.00000000000E+00 0.  1.
         12    1    4    4    0    0 -0.26686930332E+02 -0.33200699619E+02 -0.20298284790E+02  0.47185793107E+02  0.00000000000E+00 0. -1.
         -5    1    5    5    0  502 -0.50143816422E+02  0.23144284938E+02  0.97367356392E+02  0.11203817359E+03  0.47000000000E+01 0.  1.
         11    1    6    6    0    0 -0.47627353964E+01  0.28534525063E+02  0.20332961988E+02  0.35360035524E+02  0.00000000000E+00 0. -1.
        -12    1    6    6    0    0  0.11727709428E+03  0.41636955336E+02  0.13918922588E+03  0.18671152480E+03  0.00000000000E+00 0.  1.
<mgrwt>
<rscale>  2 0.21167561E+03</rscale>
<asrwt>0</asrwt>
<pdfrwt beam="1">  1       21 0.49060362E-01 0.21362836E+03</pdfrwt>
<pdfrwt beam="2">  1       21 0.75660288E-01 0.21362836E+03</pdfrwt>
<totfact> 0.60850517E+03</totfact>
</mgrwt>
</event>
<event>
12    1  0.1026879E-001  0.2119528E+03  0.7546771E-02  0.1140107E+00
         21   -1    0    0  501  502  0.00000000000E+00  0.00000000000E+00  0.66570661781E+02  0.66570661781E+02  0.00000000000E+00 0.  1.
         21   -1    0    0  502  503 -0.00000000000E+00 -0.00000000000E+00 -0.71206494976E+03  0.71206494976E+03  0.00000000000E+00 0.  1.
         -6    2    1    2    0  503 -0.68618149191E+02  0.10121074891E+03 -0.41299244315E+03  0.46402298938E+03  0.17263403628E+03 0.  0.
        -24    2    3    3    0    0 -0.39917822358E+02  0.35742163957E+00 -0.10823711115E+03  0.14169861121E+03  0.82277967263E+02 0.  0.
          6    2    1    2  501    0  0.68618149191E+02 -0.10121074891E+03 -0.23250184483E+03  0.31461262216E+03  0.17312402514E+03 0.  0.
         24    2    5    5    0    0  0.11230108423E+03 -0.79924090464E+02 -0.15256724371E+03  0.22094858906E+03  0.80883381450E+02 0.  0.
          5    1    5    5  501    0 -0.43682935043E+02 -0.21286658443E+02 -0.79934601112E+02  0.93664033100E+02  0.47000000000E+01 0. -1.
        -11    1    6    6    0    0  0.16579958006E+02 -0.31413275468E+02 -0.13789161428E+01  0.35547015245E+02  0.00000000000E+00 0.  1.
         12    1    6    6    0    0  0.95721126228E+02 -0.48510814996E+02 -0.15118832757E+03  0.18540157381E+03  0.00000000000E+00 0. -1.
         -5    1    3    3    0  503 -0.28700326833E+02  0.10085332727E+03 -0.30475533200E+03  0.32232437817E+03  0.47000000000E+01 0.  1.
         11    1    4    4    0    0 -0.47792706242E+02  0.31269370045E+02 -0.53020696253E+02  0.77930164276E+02  0.00000000000E+00 0. -1.
        -12    1    4    4    0    0  0.78748838840E+01 -0.30911948405E+02 -0.55216414901E+02  0.63768446938E+02  0.00000000000E+00 0.  1.
<mgrwt>
<rscale>  2 0.21185273E+03</rscale>
<asrwt>0</asrwt>
<pdfrwt beam="1">  1       21 0.10241641E-01 0.21195281E+03</pdfrwt>
<pdfrwt beam="2">  1       21 0.10954845E+00 0.21195281E+03</pdfrwt>
<totfact> 0.50808416E+04</totfact>
</mgrwt>
</event>
<event>
12    1  0.1026879E-001  0.2253135E+03  0.7546771E-02  0.1130200E+00
         21   -1    0    0  501  502  0.00000000000E+00  0.00000000000E+00  0.25191097729E+03  0.25191097729E+03  0.00000000000E+00 0.  1.
         21   -1    0    0  502  503 -0.00000000000E+00 -0.00000000000E+00 -0.36309151466E+03  0.36309151466E+03  0.00000000000E+00 0. -1.
         -6    2    1    2    0  503  0.70225392981E+02  0.12553261903E+03 -0.26131135712E+03  0.34425270007E+03  0.17186114129E+03 0.  0.
        -24    2    3    3    0    0  0.10118896783E+03  0.81131162795E+02 -0.12593861203E+03  0.19838254412E+03  0.81692270289E+02 0.  0.
          6    2    1    2  501    0 -0.70225392981E+02 -0.12553261903E+03  0.15013081976E+03  0.27074979187E+03  0.17342474592E+03 0.  0.
         24    2    5    5    0    0  0.94541912265E+01 -0.44544214529E+02  0.12072321704E+03  0.15329829167E+03  0.82781050465E+02 0.  0.
          5    1    5    5  501    0 -0.79679584207E+02 -0.80988404500E+02  0.29407602717E+02  0.11745150021E+03  0.47000000000E+01 0. -1.
        -11    1    6    6    0    0  0.14663040642E+02 -0.66738293581E+02  0.70690225746E+02  0.98316390327E+02  0.00000000000E+00 0.  1.
         12    1    6    6    0    0 -0.52088494157E+01  0.22194079052E+02  0.50032991296E+02  0.54981901342E+02  0.00000000000E+00 0. -1.
         -5    1    3    3    0  503 -0.30963574849E+02  0.44401456234E+02 -0.13537274510E+03  0.14587015596E+03  0.47000000000E+01 0.  1.
         13    1    4    4    0    0  0.11239865222E+03  0.84417025992E+02 -0.10934637518E+03  0.17809076636E+03  0.00000000000E+00 0. -1.
        -14    1    4    4    0    0 -0.11209684389E+02 -0.32858631970E+01 -0.16592236845E+02  0.20291777757E+02  0.00000000000E+00 0.  1.
<mgrwt>
<rscale>  2 0.22501261E+03</rscale>
<asrwt>0</asrwt>
<pdfrwt beam="1">  1       21 0.38755535E-01 0.22531353E+03</pdfrwt>
<pdfrwt beam="2">  1       21 0.55860233E-01 0.22531353E+03</pdfrwt>
<totfact> 0.19011658E+04</totfact>
</mgrwt>
</event>
<event>
12    1  0.1026879E-001  0.1734617E+03  0.7546771E-02  0.1174621E+00
         21   -1    0    0  503  502  0.00000000000E+00  0.00000000000E+00  0.13971050940E+03  0.13971050940E+03  0.00000000000E+00 0. -1.
         21   -1    0    0  501  503 -0.00000000000E+00 -0.00000000000E+00 -0.21414021079E+03  0.21414021079E+03  0.00000000000E+00 0. -1.
          6    2    1    2  501    0 -0.81086949716E+01  0.43253910302E+01 -0.45048657911E+02  0.17921588177E+03  0.17321804397E+03 0.  0.
         24    2    3    3    0    0  0.16628708882E+02 -0.13284326609E+02  0.37645554216E+02  0.90997606884E+02  0.80064907506E+02 0.  0.
         -6    2    1    2    0  502  0.81086949716E+01 -0.43253910302E+01 -0.29381043472E+02  0.17463483842E+03  0.17190003238E+03 0.  0.
        -24    2    5    5    0    0  0.12514857112E+02  0.54629674140E+02 -0.50312937477E+02  0.11174327968E+03  0.82547840260E+02 0.  0.
          5    1    3    3  501    0 -0.24737403853E+02  0.17609717639E+02 -0.82694212127E+02  0.88218274887E+02  0.47000000000E+01 0. -1.
        -13    1    4    4    0    0  0.34081307275E+02  0.47594787758E+01 -0.11108275661E+02  0.36160502374E+02  0.00000000000E+00 0.  1.
         14    1    4    4    0    0 -0.17452598393E+02 -0.18043805385E+02  0.48753829876E+02  0.54837104510E+02  0.00000000000E+00 0. -1.
         -5    1    5    5    0  502 -0.44061621403E+01 -0.58955065170E+02  0.20931894005E+02  0.62891558739E+02  0.47000000000E+01 0.  1.
         13    1    6    6    0    0 -0.11283593974E+02  0.68479657178E+02 -0.47420737591E+02  0.84056583882E+02  0.00000000000E+00 0. -1.
        -14    1    6    6    0    0  0.23798451085E+02 -0.13849983038E+02 -0.28921998859E+01  0.27686695801E+02  0.00000000000E+00 0.  1.
<mgrwt>
<rscale>  2 0.17313169E+03</rscale>
<asrwt>0</asrwt>
<pdfrwt beam="1">  1       21 0.21493925E-01 0.17346167E+03</pdfrwt>
<pdfrwt beam="2">  1       21 0.32944648E-01 0.17346167E+03</pdfrwt>
<totfact> 0.17991945E+05</totfact>
</mgrwt>
</event>
<event>
12    1  0.1026879E-001  0.1902239E+03  0.7546771E-02  0.1158291E+00
         21   -1    0    0  501  502  0.00000000000E+00  0.00000000000E+00  0.14161980984E+03  0.14161980984E+03  0.00000000000E+00 0. -1.
         21   -1    0    0  502  503 -0.00000000000E+00 -0.00000000000E+00 -0.27370441063E+03  0.27370441063E+03  0.00000000000E+00 0. -1.
         -6    2    1    2    0  503 -0.76101089526E+02  0.21088341684E+02 -0.12204397724E+02  0.19047670725E+03  0.17290556584E+03 0.  0.
        -24    2    3    3    0    0  0.27087355079E+02 -0.48446721805E+00 -0.48355574046E+01  0.84695655112E+02  0.80100011647E+02 0.  0.
          6    2    1    2  501    0  0.76101089526E+02 -0.21088341684E+02 -0.11988020306E+03  0.22484751322E+03  0.17305792999E+03 0.  0.
         24    2    5    5    0    0  0.10349899365E+03  0.20936156295E+02 -0.54070106498E+02  0.14196348345E+03  0.77972366197E+02 0.  0.
          5    1    5    5  501    0 -0.27397904121E+02 -0.42024497979E+02 -0.65810096561E+02  0.82884029765E+02  0.47000000000E+01 0. -1.
        -13    1    6    6    0    0  0.10381459455E+03 -0.22006123846E+01 -0.28923410076E+02  0.10779089195E+03  0.00000000000E+00 0.  1.
         14    1    6    6    0    0 -0.31560090677E+00  0.23136768679E+02 -0.25146696422E+02  0.34172591499E+02  0.00000000000E+00 0. -1.
         -5    1    3    3    0  503 -0.10318844460E+03  0.21572808902E+02 -0.73688403199E+01  0.10578105214E+03  0.47000000000E+01 0.  1.
         11    1    4    4    0    0  0.23003042250E+02  0.56567192523E+01  0.36057636102E+02  0.43142688218E+02  0.00000000000E+00 0. -1.
        -12    1    4    4    0    0  0.40843128288E+01 -0.61411864704E+01 -0.40893193506E+02  0.41552966894E+02  0.00000000000E+00 0.  1.
<mgrwt>
<rscale>  2 0.19018926E+03</rscale>
<asrwt>0</asrwt>
<pdfrwt beam="1">  1       21 0.21787663E-01 0.19022392E+03</pdfrwt>
<pdfrwt beam="2">  1       21 0.42108371E-01 0.19022392E+03</pdfrwt>
<totfact> 0.10680198E+05</totfact>
</mgrwt>
</event>
<event>
12    1  0.1026879E-001  0.1869191E+03  0.7546771E-02  0.1163187E+00
         21   -1    0    0  501  502  0.00000000000E+00  0.00000000000E+00  0.29517049198E+03  0.29517049198E+03  0.00000000000E+00 0. -1.
         21   -1    0    0  502  503 -0.00000000000E+00 -0.00000000000E+00 -0.40411211832E+03  0.40411211832E+03  0.00000000000E+00 0. -1.
         -6    2    1    2    0  503 -0.43032647923E+02  0.26132164002E+02 -0.35072737287E+03  0.39366992355E+03  0.17155646256E+03 0.  0.
        -24    2    3    3    0    0  0.39584373890E+02  0.28696813587E+02 -0.21024047536E+03  0.23060304128E+03  0.81155871030E+02 0.  0.
          6    2    1    2  501    0  0.43032647923E+02 -0.26132164002E+02  0.24178574653E+03  0.30561268675E+03  0.18001130047E+03 0.  0.
         24    2    5    5    0    0  0.31697390229E+02  0.21822678357E+02  0.36992937084E+02  0.94922535647E+02  0.78491123967E+02 0.  0.
          5    1    5    5  501    0  0.11335257694E+02 -0.47954842358E+02  0.20479280945E+03  0.21069015111E+03  0.47000000000E+01 0. -1.
        -11    1    6    6    0    0 -0.19397673772E+02  0.19577929078E+02 -0.58858863485E+01  0.28181708835E+02  0.00000000000E+00 0.  1.
         12    1    6    6    0    0  0.51095064001E+02  0.22447492789E+01  0.42878823433E+02  0.66740826812E+02  0.00000000000E+00 0. -1.
         -5    1    3    3    0  503 -0.82617021813E+02 -0.25646495858E+01 -0.14048689751E+03  0.16306688227E+03  0.47000000000E+01 0.  1.
         13    1    4    4    0    0  0.33469518927E+02  0.96792283369E+00 -0.19599557022E+03  0.19883513049E+03  0.00000000000E+00 0. -1.
        -14    1    4    4    0    0  0.61148549628E+01  0.27728890754E+02 -0.14244905143E+02  0.31767910793E+02  0.00000000000E+00 0.  1.
<mgrwt>
<rscale>  2 0.18485318E+03</rscale>
<asrwt>0</asrwt>
<pdfrwt beam="1">  1       21 0.45410845E-01 0.18691915E+03</pdfrwt>
<pdfrwt beam="2">  1       21 0.62171095E-01 0.18691915E+03</pdfrwt>
<totfact> 0.11206558E+04</totfact>
</mgrwt>
</event>
<event>
12    1  0.1026879E-001  0.4137888E+03  0.7546771E-02  0.1039136E+00
         21   -1    0    0  501  502  0.00000000000E+00  0.00000000000E+00  0.24991537826E+03  0.24991537826E+03  0.00000000000E+00 0.  1.
         21   -1    0    0  502  503 -0.00000000000E+00 -0.00000000000E+00 -0.70279931766E+03  0.70279931766E+03  0.00000000000E+00 0. -1.
         -6    2    1    2    0  503  0.13561683529E+03 -0.35028685868E+03 -0.30313422144E+03  0.51266229746E+03  0.17274103637E+03 0.  0.
        -24    2    3    3    0    0  0.15188259896E+03 -0.22043871707E+03 -0.17803997924E+03  0.33156626111E+03  0.81095002623E+02 0.  0.
          6    2    1    2  501    0 -0.13561683529E+03  0.35028685868E+03 -0.14974971796E+03  0.44005239847E+03  0.17357513068E+03 0.  0.
         24    2    5    5    0    0 -0.71063577119E+02  0.83612430420E+02 -0.24073430245E+02  0.13822630098E+03  0.80535145908E+02 0.  0.
          5    1    5    5  501    0 -0.64553258168E+02  0.26667442826E+03 -0.12567628772E+03  0.30182609748E+03  0.47000000000E+01 0. -1.
        -13    1    6    6    0    0 -0.25719322003E+00 -0.12747926856E+02  0.71780146919E+01  0.14632145516E+02  0.00000000000E+00 0.  1.
         14    1    6    6    0    0 -0.70806383899E+02  0.96360357277E+02 -0.31251444937E+02  0.12359415547E+03  0.00000000000E+00 0. -1.
         -5    1    3    3    0  503 -0.16265763669E+02 -0.12984814161E+03 -0.12509424221E+03  0.18109603635E+03  0.47000000000E+01 0.  1.
         11    1    4    4    0    0  0.13545679030E+03 -0.16556766708E+03 -0.17098623336E+03  0.27385668956E+03  0.00000000000E+00 0. -1.
        -12    1    4    4    0    0  0.16425808652E+02 -0.54871049992E+02 -0.70537458803E+01  0.57709571546E+02  0.00000000000E+00 0.  1.
<mgrwt>
<rscale>  2 0.41370143E+03</rscale>
<asrwt>0</asrwt>
<pdfrwt beam="1">  1       21 0.38448521E-01 0.41378876E+03</pdfrwt>
<pdfrwt beam="2">  1       21 0.10812297E+00 0.41378876E+03</pdfrwt>
<totfact> 0.39285486E+03</totfact>
</mgrwt>
</event>
<event>
12    1  0.1026879E-001  0.1879838E+03  0.7546771E-02  0.1160584E+00
         21   -1    0    0  501  502  0.00000000000E+00  0.00000000000E+00  0.61258357562E+03  0.61258357562E+03  0.00000000000E+00 0.  1.
         21   -1    0    0  502  503 -0.00000000000E+00 -0.00000000000E+00 -0.40898968524E+03  0.40898968524E+03  0.00000000000E+00 0.  1.
         -6    2    1    2    0  503 -0.97314001676E+00  0.69890168624E+02 -0.37181178439E+03  0.41663161938E+03  0.17450593279E+03 0.  0.
        -24    2    3    3    0    0 -0.42448183600E+02  0.82747649284E+02 -0.34303011361E+03  0.36432513200E+03  0.80088208917E+02 0.  0.
          6    2    1    2  501    0  0.97314001676E+00 -0.69890168624E+02  0.57540567478E+03  0.60494164149E+03  0.17313900880E+03 0.  0.
         24    2    5    5    0    0  0.20406957214E+02 -0.76353721115E+02  0.57276104876E+03  0.58376300110E+03  0.80484084484E+02 0.  0.
          5    1    5    5  501    0 -0.19433817197E+02  0.64635524907E+01  0.26446260186E+01  0.21178640382E+02  0.47000000000E+01 0. -1.
        -13    1    6    6    0    0  0.41454681277E+02 -0.66122928212E+02  0.52279408196E+03  0.52858715872E+03  0.00000000000E+00 0.  1.
         14    1    6    6    0    0 -0.21047724063E+02 -0.10230792902E+02  0.49966966801E+02  0.55175842386E+02  0.00000000000E+00 0. -1.
         -5    1    3    3    0  503  0.41475043583E+02 -0.12857480660E+02 -0.28781670782E+02  0.52306487381E+02  0.47000000000E+01 0.  1.
         13    1    4    4    0    0  0.19969970865E+02  0.30409610938E+01 -0.79270260579E+02  0.81803553670E+02  0.00000000000E+00 0. -1.
        -14    1    4    4    0    0 -0.62418154465E+02  0.79706688190E+02 -0.26375985303E+03  0.28252157833E+03  0.00000000000E+00 0.  1.
<mgrwt>
<rscale>  2 0.18766592E+03</rscale>
<asrwt>0</asrwt>
<pdfrwt beam="1">  1       21 0.94243627E-01 0.18798378E+03</pdfrwt>
<pdfrwt beam="2">  1       21 0.62921490E-01 0.18798378E+03</pdfrwt>
<totfact> 0.22167773E+03</totfact>
</mgrwt>
</event>
<event>
12    1  0.1026879E-001  0.2524269E+03  0.7546771E-02  0.1112040E+00
         21   -1    0    0  501  502  0.00000000000E+00  0.00000000000E+00  0.86753237331E+02  0.86753237331E+02  0.00000000000E+00 0. -1.
         21   -1    0    0  502  503 -0.00000000000E+00 -0.00000000000E+00 -0.73404473432E+03  0.73404473432E+03  0.00000000000E+00 0.  1.
         -6    2    1    2    0  503 -0.18235945035E+03  0.93733783901E+01 -0.35633633109E+03  0.43668629558E+03  0.17428858407E+03 0.  0.
        -24    2    3    3    0    0 -0.16909301861E+03  0.39252173617E+02 -0.19382320271E+03  0.27085099322E+03  0.75230609071E+02 0.  0.
          6    2    1    2  501    0  0.18235945035E+03 -0.93733783901E+01 -0.29095516590E+03  0.38411167608E+03  0.17188380312E+03 0.  0.
         24    2    5    5    0    0  0.18633064872E+02  0.65910140330E+01 -0.68038513629E+02  0.10702844852E+03  0.80219803567E+02 0.  0.
          5    1    5    5  501    0  0.16372638548E+03 -0.15964392423E+02 -0.22291665227E+03  0.27708322755E+03  0.47000000000E+01 0. -1.
        -13    1    6    6    0    0  0.34429087771E+02 -0.27253300111E+02 -0.46313834136E+02  0.63820652488E+02  0.00000000000E+00 0.  1.
         14    1    6    6    0    0 -0.15796022898E+02  0.33844314144E+02 -0.21724679493E+02  0.43207796037E+02  0.00000000000E+00 0. -1.
         -5    1    3    3    0  503 -0.13266431748E+02 -0.29878795226E+02 -0.16251312837E+03  0.16583530236E+03  0.47000000000E+01 0.  1.
         13    1    4    4    0    0 -0.15484751968E+03  0.58241290924E+02 -0.16843492250E+03  0.23609346759E+03  0.00000000000E+00 0. -1.
        -14    1    4    4    0    0 -0.14245498931E+02 -0.18989117308E+02 -0.25388280210E+02  0.34757525631E+02  0.00000000000E+00 0.  1.
<mgrwt>
<rscale>  2 0.25201229E+03</rscale>
<asrwt>0</asrwt>
<pdfrwt beam="1">  1       21 0.13346652E-01 0.25242690E+03</pdfrwt>
<pdfrwt beam="2">  1       21 0.11292996E+00 0.25242690E+03</pdfrwt>
<totfact> 0.28773983E+04</totfact>
</mgrwt>
</event>
<event>
12    1  0.1026879E-001  0.3370710E+03  0.7546771E-02  0.1068070E+00
         21   -1    0    0  503  502  0.00000000000E+00  0.00000000000E+00  0.62733171457E+03  0.62733171457E+03  0.00000000000E+00 0. -1.
         21   -1    0    0  501  503 -0.00000000000E+00 -0.00000000000E+00 -0.38808858248E+03  0.38808858248E+03  0.00000000000E+00 0. -1.
          6    2    1    2  501    0  0.74378929210E+02  0.27929468959E+03  0.49047117436E+03  0.59502475819E+03  0.17307438068E+03 0.  0.
         24    2    3    3    0    0 -0.49597851336E+01  0.12088917258E+03  0.12377900752E+03  0.18775068016E+03  0.72734336358E+02 0.  0.
         -6    2    1    2    0  502 -0.74378929210E+02 -0.27929468959E+03 -0.25122804226E+03  0.42039553886E+03  0.17343336223E+03 0.  0.
        -24    2    5    5    0    0 -0.54466922321E+02 -0.54455468329E+02 -0.86371077006E+02  0.14084398292E+03  0.80280887668E+02 0.  0.
          5    1    3    3  501    0  0.79338714343E+02  0.15840551701E+03  0.36669216684E+03  0.40727407803E+03  0.47000000000E+01 0. -1.
        -11    1    4    4    0    0  0.12674839421E+02  0.25616349736E+02 -0.23787679048E+01  0.28679390943E+02  0.00000000000E+00 0.  1.
         12    1    4    4    0    0 -0.17634624554E+02  0.95272822840E+02  0.12615777542E+03  0.15907128922E+03  0.00000000000E+00 0. -1.
         -5    1    5    5    0  502 -0.19912006889E+02 -0.22483922126E+03 -0.16485696526E+03  0.27955155594E+03  0.47000000000E+01 0.  1.
         11    1    6    6    0    0 -0.38816986800E+02 -0.51849983386E+02 -0.10052379232E+03  0.11958349411E+03  0.00000000000E+00 0. -1.
        -12    1    6    6    0    0 -0.15649935521E+02 -0.26054849430E+01  0.14152715318E+02  0.21260488811E+02  0.00000000000E+00 0.  1.
<mgrwt>
<rscale>  2 0.33702488E+03</rscale>
<asrwt>0</asrwt>
<pdfrwt beam="1">  1       21 0.96512572E-01 0.33707103E+03</pdfrwt>
<pdfrwt beam="2">  1       21 0.59705935E-01 0.33707103E+03</pdfrwt>
<totfact> 0.21190636E+03</totfact>
</mgrwt>
</event>
<event>
12    1  0.1026879E-001  0.1937887E+03  0.7546771E-02  0.1155534E+00
         21   -1    0    0  501  502  0.00000000000E+00  0.00000000000E+00  0.32624615588E+03  0.32624615588E+03  0.00000000000E+00 0. -1.
         21   -1    0    0  502  503 -0.00000000000E+00 -0.00000000000E+00 -0.23266746942E+03  0.23266746942E+03  0.00000000000E+00 0.  1.
         -6    2    1    2    0  503  0.65806984823E+02 -0.47966856028E+02 -0.15298000493E+03  0.24531314352E+03  0.17362107576E+03 0.  0.
        -24    2    3    3    0    0  0.76157886635E+02 -0.89183563645E+02 -0.87376962115E+02  0.16700728562E+03  0.80640983514E+02 0.  0.
          6    2    1    2  501    0 -0.65806984823E+02  0.47966856028E+02  0.24655869138E+03  0.31360048178E+03  0.17584850112E+03 0.  0.
         24    2    5    5    0    0 -0.58809653306E+02  0.66535754310E+02  0.76273388422E+02  0.14209846711E+03  0.80552856248E+02 0.  0.
          5    1    5    5  501    0 -0.69973315163E+01 -0.18568898282E+02  0.17028530296E+03  0.17150201467E+03  0.47000000000E+01 0. -1.
        -13    1    6    6    0    0 -0.68568481457E+02  0.26918353156E+02  0.68443770594E+02  0.10055239489E+03  0.00000000000E+00 0.  1.
         14    1    6    6    0    0  0.97588281508E+01  0.39617401154E+02  0.78296178278E+01  0.41546072214E+02  0.00000000000E+00 0. -1.
         -5    1    3    3    0  503 -0.10350901813E+02  0.41216707617E+02 -0.65603042811E+02  0.78305857898E+02  0.47000000000E+01 0.  1.
         13    1    4    4    0    0  0.61422596470E+00 -0.61926540623E+02 -0.40925472159E+02  0.74230505714E+02  0.00000000000E+00 0. -1.
        -14    1    4    4    0    0  0.75543660671E+02 -0.27257023023E+02 -0.46451489956E+02  0.92776779911E+02  0.00000000000E+00 0.  1.
<mgrwt>
<rscale>  2 0.19328202E+03</rscale>
<asrwt>0</asrwt>
<pdfrwt beam="1">  1       21 0.50191716E-01 0.19378874E+03</pdfrwt>
<pdfrwt beam="2">  1       21 0.35794995E-01 0.19378874E+03</pdfrwt>
<totfact> 0.28432339E+04</totfact>
</mgrwt>
</event>
<event>
12    1  0.1026879E-001  0.1790820E+03  0.7546771E-02  0.1168729E+00
         21   -1    0    0  501  502  0.00000000000E+00  0.00000000000E+00  0.25501531480E+02  0.25501531480E+02  0.00000000000E+00 0. -1.
         21   -1    0    0  502  503 -0.00000000000E+00 -0.00000000000E+00 -0.13657692404E+04  0.13657692404E+04  0.00000000000E+00 0. -1.
         -6    2    1    2    0  503 -0.15761530717E+02  0.41095541288E+02 -0.86657361143E+03  0.88485547643E+03  0.17344198100E+03 0.  0.
        -24    2    3    3    0    0 -0.37010354001E+02  0.19826734867E+02 -0.19105924313E+03  0.20865607803E+03  0.72600680395E+02 0.  0.
          6    2    1    2  501    0  0.15761530717E+02 -0.41095541288E+02 -0.47369409754E+03  0.50641529550E+03  0.17358883636E+03 0.  0.
         24    2    5    5    0    0  0.26457639056E+02 -0.30642822951E+02 -0.48138679040E+03  0.48895294808E+03  0.75516582331E+02 0.  0.
          5    1    5    5  501    0 -0.10696108339E+02 -0.10452718338E+02  0.76926928519E+01  0.17462347424E+02  0.47000000000E+01 0. -1.
        -11    1    6    6    0    0 -0.18546858851E+02  0.74624839832E+01 -0.55258023727E+02  0.58763286385E+02  0.00000000000E+00 0.  1.
         12    1    6    6    0    0  0.45004497907E+02 -0.38105306934E+02 -0.42612876667E+03  0.43018966170E+03  0.00000000000E+00 0. -1.
         -5    1    3    3    0  503  0.21248823285E+02  0.21268806421E+02 -0.67551436830E+03  0.67619939840E+03  0.47000000000E+01 0.  1.
         13    1    4    4    0    0 -0.16666445481E+02  0.34488511892E+02 -0.17438368056E+03  0.17854102023E+03  0.00000000000E+00 0. -1.
        -14    1    4    4    0    0 -0.20343908521E+02 -0.14661777025E+02 -0.16675562570E+02  0.30115057802E+02  0.00000000000E+00 0.  1.
<mgrwt>
<rscale>  2 0.17904638E+03</rscale>
<asrwt>0</asrwt>
<pdfrwt beam="1">  1       21 0.39233119E-02 0.17908197E+03</pdfrwt>
<pdfrwt beam="2">  1       21 0.21011838E+00 0.17908197E+03</pdfrwt>
<totfact> 0.47331948E+04</totfact>
</mgrwt>
</event>
<event>
12    1  0.1026879E-001  0.1796729E+03  0.7546771E-02  0.1168313E+00
         21   -1    0    0  501  502  0.00000000000E+00  0.00000000000E+00  0.72474656555E+02  0.72474656555E+02  0.00000000000E+00 0.  1.
         21   -1    0    0  502  503 -0.00000000000E+00 -0.00000000000E+00 -0.49184119403E+03  0.49184119403E+03  0.00000000000E+00 0.  1.
         -6    2    1    2    0  503  0.37612792588E+02 -0.15031133715E+02 -0.29858804146E+03  0.34847837038E+03  0.17504770484E+03 0.  0.
        -24    2    3    3    0    0  0.56191217009E+01  0.36775968084E+02 -0.26535272869E+03  0.27894962245E+03  0.77567872760E+02 0.  0.
          6    2    1    2  501    0 -0.37612792588E+02  0.15031133715E+02 -0.12077849602E+03  0.21583748021E+03  0.17423465676E+03 0.  0.
         24    2    5    5    0    0 -0.86484353575E+02 -0.15719628611E+02 -0.67664700396E+02  0.13724228861E+03  0.80810172423E+02 0.  0.
          5    1    5    5  501    0  0.48871560987E+02  0.30750762326E+02 -0.53113795620E+02  0.78595191597E+02  0.47000000000E+01 0. -1.
        -13    1    6    6    0    0 -0.95675248976E+02 -0.14522667294E+02 -0.34388981950E+02  0.10269986958E+03  0.00000000000E+00 0.  1.
         14    1    6    6    0    0  0.91908954002E+01 -0.11969613170E+01 -0.33275718446E+02  0.34542419035E+02  0.00000000000E+00 0. -1.
         -5    1    3    3    0  503  0.31993670887E+02 -0.51807101799E+02 -0.33235312774E+02  0.69528747931E+02  0.47000000000E+01 0.  1.
         11    1    4    4    0    0 -0.34875965458E+02  0.19471261770E+02 -0.96299954529E+02  0.10425518809E+03  0.00000000000E+00 0. -1.
        -12    1    4    4    0    0  0.40495087159E+02  0.17304706315E+02 -0.16905277416E+03  0.17469443436E+03  0.00000000000E+00 0.  1.
<mgrwt>
<rscale>  2 0.17947458E+03</rscale>
<asrwt>0</asrwt>
<pdfrwt beam="1">  1       21 0.11149947E-01 0.17967291E+03</pdfrwt>
<pdfrwt beam="2">  1       21 0.75667880E-01 0.17967291E+03</pdfrwt>
<totfact> 0.10480620E+05</totfact>
</mgrwt>
</event>
<event>
12    1  0.1026879E-001  0.5370456E+03  0.7546771E-02  0.1004627E+00
         21   -1    0    0  501  502  0.00000000000E+00  0.00000000000E+00  0.14261082797E+04  0.14261082797E+04  0.00000000000E+00 0. -1.
         21   -1    0    0  502  503 -0.00000000000E+00 -0.00000000000E+00 -0.21707895757E+03  0.21707895757E+03  0.00000000000E+00 0.  1.
         -6    2    1    2    0  503  0.29301232471E+03 -0.41399456137E+03  0.38490153323E+03  0.65951830274E+03  0.17195197613E+03 0.  0.
        -24    2    3    3    0    0  0.22879710394E+03 -0.22674178391E+03  0.19202574389E+03  0.38309406836E+03  0.78276609213E+02 0.  0.
          6    2    1    2  501    0 -0.29301232471E+03  0.41399456137E+03  0.82412778886E+03  0.98366893448E+03  0.17655095871E+03 0.  0.
         24    2    5    5    0    0 -0.19415832916E+03  0.16380610382E+03  0.37121360324E+03  0.45686752384E+03  0.79990616158E+02 0.  0.
          5    1    5    5  501    0 -0.98853995558E+02  0.25018845755E+03  0.45291418561E+03  0.52680141064E+03  0.47000000000E+01 0. -1.
        -13    1    6    6    0    0 -0.42335391924E+02  0.60327842423E+02  0.16478218343E+03  0.18051288585E+03  0.00000000000E+00 0.  1.
         14    1    6    6    0    0 -0.15182293723E+03  0.10347826139E+03  0.20643141981E+03  0.27635463799E+03  0.00000000000E+00 0. -1.
         -5    1    3    3    0  503  0.64215220776E+02 -0.18725277745E+03  0.19287578934E+03  0.27642423439E+03  0.47000000000E+01 0.  1.
         13    1    4    4    0    0  0.28509847593E+02 -0.55630084091E+02  0.11021344013E+02  0.63474307319E+02  0.00000000000E+00 0. -1.
        -14    1    4    4    0    0  0.20028725635E+03 -0.17111169982E+03  0.18100439987E+03  0.31961976104E+03  0.00000000000E+00 0.  1.
<mgrwt>
<rscale>  2 0.53667162E+03</rscale>
<asrwt>0</asrwt>
<pdfrwt beam="1">  1       21 0.21940127E+00 0.53704558E+03</pdfrwt>
<pdfrwt beam="2">  1       21 0.33396764E-01 0.53704558E+03</pdfrwt>
<totfact> 0.69489090E+02</totfact>
</mgrwt>
</event>
<event>
12    1  0.1026879E-001  0.2532910E+03  0.7546771E-02  0.1111374E+00
         21   -1    0    0  501  502  0.00000000000E+00  0.00000000000E+00  0.20574278523E+03  0.20574278523E+03  0.00000000000E+00 0. -1.
         21   -1    0    0  502  503 -0.00000000000E+00 -0.00000000000E+00 -0.31278398327E+03  0.31278398327E+03  0.00000000000E+00 0. -1.
         -6    2    1    2    0  503  0.17728622265E+03 -0.47413855487E+02 -0.32712308570E+02  0.25455498622E+03  0.17334839902E+03 0.  0.
        -24    2    3    3    0    0  0.16338312762E+03  0.16312485000E+02 -0.25743769147E+01  0.18254993468E+03  0.79735234851E+02 0.  0.
          6    2    1    2  501    0 -0.17728622265E+03  0.47413855487E+02 -0.74328889469E+02  0.26397178229E+03  0.17457903540E+03 0.  0.
         24    2    5    5    0    0 -0.12330952190E+03  0.53669630270E+02  0.15582148466E+02  0.15881141103E+03  0.83021644866E+02 0.  0.
          5    1    5    5  501    0 -0.53976700746E+02 -0.62557747827E+01 -0.89911037935E+02  0.10516037126E+03  0.47000000000E+01 0. -1.
        -13    1    6    6    0    0 -0.10044010070E+03  0.97628461736E+00  0.13326166736E+02  0.10132499041E+03  0.00000000000E+00 0.  1.
         14    1    6    6    0    0 -0.22869421197E+02  0.52693345653E+02  0.22559817293E+01  0.57486420619E+02  0.00000000000E+00 0. -1.
         -5    1    3    3    0  503  0.13903095031E+02 -0.63726340488E+02 -0.30137931656E+02  0.72005051544E+02  0.47000000000E+01 0.  1.
         13    1    4    4    0    0 -0.26806307006E+01  0.22056114071E+01  0.14598598467E+02  0.15005651596E+02  0.00000000000E+00 0. -1.
        -14    1    4    4    0    0  0.16606375832E+03  0.14106873593E+02 -0.17172975381E+02  0.16754428308E+03  0.00000000000E+00 0.  1.
<mgrwt>
<rscale>  2 0.25307905E+03</rscale>
<asrwt>0</asrwt>
<pdfrwt beam="1">  1       21 0.31652736E-01 0.25329098E+03</pdfrwt>
<pdfrwt beam="2">  1       21 0.48120613E-01 0.25329098E+03</pdfrwt>
<totfact> 0.38483018E+04</totfact>
</mgrwt>
</event>
<event>
12    1  0.1026879E-001  0.2045143E+03  0.7546771E-02  0.1146038E+00
         21   -1    0    0  501  502  0.00000000000E+00  0.00000000000E+00  0.15774465567E+03  0.15774465567E+03  0.00000000000E+00 0.  1.
         21   -1    0    0  502  503 -0.00000000000E+00 -0.00000000000E+00 -0.36943642565E+03  0.36943642565E+03  0.00000000000E+00 0.  1.
         -6    2    1    2    0  503 -0.63361604335E+02  0.90601472099E+02 -0.24606802470E+03  0.31979775959E+03  0.17174927833E+03 0.  0.
        -24    2    3    3    0    0  0.12779077294E+02  0.92860942298E+02 -0.15490845005E+03  0.20090845538E+03  0.87069628028E+02 0.  0.
          6    2    1    2  501    0  0.63361604335E+02 -0.90601472099E+02  0.34376254724E+02  0.20738332173E+03  0.17205462967E+03 0.  0.
         24    2    5    5    0    0 -0.23189635024E+02 -0.74877145576E+02  0.53084857650E+02  0.11732515551E+03  0.69302553354E+02 0.  0.
          5    1    5    5  501    0  0.86551239360E+02 -0.15724326523E+02 -0.18708602925E+02  0.90058166219E+02  0.47000000000E+01 0. -1.
        -13    1    6    6    0    0  0.13173887230E+02 -0.61523134860E+02  0.46011072274E+02  0.77946559895E+02  0.00000000000E+00 0.  1.
         14    1    6    6    0    0 -0.36363522255E+02 -0.13354010717E+02  0.70737853756E+01  0.39378595614E+02  0.00000000000E+00 0. -1.
         -5    1    3    3    0  503 -0.76140681630E+02 -0.22594701993E+01 -0.91159574655E+02  0.11888930421E+03  0.47000000000E+01 0.  1.
         11    1    4    4    0    0 -0.32022009137E+02  0.69745129808E+02 -0.82475810463E+02  0.11265900547E+03  0.00000000000E+00 0. -1.
        -12    1    4    4    0    0  0.44801086431E+02  0.23115812490E+02 -0.72432639584E+02  0.88249449911E+02  0.00000000000E+00 0.  1.
<mgrwt>
<rscale>  2 0.20445010E+03</rscale>
<asrwt>0</asrwt>
<pdfrwt beam="1">  1       21 0.24268409E-01 0.20451434E+03</pdfrwt>
<pdfrwt beam="2">  1       21 0.56836372E-01 0.20451434E+03</pdfrwt>
<totfact> 0.46357919E+04</totfact>
</mgrwt>
</event>
<event>
12    1  0.1026879E-001  0.2494348E+03  0.7546771E-02  0.1113707E+00
         21   -1    0    0  501  502  0.00000000000E+00  0.00000000000E+00  0.92766116133E+03  0.92766116133E+03  0.00000000000E+00 0.  1.
         21   -1    0    0  502  503 -0.00000000000E+00 -0.00000000000E+00 -0.75701536250E+02  0.75701536250E+02  0.00000000000E+00 0.  1.
         -6    2    1    2    0  503  0.16683646153E+03  0.67271051946E+02  0.25604227436E+03  0.35745677975E+03  0.17279439749E+03 0.  0.
        -24    2    3    3    0    0  0.14675373794E+03  0.18431042674E+02  0.11163587312E+03  0.20362583029E+03  0.84407035608E+02 0.  0.
          6    2    1    2  501    0 -0.16683646153E+03 -0.67271051946E+02  0.59591735072E+03  0.64590591783E+03  0.17238667720E+03 0.  0.
         24    2    5    5    0    0 -0.19206372089E+03 -0.74435676643E+02  0.55156099671E+03  0.59416306709E+03  0.79881627190E+02 0.  0.
          5    1    5    5  501    0  0.25227259360E+02  0.71646246969E+01  0.44356354006E+02  0.51742850739E+02  0.47000000000E+01 0. -1.
        -13    1    6    6    0    0 -0.44590461319E+02 -0.35420261401E+01  0.21906689723E+03  0.22358703149E+03  0.00000000000E+00 0.  1.
         14    1    6    6    0    0 -0.14747325957E+03 -0.70893650503E+02  0.33249409949E+03  0.37057603560E+03  0.00000000000E+00 0. -1.
         -5    1    3    3    0  503  0.20082723584E+02  0.48840009272E+02  0.14440640124E+03  0.15383094945E+03  0.47000000000E+01 0.  1.
         13    1    4    4    0    0 -0.39374846089E+00 -0.50782487252E+01 -0.10031897798E+02  0.11250894249E+02  0.00000000000E+00 0. -1.
        -14    1    4    4    0    0  0.14714748640E+03  0.23509291399E+02  0.12166777092E+03  0.19237493604E+03  0.00000000000E+00 0.  1.
<mgrwt>
<rscale>  2 0.24936417E+03</rscale>
<asrwt>0</asrwt>
<pdfrwt beam="1">  1       21 0.14271709E+00 0.24943477E+03</pdfrwt>
<pdfrwt beam="2">  1       21 0.11646391E-01 0.24943477E+03</pdfrwt>
<totfact> 0.20367501E+04</totfact>
</mgrwt>
</event>
<event>
12    1  0.1026879E-001  0.2274590E+03  0.7546771E-02  0.1128562E+00
         21   -1    0    0  503  502  0.00000000000E+00  0.00000000000E+00  0.71881184834E+03  0.71881184834E+03  0.00000000000E+00 0.  1.
         21   -1    0    0  501  503 -0.00000000000E+00 -0.00000000000E+00 -0.11404652457E+03  0.11404652457E+03  0.00000000000E+00 0.  1.
          6    2    1    2  501    0 -0.62594416874E+02  0.13283663172E+03  0.48536054855E+02  0.23191860968E+03  0.17282031462E+03 0.  0.
         24    2    3    3    0    0 -0.92306326065E+02  0.81681955856E+02  0.77266759535E+02  0.16598575139E+03  0.79929455099E+02 0.  0.
         -6    2    1    2    0  502  0.62594416874E+02 -0.13283663172E+03  0.55622926892E+03  0.60093976323E+03  0.17370655625E+03 0.  0.
        -24    2    5    5    0    0  0.38467513583E+02 -0.10018545928E+03  0.54091018464E+03  0.55729379129E+03  0.80471523562E+02 0.  0.
          5    1    3    3  501    0  0.29711909191E+02  0.51154675862E+02 -0.28730704680E+02  0.65932858285E+02  0.47000000000E+01 0. -1.
        -13    1    4    4    0    0 -0.34407319028E+01  0.39590505763E+02 -0.18437939420E+01  0.39782488091E+02  0.00000000000E+00 0.  1.
         14    1    4    4    0    0 -0.88865594162E+02  0.42091450093E+02  0.79110553477E+02  0.12620326330E+03  0.00000000000E+00 0. -1.
         -5    1    5    5    0  502  0.24126903291E+02 -0.32651172438E+02  0.15319084272E+02  0.43645971944E+02  0.47000000000E+01 0.  1.
         11    1    6    6    0    0  0.44032999112E+02 -0.11880753046E+02  0.19115986587E+03  0.19652519336E+03  0.00000000000E+00 0. -1.
        -12    1    6    6    0    0 -0.55654855293E+01 -0.88304706233E+02  0.34975031877E+03  0.36076859793E+03  0.00000000000E+00 0.  1.
<mgrwt>
<rscale>  2 0.22728980E+03</rscale>
<asrwt>0</asrwt>
<pdfrwt beam="1">  1       21 0.11058643E+00 0.22745901E+03</pdfrwt>
<pdfrwt beam="2">  1       21 0.17545620E-01 0.22745901E+03</pdfrwt>
<totfact> 0.18578637E+04</totfact>
</mgrwt>
</event>
<event>
12    1  0.1026879E-001  0.1879406E+03  0.7546771E-02  0.1161710E+00
         21   -1    0    0  503  502  0.00000000000E+00  0.00000000000E+00  0.11197184201E+03  0.11197184201E+03  0.00000000000E+00 0.  1.
         21   -1    0    0  501  503 -0.00000000000E+00 -0.00000000000E+00 -0.34030287348E+03  0.34030287348E+03  0.00000000000E+00 0.  1.
          6    2    1    2  501    0  0.22548232180E+02  0.49592441825E+02 -0.18474137328E+03  0.25934536543E+03  0.17367443827E+03 0.  0.
         24    2    3    3    0    0 -0.47383476082E+02  0.59152124692E+02 -0.10303187451E+03  0.15126963482E+03  0.80763652675E+02 0.  0.
         -6    2    1    2    0  502 -0.22548232180E+02 -0.49592441825E+02 -0.43589658189E+02  0.19292935005E+03  0.17987173972E+03 0.  0.
        -24    2    5    5    0    0 -0.41620458544E+02  0.14472708267E+02 -0.76835438741E+02  0.11812650786E+03  0.78156671881E+02 0.  0.
          5    1    3    3  501    0  0.69931708262E+02 -0.95596828664E+01 -0.81709498774E+02  0.10807573061E+03  0.47000000000E+01 0. -1.
        -13    1    4    4    0    0 -0.21064835773E+02  0.64966389912E+02 -0.32246068253E+02  0.75525942841E+02  0.00000000000E+00 0.  1.
         14    1    4    4    0    0 -0.26318640309E+02 -0.58142652199E+01 -0.70785806253E+02  0.75743691980E+02  0.00000000000E+00 0. -1.
         -5    1    5    5    0  502  0.19072226364E+02 -0.64065150093E+02  0.33245780552E+02  0.74802842188E+02  0.47000000000E+01 0.  1.
         11    1    6    6    0    0 -0.14971583191E+02  0.42793159115E+02 -0.20703039710E+02  0.49839930011E+02  0.00000000000E+00 0. -1.
        -12    1    6    6    0    0 -0.26648875354E+02 -0.28320450848E+02 -0.56132399031E+02  0.68286577852E+02  0.00000000000E+00 0.  1.
<mgrwt>
<rscale>  2 0.18644220E+03</rscale>
<asrwt>0</asrwt>
<pdfrwt beam="1">  1       21 0.17226437E-01 0.18794062E+03</pdfrwt>
<pdfrwt beam="2">  1       21 0.52354288E-01 0.18794062E+03</pdfrwt>
<totfact> 0.10555098E+05</totfact>
</mgrwt>
</event>
<event>
12    1  0.1026879E-001  0.2180613E+03  0.7546771E-02  0.1135479E+00
         21   -1    0    0  501  502  0.00000000000E+00  0.00000000000E+00  0.43571210155E+03  0.43571210155E+03  0.00000000000E+00 0. -1.
         21   -1    0    0  502  503 -0.00000000000E+00 -0.00000000000E+00 -0.10917158914E+03  0.10917158914E+03  0.00000000000E+00 0. -1.
         -6    2    1    2    0  503  0.54801166770E+01  0.13212047849E+03  0.14621241594E+03  0.26191910842E+03  0.17244621267E+03 0.  0.
        -24    2    3    3    0    0 -0.54112771938E+02  0.11177637942E+03  0.98799482752E+02  0.18295537640E+03  0.91044938797E+02 0.  0.
          6    2    1    2  501    0 -0.54801166770E+01 -0.13212047849E+03  0.18032809647E+03  0.28296458227E+03  0.17339227182E+03 0.  0.
         24    2    5    5    0    0  0.67557353044E+02 -0.92460043374E+02  0.98621674909E+02  0.16632217394E+03  0.69454842964E+02 0.  0.
          5    1    5    5  501    0 -0.73037469721E+02 -0.39660435116E+02  0.81706421562E+02  0.11664240833E+03  0.47000000000E+01 0. -1.
        -11    1    6    6    0    0  0.19271802100E+02 -0.73497254251E+00  0.46409394061E+02  0.50257083062E+02  0.00000000000E+00 0.  1.
         12    1    6    6    0    0  0.48285550944E+02 -0.91725070831E+02  0.52212280848E+02  0.11606509088E+03  0.00000000000E+00 0. -1.
         -5    1    3    3    0  503  0.59592888615E+02  0.20344099073E+02  0.47412933191E+02  0.78963732018E+02  0.47000000000E+01 0.  1.
         13    1    4    4    0    0 -0.84576223313E+01  0.10611335354E+03  0.56767625747E+02  0.12064053426E+03  0.00000000000E+00 0. -1.
        -14    1    4    4    0    0 -0.45655149606E+02  0.56630258802E+01  0.42031857005E+02  0.62314842141E+02  0.00000000000E+00 0.  1.
<mgrwt>
<rscale>  2 0.21787318E+03</rscale>
<asrwt>0</asrwt>
<pdfrwt beam="1">  1       21 0.67032630E-01 0.21806130E+03</pdfrwt>
<pdfrwt beam="2">  1       21 0.16795629E-01 0.21806130E+03</pdfrwt>
<totfact> 0.64261449E+04</totfact>
</mgrwt>
</event>
<event>
12    1  0.1026879E-001  0.1932434E+03  0.7546771E-02  0.1157322E+00
         21   -1    0    0  503  502  0.00000000000E+00  0.00000000000E+00  0.48203932880E+02  0.48203932880E+02  0.00000000000E+00 0.  1.
         21   -1    0    0  501  503 -0.00000000000E+00 -0.00000000000E+00 -0.12348123423E+04  0.12348123423E+04  0.00000000000E+00 0.  1.
          6    2    1    2  501    0 -0.62855974860E+02 -0.49707712595E+02 -0.10051101350E+04  0.10235181379E+04  0.17584443365E+03 0.  0.
         24    2    3    3    0    0 -0.13255981639E+01 -0.61113866480E+02 -0.31852551452E+03  0.33407153468E+03  0.80053888075E+02 0.  0.
         -6    2    1    2    0  502  0.62855974860E+02  0.49707712595E+02 -0.18149827439E+03  0.25949813726E+03  0.16726006507E+03 0.  0.
        -24    2    5    5    0    0  0.21604112718E+02  0.71511498115E+02 -0.49576979497E+02  0.11948942596E+03  0.78988695210E+02 0.  0.
          5    1    3    3  501    0 -0.61530376696E+02  0.11406153884E+02 -0.68658462045E+03  0.68944660319E+03  0.47000000000E+01 0. -1.
        -13    1    4    4    0    0 -0.28684351639E+02 -0.32244925135E+02 -0.25841429188E+03  0.26199326990E+03  0.00000000000E+00 0.  1.
         14    1    4    4    0    0  0.27358753475E+02 -0.28868941344E+02 -0.60111222641E+02  0.72078264778E+02  0.00000000000E+00 0. -1.
         -5    1    5    5    0  502  0.41251862142E+02 -0.21803785520E+02 -0.13192129490E+03  0.14000871130E+03  0.47000000000E+01 0.  1.
         13    1    6    6    0    0 -0.24315275613E+02  0.42687608327E+02 -0.42219540308E+02  0.64776184795E+02  0.00000000000E+00 0. -1.
        -14    1    6    6    0    0  0.45919388331E+02  0.28823889789E+02 -0.73574391894E+01  0.54713241164E+02  0.00000000000E+00 0.  1.
<mgrwt>
<rscale>  2 0.19126898E+03</rscale>
<asrwt>0</asrwt>
<pdfrwt beam="1">  1       21 0.74159902E-02 0.19324336E+03</pdfrwt>
<pdfrwt beam="2">  1       21 0.18997112E+00 0.19324336E+03</pdfrwt>
<totfact> 0.21351347E+04</totfact>
</mgrwt>
</event>
<event>
12    1  0.1026879E-001  0.2058090E+03  0.7546771E-02  0.1145126E+00
         21   -1    0    0  503  502  0.00000000000E+00  0.00000000000E+00  0.46022846764E+03  0.46022846764E+03  0.00000000000E+00 0. -1.
         21   -1    0    0  501  503 -0.00000000000E+00 -0.00000000000E+00 -0.63365488832E+03  0.63365488832E+03  0.00000000000E+00 0. -1.
          6    2    1    2  501    0  0.53698666790E+02  0.94071212334E+02 -0.59260808638E+03  0.62732902437E+03  0.17499834562E+03 0.  0.
         24    2    3    3    0    0  0.13105859085E+02  0.17689914697E+02 -0.70620963141E+02  0.98202833852E+02  0.64589314266E+02 0.  0.
         -6    2    1    2    0  502 -0.53698666790E+02 -0.94071212334E+02  0.41918166570E+03  0.46655433159E+03  0.17385837817E+03 0.  0.
        -24    2    5    5    0    0 -0.10166069154E+03 -0.53178510279E+02  0.31554087220E+03  0.34516210376E+03  0.80049894978E+02 0.  0.
          5    1    3    3  501    0  0.40592807705E+02  0.76381297637E+02 -0.52198712324E+03  0.52912619052E+03  0.47000000000E+01 0. -1.
        -11    1    4    4    0    0  0.89255128607E+01  0.42132657592E+02 -0.39772718660E+02  0.58623329530E+02  0.00000000000E+00 0.  1.
         12    1    4    4    0    0  0.41803462244E+01 -0.24442742896E+02 -0.30848244481E+02  0.39579504322E+02  0.00000000000E+00 0. -1.
         -5    1    5    5    0  502  0.47962024749E+02 -0.40892702055E+02  0.10364079350E+03  0.12139222783E+03  0.47000000000E+01 0.  1.
         11    1    6    6    0    0 -0.28721756268E+02 -0.28615615698E+02  0.21369054541E+03  0.21750274008E+03  0.00000000000E+00 0. -1.
        -12    1    6    6    0    0 -0.72938935271E+02 -0.24562894581E+02  0.10185032679E+03  0.12765936368E+03  0.00000000000E+00 0.  1.
<mgrwt>
<rscale>  2 0.20556650E+03</rscale>
<asrwt>0</asrwt>
<pdfrwt beam="1">  1       21 0.70804380E-01 0.20580904E+03</pdfrwt>
<pdfrwt beam="2">  1       21 0.97485367E-01 0.20580904E+03</pdfrwt>
<totfact> 0.15560278E+03</totfact>
</mgrwt>
</event>
<event>
12    1  0.1026879E-001  0.2465732E+03  0.7546771E-02  0.1115553E+00
         21   -1    0    0  503  502  0.00000000000E+00  0.00000000000E+00  0.10390351517E+03  0.10390351517E+03  0.00000000000E+00 0.  1.
         21   -1    0    0  501  503 -0.00000000000E+00 -0.00000000000E+00 -0.68877111474E+03  0.68877111474E+03  0.00000000000E+00 0.  1.
          6    2    1    2  501    0 -0.16240992360E+03 -0.66632214214E+02 -0.44705048107E+03  0.51054135175E+03  0.17315167908E+03 0.  0.
         24    2    3    3    0    0 -0.71515969778E+02 -0.89564038729E+02 -0.34398442357E+03  0.37114163286E+03  0.79275324152E+02 0.  0.
         -6    2    1    2    0  502  0.16240992360E+03  0.66632214214E+02 -0.13781711851E+03  0.28213327817E+03  0.17259430246E+03 0.  0.
        -24    2    5    5    0    0  0.18463552195E+03  0.61146772528E+02 -0.89922105988E+02  0.22884078792E+03  0.80330052365E+02 0.  0.
          5    1    3    3  501    0 -0.90893953823E+02  0.22931824515E+02 -0.10306605750E+03  0.13939971889E+03  0.47000000000E+01 0. -1.
        -11    1    4    4    0    0 -0.73966445130E+02 -0.30696573918E+02 -0.18492556901E+03  0.20152116695E+03  0.00000000000E+00 0.  1.
         12    1    4    4    0    0  0.24504753522E+01 -0.58867464810E+02 -0.15905885456E+03  0.16962046592E+03  0.00000000000E+00 0. -1.
         -5    1    5    5    0  502 -0.22225598353E+02  0.54854416853E+01 -0.47895012517E+02  0.53292490247E+02  0.47000000000E+01 0.  1.
         11    1    6    6    0    0  0.99035483715E+02  0.74161356952E+02 -0.49023300197E+02  0.13308349958E+03  0.00000000000E+00 0. -1.
        -12    1    6    6    0    0  0.85600038240E+02 -0.13014584423E+02 -0.40898805791E+02  0.95757288336E+02  0.00000000000E+00 0.  1.
<mgrwt>
<rscale>  2 0.24647536E+03</rscale>
<asrwt>0</asrwt>
<pdfrwt beam="1">  1       21 0.15985156E-01 0.24657319E+03</pdfrwt>
<pdfrwt beam="2">  1       21 0.10596479E+00 0.24657319E+03</pdfrwt>
<totfact> 0.24231584E+04</totfact>
</mgrwt>
</event>
<event>
12    1  0.1026879E-001  0.2274324E+03  0.7546771E-02  0.1128868E+00
         21   -1    0    0  501  502  0.00000000000E+00  0.00000000000E+00  0.34706594821E+03  0.34706594821E+03  0.00000000000E+00 0. -1.
         21   -1    0    0  502  503 -0.00000000000E+00 -0.00000000000E+00 -0.15619580210E+03  0.15619580210E+03  0.00000000000E+00 0. -1.
         -6    2    1    2    0  503 -0.37695243402E+02  0.13977744208E+03  0.35788684706E+02  0.22798779570E+03  0.17244981979E+03 0.  0.
        -24    2    3    3    0    0 -0.89738916324E+02  0.79654941107E+02  0.85202766791E+01  0.14379210050E+03  0.78775569217E+02 0.  0.
          6    2    1    2  501    0  0.37695243402E+02 -0.13977744208E+03  0.15508146140E+03  0.27527395461E+03  0.17540474830E+03 0.  0.
         24    2    5    5    0    0 -0.20477139279E+02 -0.14786178929E+02  0.76259049724E+02  0.11639694383E+03  0.84231001111E+02 0.  0.
          5    1    5    5  501    0  0.58172382681E+02 -0.12499126315E+03  0.78822411675E+02  0.15887701077E+03  0.47000000000E+01 0. -1.
        -11    1    6    6    0    0  0.11213272985E+00 -0.21982765893E+02  0.88634445422E+02  0.91319874537E+02  0.00000000000E+00 0.  1.
         12    1    6    6    0    0 -0.20589272008E+02  0.71965869639E+01 -0.12375395698E+02  0.25077069295E+02  0.00000000000E+00 0. -1.
         -5    1    3    3    0  503  0.52043672922E+02  0.60122500972E+02  0.27268408027E+02  0.84195695203E+02  0.47000000000E+01 0.  1.
         13    1    4    4    0    0 -0.63497546491E+01  0.32755840974E+02  0.30966722240E+02  0.45521449761E+02  0.00000000000E+00 0. -1.
        -14    1    4    4    0    0 -0.83389161675E+02  0.46899100133E+02 -0.22446445561E+02  0.98270650738E+02  0.00000000000E+00 0.  1.
<mgrwt>
<rscale>  2 0.22686247E+03</rscale>
<asrwt>0</asrwt>
<pdfrwt beam="1">  1       21 0.53394761E-01 0.22743239E+03</pdfrwt>
<pdfrwt beam="2">  1       21 0.24030124E-01 0.22743239E+03</pdfrwt>
<totfact> 0.53370028E+04</totfact>
</mgrwt>
</event>
<event>
12    1  0.1026879E-001  0.1789609E+03  0.7546771E-02  0.1169642E+00
         21   -1    0    0  503  502  0.00000000000E+00  0.00000000000E+00  0.50040680194E+02  0.50040680194E+02  0.00000000000E+00 0.  1.
         21   -1    0    0  501  503 -0.00000000000E+00 -0.00000000000E+00 -0.63400421157E+03  0.63400421157E+03  0.00000000000E+00 0.  1.
          6    2    1    2  501    0  0.13812487554E+02  0.42064132191E+02 -0.25604823419E+03  0.31047367334E+03  0.16992065082E+03 0.  0.
         24    2    3    3    0    0  0.67456743228E+02  0.21276219770E+01 -0.12384804525E+03  0.16224543388E+03  0.80189173347E+02 0.  0.
         -6    2    1    2    0  502 -0.13812487554E+02 -0.42064132191E+02 -0.32791529719E+03  0.37357121843E+03  0.17339791544E+03 0.  0.
        -24    2    5    5    0    0  0.13168637309E+02 -0.12665724849E+02 -0.32280717199E+03  0.33306899137E+03  0.79979054353E+02 0.  0.
          5    1    3    3  501    0 -0.53644255674E+02  0.39936510213E+02 -0.13220018895E+03  0.14822823946E+03  0.47000000000E+01 0. -1.
        -13    1    4    4    0    0  0.59531896376E+02 -0.29416061540E+02 -0.55457767878E+02  0.86515405453E+02  0.00000000000E+00 0.  1.
         14    1    4    4    0    0  0.79248468520E+01  0.31543683517E+02 -0.68390277367E+02  0.75730028429E+02  0.00000000000E+00 0. -1.
         -5    1    5    5    0  502 -0.26981124863E+02 -0.29398407342E+02 -0.51081251997E+01  0.40502227052E+02  0.47000000000E+01 0.  1.
         13    1    6    6    0    0  0.19240783970E+02 -0.44543917049E+02 -0.16636476215E+03  0.17329628501E+03  0.00000000000E+00 0. -1.
        -14    1    6    6    0    0 -0.60721466609E+01  0.31878192200E+02 -0.15644240983E+03  0.15977270636E+03  0.00000000000E+00 0.  1.
<mgrwt>
<rscale>  2 0.17811315E+03</rscale>
<asrwt>0</asrwt>
<pdfrwt beam="1">  1       21 0.76985662E-02 0.17896093E+03</pdfrwt>
<pdfrwt beam="2">  1       21 0.97539109E-01 0.17896093E+03</pdfrwt>
<totfact> 0.11231025E+05</totfact>
</mgrwt>
</event>
<event>
12    1  0.1026879E-001  0.1810272E+03  0.7546771E-02  0.1167510E+00
         21   -1    0    0  501  502  0.00000000000E+00  0.00000000000E+00  0.12148665936E+03  0.12148665936E+03  0.00000000000E+00 0.  1.
         21   -1    0    0  502  503 -0.00000000000E+00 -0.00000000000E+00 -0.45206413818E+03  0.45206413818E+03  0.00000000000E+00 0.  1.
         -6    2    1    2    0  503  0.48947504315E+02 -0.34163243890E+01 -0.34874764016E+03  0.39161398240E+03  0.17125730712E+03 0.  0.
        -24    2    3    3    0    0  0.14258572834E+00  0.52361134488E+02 -0.13454309605E+03  0.16490112058E+03  0.79679521447E+02 0.  0.
          6    2    1    2  501    0 -0.48947504315E+02  0.34163243890E+01  0.18170161342E+02  0.18193681513E+03  0.17425074027E+03 0.  0.
         24    2    5    5    0    0  0.32869323018E+02  0.27077597238E+01  0.50966265452E+02  0.93663547698E+02  0.71327243006E+02 0.  0.
          5    1    5    5  501    0 -0.81816827332E+02  0.70856466518E+00 -0.32796104110E+02  0.88273267434E+02  0.47000000000E+01 0. -1.
        -13    1    6    6    0    0  0.18677901077E+02  0.33240752395E+02  0.77995199471E+01  0.38918429051E+02  0.00000000000E+00 0.  1.
         14    1    6    6    0    0  0.14191421941E+02 -0.30532992671E+02  0.43166745505E+02  0.54745118647E+02  0.00000000000E+00 0. -1.
         -5    1    3    3    0  503  0.48804918586E+02 -0.55777458877E+02 -0.21420454411E+03  0.22671286182E+03  0.47000000000E+01 0.  1.
         13    1    4    4    0    0 -0.27731146879E+02 -0.70527100673E+01 -0.52982747714E+02  0.60215685513E+02  0.00000000000E+00 0. -1.
        -14    1    4    4    0    0  0.27873732607E+02  0.59413844555E+02 -0.81560348339E+02  0.10468543507E+03  0.00000000000E+00 0.  1.
<mgrwt>
<rscale>  2 0.18030299E+03</rscale>
<asrwt>0</asrwt>
<pdfrwt beam="1">  1       21 0.18690255E-01 0.18102721E+03</pdfrwt>
<pdfrwt beam="2">  1       21 0.69548329E-01 0.18102721E+03</pdfrwt>
<totfact> 0.49491568E+04</totfact>
</mgrwt>
</event>
<event>
12    1  0.1026879E-001  0.1866307E+03  0.7546771E-02  0.1161754E+00
         21   -1    0    0  501  502  0.00000000000E+00  0.00000000000E+00  0.35556988387E+03  0.35556988387E+03  0.00000000000E+00 0.  1.
         21   -1    0    0  502  503 -0.00000000000E+00 -0.00000000000E+00 -0.10932390781E+03  0.10932390781E+03  0.00000000000E+00 0.  1.
         -6    2    1    2    0  503 -0.39791628864E+02  0.55990686663E+02  0.46288058804E+02  0.19137199293E+03  0.17251760654E+03 0.  0.
        -24    2    3    3    0    0  0.43459462812E+02  0.35283814949E+02  0.67630944047E+01  0.96800159845E+02  0.78682011889E+02 0.  0.
          6    2    1    2  501    0  0.39791628864E+02 -0.55990686663E+02  0.19995791726E+03  0.27352179875E+03  0.17353004062E+03 0.  0.
         24    2    5    5    0    0  0.69222301424E+02  0.11717403428E+02  0.85579023903E+02  0.13730443129E+03  0.81238617439E+02 0.  0.
          5    1    5    5  501    0 -0.29430672560E+02 -0.67708090091E+02  0.11437889336E+03  0.13621736746E+03  0.47000000000E+01 0. -1.
        -11    1    6    6    0    0  0.17563345781E+02 -0.32695946691E+02  0.17646334812E+02  0.41096096863E+02  0.00000000000E+00 0.  1.
         12    1    6    6    0    0  0.51658955643E+02  0.44413350120E+02  0.67932689091E+02  0.96208334432E+02  0.00000000000E+00 0. -1.
         -5    1    3    3    0  503 -0.83251091675E+02  0.20706871714E+02  0.39524964399E+02  0.94571833080E+02  0.47000000000E+01 0.  1.
         11    1    4    4    0    0 -0.15382915214E+02 -0.30224761281E+01  0.19936989205E+02  0.25362432474E+02  0.00000000000E+00 0. -1.
        -12    1    4    4    0    0  0.58842378026E+02  0.38306291077E+02 -0.13173894800E+02  0.71437727372E+02  0.00000000000E+00 0.  1.
<mgrwt>
<rscale>  2 0.18639497E+03</rscale>
<asrwt>0</asrwt>
<pdfrwt beam="1">  1       21 0.54703059E-01 0.18663067E+03</pdfrwt>
<pdfrwt beam="2">  1       21 0.16819063E-01 0.18663067E+03</pdfrwt>
<totfact> 0.10061465E+05</totfact>
</mgrwt>
</event>
<event>
12    1  0.1026879E-001  0.1980334E+03  0.7546771E-02  0.1151565E+00
         21   -1    0    0  503  502  0.00000000000E+00  0.00000000000E+00  0.51133186262E+03  0.51133186262E+03  0.00000000000E+00 0.  1.
         21   -1    0    0  501  503 -0.00000000000E+00 -0.00000000000E+00 -0.78312992702E+02  0.78312992702E+02  0.00000000000E+00 0.  1.
          6    2    1    2  501    0 -0.55534634308E+02  0.75748060458E+02  0.26280093593E+03  0.32906162155E+03  0.17434263558E+03 0.  0.
         24    2    3    3    0    0 -0.90930207183E+01  0.10380881890E+03  0.12754893411E+03  0.18325550497E+03  0.80342364928E+02 0.  0.
         -6    2    1    2    0  502  0.55534634308E+02 -0.75748060458E+02  0.17021793399E+03  0.26058323377E+03  0.17351545291E+03 0.  0.
        -24    2    5    5    0    0  0.23668311567E+02  0.26376060353E+02  0.93716850042E+02  0.12898040545E+03  0.81223220056E+02 0.  0.
          5    1    3    3  501    0 -0.46441613589E+02 -0.28060758439E+02  0.13525200181E+03  0.14580611658E+03  0.47000000000E+01 0. -1.
        -11    1    4    4    0    0 -0.15916106145E+02  0.11955794725E+02  0.74180347386E+02  0.76804865736E+02  0.00000000000E+00 0.  1.
         12    1    4    4    0    0  0.68230854269E+01  0.91853024172E+02  0.53368586725E+02  0.10645063923E+03  0.00000000000E+00 0. -1.
         -5    1    5    5    0  502  0.31866322740E+02 -0.10212412081E+03  0.76501083948E+02  0.13160282832E+03  0.47000000000E+01 0.  1.
         11    1    6    6    0    0  0.45129744595E+02  0.83203356480E+01  0.19907970301E+02  0.50022486084E+02  0.00000000000E+00 0. -1.
        -12    1    6    6    0    0 -0.21461433028E+02  0.18055724705E+02  0.73808879741E+02  0.78957919367E+02  0.00000000000E+00 0.  1.
<mgrwt>
<rscale>  2 0.19785117E+03</rscale>
<asrwt>0</asrwt>
<pdfrwt beam="1">  1       21 0.78666438E-01 0.19803338E+03</pdfrwt>
<pdfrwt beam="2">  1       21 0.12048153E-01 0.19803338E+03</pdfrwt>
<totfact> 0.83034585E+04</totfact>
</mgrwt>
</event>
<event>
12    1  0.1026879E-001  0.1876528E+03  0.7546771E-02  0.1160705E+00
         21   -1    0    0  501  502  0.00000000000E+00  0.00000000000E+00  0.16606564100E+03  0.16606564100E+03  0.00000000000E+00 0.  1.
         21   -1    0    0  502  503 -0.00000000000E+00 -0.00000000000E+00 -0.21797784521E+03  0.21797784521E+03  0.00000000000E+00 0.  1.
         -6    2    1    2    0  503 -0.20952275827E+02 -0.67406733729E+02 -0.59069518682E+02  0.19673021870E+03  0.17387036924E+03 0.  0.
        -24    2    3    3    0    0  0.54449991036E+02 -0.55102686584E+02 -0.33358432021E+02  0.11598344538E+03  0.79613233974E+02 0.  0.
          6    2    1    2  501    0  0.20952275827E+02  0.67406733729E+02  0.71573144663E+01  0.18731326750E+03  0.17335618656E+03 0.  0.
         24    2    5    5    0    0  0.41561619008E+02  0.10662618155E+03 -0.63496785422E+01  0.14075750552E+03  0.81705851533E+02 0.  0.
          5    1    5    5  501    0 -0.20609343181E+02 -0.39219447824E+02  0.13506993008E+02  0.46555761986E+02  0.47000000000E+01 0. -1.
        -11    1    6    6    0    0 -0.23923389165E+01  0.83120525776E+02  0.18309578233E+02  0.85146848127E+02  0.00000000000E+00 0.  1.
         12    1    6    6    0    0  0.43953957924E+02  0.23505655777E+02 -0.24659256776E+02  0.55610657391E+02  0.00000000000E+00 0. -1.
         -5    1    3    3    0  503 -0.75402266863E+02 -0.12304047145E+02 -0.25711086661E+02  0.80746773319E+02  0.47000000000E+01 0.  1.
         11    1    4    4    0    0 -0.54173819849E+01 -0.87756143845E+01 -0.38744251734E+02  0.40093347052E+02  0.00000000000E+00 0. -1.
        -12    1    4    4    0    0  0.59867373021E+02 -0.46327072199E+02  0.53858197128E+01  0.75890098333E+02  0.00000000000E+00 0.  1.
<mgrwt>
<rscale>  2 0.18753360E+03</rscale>
<asrwt>0</asrwt>
<pdfrwt beam="1">  1       21 0.25548560E-01 0.18765279E+03</pdfrwt>
<pdfrwt beam="2">  1       21 0.33535053E-01 0.18765279E+03</pdfrwt>
<totfact> 0.12466876E+05</totfact>
</mgrwt>
</event>
<event>
12    1  0.1026879E-001  0.1902340E+03  0.7546771E-02  0.1158345E+00
         21   -1    0    0  503  502  0.00000000000E+00  0.00000000000E+00  0.11474884688E+04  0.11474884688E+04  0.00000000000E+00 0.  1.
         21   -1    0    0  501  503 -0.00000000000E+00 -0.00000000000E+00 -0.34847906821E+02  0.34847906821E+02  0.00000000000E+00 0.  1.
          6    2    1    2  501    0  0.49697568483E+02 -0.58622183595E+02  0.37164952672E+03  0.41731566922E+03  0.17355860204E+03 0.  0.
         24    2    3    3    0    0  0.93961236552E+02 -0.44459334278E+02  0.25818990185E+03  0.29461670799E+03  0.96600376961E+02 0.  0.
         -6    2    1    2    0  502 -0.49697568483E+02  0.58622183595E+02  0.74099103529E+03  0.76502070644E+03  0.17401884429E+03 0.  0.
        -24    2    5    5    0    0 -0.25721472356E+02 -0.34707803724E+02  0.31071870282E+03  0.32406525539E+03  0.81277005895E+02 0.  0.
          5    1    3    3  501    0 -0.44263668070E+02 -0.14162849317E+02  0.11345962487E+03  0.12269896123E+03  0.47000000000E+01 0. -1.
        -13    1    4    4    0    0  0.59188849152E+02 -0.29336912282E+02  0.24610830909E+03  0.25482008180E+03  0.00000000000E+00 0.  1.
         14    1    4    4    0    0  0.34772387400E+02 -0.15122421996E+02  0.12081592768E+02  0.39796626193E+02  0.00000000000E+00 0. -1.
         -5    1    5    5    0  502 -0.23976096127E+02  0.93329987320E+02  0.43027233247E+03  0.44095545105E+03  0.47000000000E+01 0.  1.
         13    1    6    6    0    0  0.14113784664E+02 -0.60399407026E+01  0.22317938163E+03  0.22370676383E+03  0.00000000000E+00 0. -1.
        -14    1    6    6    0    0 -0.39835257020E+02 -0.28667863022E+02  0.87539321197E+02  0.10035849156E+03  0.00000000000E+00 0.  1.
<mgrwt>
<rscale>  2 0.19012866E+03</rscale>
<asrwt>0</asrwt>
<pdfrwt beam="1">  1       21 0.17653666E+00 0.19023398E+03</pdfrwt>
<pdfrwt beam="2">  1       21 0.53612173E-02 0.19023398E+03</pdfrwt>
<totfact> 0.45985523E+04</totfact>
</mgrwt>
</event>
<event>
12    1  0.1026879E-001  0.2367656E+03  0.7546771E-02  0.1122400E+00
         21   -1    0    0  501  502  0.00000000000E+00  0.00000000000E+00  0.28193723628E+04  0.28193723628E+04  0.00000000000E+00 0. -1.
         21   -1    0    0  502  503 -0.00000000000E+00 -0.00000000000E+00 -0.38906966437E+02  0.38906966437E+02  0.00000000000E+00 0.  1.
         -6    2    1    2    0  503  0.13844135699E+03 -0.82846882252E+02  0.38152769489E+03  0.44768603675E+03  0.16979337532E+03 0.  0.
        -24    2    3    3    0    0  0.80559357961E+02  0.18037224802E+02  0.17581035990E+03  0.21131844002E+03  0.83252920721E+02 0.  0.
          6    2    1    2  501    0 -0.13844135699E+03  0.82846882252E+02  0.23989377014E+04  0.24105932924E+04  0.17328678840E+03 0.  0.
         24    2    5    5    0    0 -0.73682885637E+02 -0.21338881936E+02  0.12802923211E+04  0.12852320571E+04  0.82392339664E+02 0.  0.
          5    1    5    5  501    0 -0.64758471356E+02  0.10418576419E+03  0.11186453803E+04  0.11253612353E+04  0.47000000000E+01 0. -1.
        -11    1    6    6    0    0 -0.51048419979E+01  0.21842927615E+02  0.11769058352E+03  0.11980920811E+03  0.00000000000E+00 0.  1.
         12    1    6    6    0    0 -0.68578043639E+02 -0.43181809551E+02  0.11626017376E+04  0.11654228490E+04  0.00000000000E+00 0. -1.
         -5    1    3    3    0  503  0.57881999033E+02 -0.10088410705E+03  0.20571733499E+03  0.23636759673E+03  0.47000000000E+01 0.  1.
         11    1    4    4    0    0  0.15171292847E+02 -0.79899718398E+01  0.12075048986E+03  0.12196183246E+03  0.00000000000E+00 0. -1.
        -12    1    4    4    0    0  0.65388065114E+02  0.26027196642E+02  0.55059870044E+02  0.89356607554E+02  0.00000000000E+00 0.  1.
<mgrwt>
<rscale>  2 0.23612680E+03</rscale>
<asrwt>0</asrwt>
<pdfrwt beam="1">  1       21 0.43374943E+00 0.23676555E+03</pdfrwt>
<pdfrwt beam="2">  1       21 0.59856893E-02 0.23676555E+03</pdfrwt>
<totfact> 0.98830917E+02</totfact>
</mgrwt>
</event>
<event>
12    1  0.1026879E-001  0.2696175E+03  0.7546771E-02  0.1101530E+00
         21   -1    0    0  501  502  0.00000000000E+00  0.00000000000E+00  0.79617531747E+03  0.79617531747E+03  0.00000000000E+00 0.  1.
         21   -1    0    0  502  503 -0.00000000000E+00 -0.00000000000E+00 -0.16722780912E+03  0.16722780912E+03  0.00000000000E+00 0.  1.
         -6    2    1    2    0  503 -0.19287254287E+03 -0.75086427154E+02 -0.10190039250E+02  0.26980995992E+03  0.17278827575E+03 0.  0.
        -24    2    3    3    0    0 -0.57212234919E+02 -0.82363388063E+02  0.20278906217E+02  0.13050052036E+03  0.81007309908E+02 0.  0.
          6    2    1    2  501    0  0.19287254287E+03  0.75086427154E+02  0.63913754760E+03  0.69359316667E+03  0.17244386553E+03 0.  0.
         24    2    5    5    0    0  0.23897702788E+02  0.24684687011E+02  0.15400734405E+03  0.17738948944E+03  0.81045264945E+02 0.  0.
          5    1    5    5  501    0  0.16897484008E+03  0.50401740143E+02  0.48513020356E+03  0.51620367724E+03  0.47000000000E+01 0. -1.
        -11    1    6    6    0    0  0.51077886021E+02  0.15044989386E+01  0.75872631850E+02  0.91476063652E+02  0.00000000000E+00 0.  1.
         12    1    6    6    0    0 -0.27180183232E+02  0.23180188072E+02  0.78134712198E+02  0.85913425784E+02  0.00000000000E+00 0. -1.
         -5    1    3    3    0  503 -0.13566030795E+03  0.72769609096E+01 -0.30468945467E+02  0.13930943956E+03  0.47000000000E+01 0.  1.
         13    1    4    4    0    0  0.96945589349E+01 -0.18095896794E+02  0.30924922449E+02  0.37118685082E+02  0.00000000000E+00 0. -1.
        -14    1    4    4    0    0 -0.66906793853E+02 -0.64267491269E+02 -0.10646016233E+02  0.93381835275E+02  0.00000000000E+00 0.  1.
<mgrwt>
<rscale>  2 0.26956230E+03</rscale>
<asrwt>0</asrwt>
<pdfrwt beam="1">  1       21 0.12248851E+00 0.26961747E+03</pdfrwt>
<pdfrwt beam="2">  1       21 0.25727356E-01 0.26961747E+03</pdfrwt>
<totfact> 0.68354123E+03</totfact>
</mgrwt>
</event>
<event>
12    1  0.1026879E-001  0.1963361E+03  0.7546771E-02  0.1153460E+00
         21   -1    0    0  501  502  0.00000000000E+00  0.00000000000E+00  0.55272019049E+03  0.55272019049E+03  0.00000000000E+00 0. -1.
         21   -1    0    0  502  503 -0.00000000000E+00 -0.00000000000E+00 -0.77537226427E+02  0.77537226427E+02  0.00000000000E+00 0.  1.
         -6    2    1    2    0  503  0.84245769627E+02 -0.32930179309E+02  0.13315037364E+03  0.23722748804E+03  0.17425875206E+03 0.  0.
        -24    2    3    3    0    0 -0.15440251311E+02 -0.26749789727E+02  0.10167928047E+03  0.13240373266E+03  0.78981768367E+02 0.  0.
          6    2    1    2  501    0 -0.84245769627E+02  0.32930179309E+02  0.34203259042E+03  0.39302992888E+03  0.17118552999E+03 0.  0.
         24    2    5    5    0    0  0.20622159337E+02 -0.21933184279E+01  0.10762563365E+03  0.13380096831E+03  0.76742022385E+02 0.  0.
          5    1    5    5  501    0 -0.10486792896E+03  0.35123497737E+02  0.23440695677E+03  0.25922896057E+03  0.47000000000E+01 0. -1.
        -11    1    6    6    0    0 -0.20377084416E+02 -0.24953730591E+02  0.37463532768E+02  0.49410834107E+02  0.00000000000E+00 0.  1.
         12    1    6    6    0    0  0.40999243752E+02  0.22760412163E+02  0.70162100883E+02  0.84390134201E+02  0.00000000000E+00 0. -1.
         -5    1    3    3    0  503  0.99686020938E+02 -0.61803895813E+01  0.31471093176E+02  0.10482375538E+03  0.47000000000E+01 0.  1.
         11    1    4    4    0    0  0.22914088193E+02 -0.23708801727E+02  0.83650916074E+02  0.89914617705E+02  0.00000000000E+00 0. -1.
        -12    1    4    4    0    0 -0.38354339503E+02 -0.30409880000E+01  0.18028364393E+02  0.42489114952E+02  0.00000000000E+00 0.  1.
<mgrwt>
<rscale>  2 0.19565190E+03</rscale>
<asrwt>0</asrwt>
<pdfrwt beam="1">  1       21 0.85033873E-01 0.19633609E+03</pdfrwt>
<pdfrwt beam="2">  1       21 0.11928804E-01 0.19633609E+03</pdfrwt>
<totfact> 0.70884734E+04</totfact>
</mgrwt>
</event>
<event>
12    1  0.1026879E-001  0.2122346E+03  0.7546771E-02  0.1140229E+00
         21   -1    0    0  503  502  0.00000000000E+00  0.00000000000E+00  0.32401938598E+02  0.32401938598E+02  0.00000000000E+00 0.  1.
         21   -1    0    0  501  503 -0.00000000000E+00 -0.00000000000E+00 -0.14080934783E+04  0.14080934783E+04  0.00000000000E+00 0.  1.
          6    2    1    2  501    0  0.10340063085E+03  0.57718474584E+02 -0.57598712770E+03  0.61310756466E+03  0.17354135470E+03 0.  0.
         24    2    3    3    0    0  0.11844508923E+03  0.47732079896E+02 -0.57492082525E+03  0.59441824129E+03  0.80569843406E+02 0.  0.
         -6    2    1    2    0  502 -0.10340063085E+03 -0.57718474584E+02 -0.79970441204E+03  0.82738785229E+03  0.17612608751E+03 0.  0.
        -24    2    5    5    0    0 -0.10105151616E+03 -0.23711559721E+02 -0.77307449007E+03  0.78387657395E+03  0.77747469455E+02 0.  0.
          5    1    3    3  501    0 -0.15044458380E+02  0.99863946880E+01 -0.10663024543E+01  0.18689323362E+02  0.47000000000E+01 0. -1.
        -11    1    4    4    0    0  0.46804536466E+02  0.56811386496E+02 -0.36714079521E+03  0.37444700797E+03  0.00000000000E+00 0.  1.
         12    1    4    4    0    0  0.71640552760E+02 -0.90793066002E+01 -0.20778003004E+03  0.21997123332E+03  0.00000000000E+00 0. -1.
         -5    1    5    5    0  502 -0.23491146848E+01 -0.34006914863E+02 -0.26629921977E+02  0.43511278340E+02  0.47000000000E+01 0.  1.
         13    1    6    6    0    0  0.31137684573E+01  0.16788507133E+02 -0.75568878140E+02  0.77473897986E+02  0.00000000000E+00 0. -1.
        -14    1    6    6    0    0 -0.10416528462E+03 -0.40500066854E+02 -0.69750561193E+03  0.70640267596E+03  0.00000000000E+00 0.  1.
<mgrwt>
<rscale>  2 0.21169752E+03</rscale>
<asrwt>0</asrwt>
<pdfrwt beam="1">  1       21 0.49849150E-02 0.21223457E+03</pdfrwt>
<pdfrwt beam="2">  1       21 0.21662971E+00 0.21223457E+03</pdfrwt>
<totfact> 0.28120010E+04</totfact>
</mgrwt>
</event>
<event>
12    1  0.1026879E-001  0.1752341E+03  0.7546771E-02  0.1172578E+00
         21   -1    0    0  503  502  0.00000000000E+00  0.00000000000E+00  0.58617471657E+03  0.58617471657E+03  0.00000000000E+00 0.  1.
         21   -1    0    0  501  503 -0.00000000000E+00 -0.00000000000E+00 -0.77920910258E+02  0.77920910258E+02  0.00000000000E+00 0.  1.
          6    2    1    2  501    0 -0.26800720687E+02 -0.10688957159E+02  0.44441403568E+03  0.47759498482E+03  0.17251261399E+03 0.  0.
         24    2    3    3    0    0 -0.28549148221E+02  0.12760075041E+02  0.44008131694E+03  0.45322745394E+03  0.10375782429E+03 0.  0.
         -6    2    1    2    0  502  0.26800720687E+02  0.10688957159E+02  0.63839770628E+02  0.18650064200E+03  0.17284224228E+03 0.  0.
        -24    2    5    5    0    0  0.44915385264E+02  0.62687319354E+01  0.10559420893E+03  0.14053105877E+03  0.80883574879E+02 0.  0.
          5    1    3    3  501    0  0.17484275340E+01 -0.23449032200E+02  0.43327187383E+01  0.24367530889E+02  0.47000000000E+01 0. -1.
        -13    1    4    4    0    0 -0.51863368911E+02  0.38123444606E+01  0.10456051936E+03  0.11677861625E+03  0.00000000000E+00 0.  1.
         14    1    4    4    0    0  0.23314220690E+02  0.89477305799E+01  0.33552079758E+03  0.33644883768E+03  0.00000000000E+00 0. -1.
         -5    1    5    5    0  502 -0.18114664577E+02  0.44202252237E+01 -0.41754438307E+02  0.45969583228E+02  0.47000000000E+01 0.  1.
         13    1    6    6    0    0 -0.11458133169E+02 -0.18360750220E+02  0.43709376805E+01  0.22079652637E+02  0.00000000000E+00 0. -1.
        -14    1    6    6    0    0  0.56373518433E+02  0.24629482155E+02  0.10122327125E+03  0.11845140613E+03  0.00000000000E+00 0.  1.
<mgrwt>
<rscale>  2 0.17515272E+03</rscale>
<asrwt>0</asrwt>
<pdfrwt beam="1">  1       21 0.90180723E-01 0.17523405E+03</pdfrwt>
<pdfrwt beam="2">  1       21 0.11987833E-01 0.17523405E+03</pdfrwt>
<totfact> 0.61979326E+04</totfact>
</mgrwt>
</event>
<event>
12    1  0.1026879E-001  0.2727728E+03  0.7546771E-02  0.1100605E+00
         21   -1    0    0  503  502  0.00000000000E+00  0.00000000000E+00  0.10583789664E+03  0.10583789664E+03  0.00000000000E+00 0.  1.
         21   -1    0    0  501  503 -0.00000000000E+00 -0.00000000000E+00 -0.75165115677E+03  0.75165115677E+03  0.00000000000E+00 0. -1.
          6    2    1    2  501    0 -0.84619152040E+02 -0.18435006190E+03 -0.44534053106E+03  0.51897122450E+03  0.17279350985E+03 0.  0.
         24    2    3    3    0    0 -0.11666633327E+03 -0.16128984045E+03 -0.29167067491E+03  0.36024091761E+03  0.71248088861E+02 0.  0.
         -6    2    1    2    0  502  0.84619152040E+02  0.18435006190E+03 -0.20047272907E+03  0.33851782890E+03  0.18237230922E+03 0.  0.
        -24    2    5    5    0    0  0.59847083728E+02  0.13540562353E+03 -0.22272515686E+03  0.27913370680E+03  0.79954827585E+02 0.  0.
          5    1    3    3  501    0  0.32047181226E+02 -0.23060221445E+02 -0.15366985615E+03  0.15873030690E+03  0.47000000000E+01 0. -1.
        -11    1    4    4    0    0 -0.18791480090E+02 -0.10680709886E+01 -0.89115068843E+01  0.20824875860E+02  0.00000000000E+00 0.  1.
         12    1    4    4    0    0 -0.97874853176E+02 -0.16022176946E+03 -0.28275916802E+03  0.33941604175E+03  0.00000000000E+00 0. -1.
         -5    1    5    5    0  502  0.24772068312E+02  0.48944438362E+02  0.22252427799E+02  0.59384122103E+02  0.47000000000E+01 0.  1.
         13    1    6    6    0    0  0.53237954996E+02  0.27086101535E+02 -0.79095317317E+02  0.99116123664E+02  0.00000000000E+00 0. -1.
        -14    1    6    6    0    0  0.66091287315E+01  0.10831952200E+03 -0.14362983955E+03  0.18001758313E+03  0.00000000000E+00 0.  1.
<mgrwt>
<rscale>  2 0.27118168E+03</rscale>
<asrwt>0</asrwt>
<pdfrwt beam="1">  1       21 0.16282753E-01 0.27277281E+03</pdfrwt>
<pdfrwt beam="2">  1       21 0.11563864E+00 0.27277281E+03</pdfrwt>
<totfact> 0.18679744E+04</totfact>
</mgrwt>
</event>
<event>
12    1  0.1026879E-001  0.2203902E+03  0.7546771E-02  0.1134237E+00
         21   -1    0    0  501  502  0.00000000000E+00  0.00000000000E+00  0.32049775867E+02  0.32049775867E+02  0.00000000000E+00 0. -1.
         21   -1    0    0  502  503 -0.00000000000E+00 -0.00000000000E+00 -0.15377752991E+04  0.15377752991E+04  0.00000000000E+00 0. -1.
         -6    2    1    2    0  503 -0.54523463254E+02 -0.11814556859E+03 -0.89406651919E+03  0.92082938936E+03  0.17787816096E+03 0.  0.
        -24    2    3    3    0    0  0.42917013475E+01 -0.12444214418E+03 -0.46549694519E+03  0.48817151042E+03  0.78228841570E+02 0.  0.
          6    2    1    2  501    0  0.54523463254E+02  0.11814556859E+03 -0.61165900409E+03  0.64899568565E+03  0.17360149565E+03 0.  0.
         24    2    5    5    0    0 -0.35450011315E+02  0.69055075398E+02 -0.29674749447E+03  0.31779113928E+03  0.83107316111E+02 0.  0.
          5    1    5    5  501    0  0.89973474569E+02  0.49090493193E+02 -0.31491150962E+03  0.33120454637E+03  0.47000000000E+01 0. -1.
        -13    1    6    6    0    0 -0.20242561634E+02  0.15240095875E+02 -0.22692134058E+03  0.22833159360E+03  0.00000000000E+00 0.  1.
         14    1    6    6    0    0 -0.15207449681E+02  0.53814979523E+02 -0.69826153884E+02  0.89459545679E+02  0.00000000000E+00 0. -1.
         -5    1    3    3    0  503 -0.58815164602E+02  0.62965755878E+01 -0.42856957400E+03  0.43265787894E+03  0.47000000000E+01 0.  1.
         11    1    4    4    0    0 -0.31541236983E+02 -0.43315392577E+02 -0.11904345084E+03  0.13054660491E+03  0.00000000000E+00 0. -1.
        -12    1    4    4    0    0  0.35832938330E+02 -0.81126751601E+02 -0.34645349435E+03  0.35762490551E+03  0.00000000000E+00 0.  1.
<mgrwt>
<rscale>  2 0.21952583E+03</rscale>
<asrwt>0</asrwt>
<pdfrwt beam="1">  1       21 0.49307352E-02 0.22039016E+03</pdfrwt>
<pdfrwt beam="2">  1       21 0.23658079E+00 0.22039016E+03</pdfrwt>
<totfact> 0.21510137E+04</totfact>
</mgrwt>
</event>
<event>
12    1  0.1026879E-001  0.2753092E+03  0.7546771E-02  0.1098308E+00
         21   -1    0    0  501  502  0.00000000000E+00  0.00000000000E+00  0.10043136419E+04  0.10043136419E+04  0.00000000000E+00 0. -1.
         21   -1    0    0  502  503 -0.00000000000E+00 -0.00000000000E+00 -0.11716725240E+03  0.11716725240E+03  0.00000000000E+00 0. -1.
         -6    2    1    2    0  503  0.13304423080E+03  0.16764796309E+03  0.77821033872E+03  0.82540284806E+03  0.17283496006E+03 0.  0.
        -24    2    3    3    0    0  0.15395920023E+03  0.13953819749E+03  0.74197414235E+03  0.77477926862E+03  0.81135339220E+02 0.  0.
          6    2    1    2  501    0 -0.13304423080E+03 -0.16764796309E+03  0.10893605077E+03  0.29607804623E+03  0.17317199375E+03 0.  0.
         24    2    5    5    0    0 -0.12818574064E+03 -0.96932947094E+02  0.13111350064E+03  0.22165931406E+03  0.78195403475E+02 0.  0.
          5    1    5    5  501    0 -0.48584901657E+01 -0.70715015997E+02 -0.22177449870E+02  0.74418732163E+02  0.47000000000E+01 0. -1.
        -11    1    6    6    0    0 -0.12064413227E+03 -0.10061777724E+03  0.92843733314E+02  0.18247986892E+03  0.00000000000E+00 0.  1.
         12    1    6    6    0    0 -0.75416083732E+01  0.36848301445E+01  0.38269767329E+02  0.39179445140E+02  0.00000000000E+00 0. -1.
         -5    1    3    3    0  503 -0.20914969423E+02  0.28109765602E+02  0.36236196362E+02  0.50623579437E+02  0.47000000000E+01 0.  1.
         11    1    4    4    0    0  0.19554998695E+02  0.98468418402E+01  0.20668050789E+03  0.20783693273E+03  0.00000000000E+00 0. -1.
        -12    1    4    4    0    0  0.13440420153E+03  0.12969135565E+03  0.53529363447E+03  0.56694233589E+03  0.00000000000E+00 0.  1.
<mgrwt>
<rscale>  2 0.27525620E+03</rscale>
<asrwt>0</asrwt>
<pdfrwt beam="1">  1       21 0.15450979E+00 0.27530918E+03</pdfrwt>
<pdfrwt beam="2">  1       21 0.18025732E-01 0.27530918E+03</pdfrwt>
<totfact> 0.73134512E+03</totfact>
</mgrwt>
</event>
<event>
12    1  0.1026879E-001  0.1786934E+03  0.7546771E-02  0.1169318E+00
         21   -1    0    0  503  502  0.00000000000E+00  0.00000000000E+00  0.28322818938E+03  0.28322818938E+03  0.00000000000E+00 0.  1.
         21   -1    0    0  501  503 -0.00000000000E+00 -0.00000000000E+00 -0.14158805111E+03  0.14158805111E+03  0.00000000000E+00 0.  1.
          6    2    1    2  501    0  0.38937622966E+02 -0.13248900219E+02 -0.25938685497E+02  0.18056623201E+03  0.17389559195E+03 0.  0.
         24    2    3    3    0    0 -0.40635778102E+01  0.30350075765E+02  0.35797531003E+02  0.93483372605E+02  0.80746752034E+02 0.  0.
         -6    2    1    2    0  502 -0.38937622966E+02  0.13248900219E+02  0.16757882377E+03  0.24425000848E+03  0.17286911994E+03 0.  0.
        -24    2    5    5    0    0  0.28387735136E+02  0.50313864153E+02  0.11302176079E+03  0.14988328492E+03  0.79710302061E+02 0.  0.
          5    1    3    3  501    0  0.43001200777E+02 -0.43598975984E+02 -0.61736216500E+02  0.87082859409E+02  0.47000000000E+01 0. -1.
        -11    1    4    4    0    0  0.31029420319E+02  0.39336923828E+02  0.19551188870E+02  0.53781664978E+02  0.00000000000E+00 0.  1.
         12    1    4    4    0    0 -0.35092998129E+02 -0.89868480625E+01  0.16246342133E+02  0.39701707627E+02  0.00000000000E+00 0. -1.
         -5    1    5    5    0  502 -0.67325358102E+02 -0.37064963934E+02  0.54557062979E+02  0.94366723562E+02  0.47000000000E+01 0.  1.
         11    1    6    6    0    0  0.46914140586E+02  0.31444359162E+02  0.32567346634E+02  0.65194450507E+02  0.00000000000E+00 0. -1.
        -12    1    6    6    0    0 -0.18526405450E+02  0.18869504991E+02  0.80454414153E+02  0.84688834413E+02  0.00000000000E+00 0.  1.
<mgrwt>
<rscale>  2 0.17844324E+03</rscale>
<asrwt>0</asrwt>
<pdfrwt beam="1">  1       21 0.43573568E-01 0.17869345E+03</pdfrwt>
<pdfrwt beam="2">  1       21 0.21782777E-01 0.17869345E+03</pdfrwt>
<totfact> 0.10008193E+05</totfact>
</mgrwt>
</event>
<event>
12    1  0.1026879E-001  0.2100528E+03  0.7546771E-02  0.1143336E+00
         21   -1    0    0  503  502  0.00000000000E+00  0.00000000000E+00  0.80560430406E+02  0.80560430406E+02  0.00000000000E+00 0.  1.
         21   -1    0    0  501  503 -0.00000000000E+00 -0.00000000000E+00 -0.74112459067E+03  0.74112459067E+03  0.00000000000E+00 0.  1.
          6    2    1    2  501    0  0.63467208593E+02 -0.10111896199E+03 -0.55738826891E+03  0.59565413876E+03  0.17282661734E+03 0.  0.
         24    2    3    3    0    0  0.30757019592E+02 -0.13434027840E+03 -0.48173173304E+03  0.50666192703E+03  0.75150123302E+02 0.  0.
         -6    2    1    2    0  502 -0.63467208593E+02  0.10111896199E+03 -0.10317589135E+03  0.22603088231E+03  0.16183808008E+03 0.  0.
        -24    2    5    5    0    0  0.17004616339E+02  0.81462703955E+02 -0.78134687443E+02  0.13936350102E+03  0.79948901938E+02 0.  0.
          5    1    3    3  501    0  0.32710189000E+02  0.33221316408E+02 -0.75656535876E+02  0.88992211733E+02  0.47000000000E+01 0. -1.
        -13    1    4    4    0    0  0.53842128608E+02 -0.70342517316E+02 -0.28924061120E+03  0.30250153011E+03  0.00000000000E+00 0.  1.
         14    1    4    4    0    0 -0.23085109016E+02 -0.63997761080E+02 -0.19249112184E+03  0.20416039692E+03  0.00000000000E+00 0. -1.
         -5    1    5    5    0  502 -0.80471824932E+02  0.19656258034E+02 -0.25041203905E+02  0.86667381296E+02  0.47000000000E+01 0.  1.
         11    1    6    6    0    0 -0.21201769697E+00  0.68117965270E+01 -0.60326789205E+02  0.60710518193E+02  0.00000000000E+00 0. -1.
        -12    1    6    6    0    0  0.17216634036E+02  0.74650907428E+02 -0.17807898238E+02  0.78652982823E+02  0.00000000000E+00 0.  1.
<mgrwt>
<rscale>  2 0.20778013E+03</rscale>
<asrwt>0</asrwt>
<pdfrwt beam="1">  1       21 0.12393913E-01 0.21005278E+03</pdfrwt>
<pdfrwt beam="2">  1       21 0.11401917E+00 0.21005278E+03</pdfrwt>
<totfact> 0.32827607E+04</totfact>
</mgrwt>
</event>
<event>
12    1  0.1026879E-001  0.1888000E+03  0.7546771E-02  0.1159566E+00
         21   -1    0    0  503  502  0.00000000000E+00  0.00000000000E+00  0.13026841595E+03  0.13026841595E+03  0.00000000000E+00 0.  1.
         21   -1    0    0  501  503 -0.00000000000E+00 -0.00000000000E+00 -0.27938246169E+03  0.27938246169E+03  0.00000000000E+00 0. -1.
          6    2    1    2  501    0 -0.70763462651E+01 -0.77538070460E+02 -0.10421960190E+03  0.21558660636E+03  0.17191169935E+03 0.  0.
         24    2    3    3    0    0  0.34789394127E+02 -0.41178988802E+01 -0.11912890254E+02  0.90343319795E+02  0.82418077158E+02 0.  0.
         -6    2    1    2    0  502  0.70763462651E+01  0.77538070460E+02 -0.44894443838E+02  0.19406427129E+03  0.17199768387E+03 0.  0.
        -24    2    5    5    0    0  0.45694322840E+02  0.10592731054E+03 -0.30701286893E+02  0.14385637578E+03  0.80271549003E+02 0.  0.
          5    1    3    3  501    0 -0.41865740392E+02 -0.73420171580E+02 -0.92306711648E+02  0.12524328656E+03  0.47000000000E+01 0. -1.
        -13    1    4    4    0    0  0.34951852583E+02 -0.26876186006E+02  0.22177648485E+02  0.49353920468E+02  0.00000000000E+00 0.  1.
         14    1    4    4    0    0 -0.16245845577E+00  0.22758287126E+02 -0.34090538739E+02  0.40989399327E+02  0.00000000000E+00 0. -1.
         -5    1    5    5    0  502 -0.38617976575E+02 -0.28389240076E+02 -0.14193156945E+02  0.50207895504E+02  0.47000000000E+01 0.  1.
         11    1    6    6    0    0  0.47917210313E+02  0.94298989031E+02 -0.53224561113E+02  0.11841119999E+03  0.00000000000E+00 0. -1.
        -12    1    6    6    0    0 -0.22228874728E+01  0.11628321505E+02  0.22523274220E+02  0.25445175797E+02  0.00000000000E+00 0.  1.
<mgrwt>
<rscale>  2 0.18878039E+03</rscale>
<asrwt>0</asrwt>
<pdfrwt beam="1">  1       21 0.20041295E-01 0.18879997E+03</pdfrwt>
<pdfrwt beam="2">  1       21 0.42981917E-01 0.18879997E+03</pdfrwt>
<totfact> 0.11985655E+05</totfact>
</mgrwt>
</event>
<event>
12    1  0.1026879E-001  0.1935253E+03  0.7546771E-02  0.1155763E+00
         21   -1    0    0  503  502  0.00000000000E+00  0.00000000000E+00  0.89422244406E+02  0.89422244406E+02  0.00000000000E+00 0. -1.
         21   -1    0    0  501  503 -0.00000000000E+00 -0.00000000000E+00 -0.50237389705E+03  0.50237389705E+03  0.00000000000E+00 0. -1.
          6    2    1    2  501    0 -0.44419744501E+00 -0.83599380523E+02 -0.33111805054E+03  0.38352469969E+03  0.17453646651E+03 0.  0.
         24    2    3    3    0    0  0.81486175955E+01  0.13755545438E+02 -0.22652571833E+03  0.24029947832E+03  0.78576861830E+02 0.  0.
         -6    2    1    2    0  502  0.44419744501E+00  0.83599380523E+02 -0.81833602097E+02  0.20827144176E+03  0.17231134985E+03 0.  0.
        -24    2    5    5    0    0 -0.55914773853E+02  0.79619202459E+02 -0.82690917759E+02  0.15157046776E+03  0.81670921880E+02 0.  0.
          5    1    3    3  501    0 -0.85928150405E+01 -0.97354925961E+02 -0.10459233221E+03  0.14322522137E+03  0.47000000000E+01 0. -1.
        -13    1    4    4    0    0 -0.32452842017E+02  0.18715017446E+02 -0.83075423581E+02  0.91131579796E+02  0.00000000000E+00 0.  1.
         14    1    4    4    0    0  0.40601459613E+02 -0.49594720073E+01 -0.14345029475E+03  0.14916789852E+03  0.00000000000E+00 0. -1.
         -5    1    5    5    0  502  0.56358971298E+02  0.39801780634E+01  0.85731566188E+00  0.56700974007E+02  0.47000000000E+01 0.  1.
         13    1    6    6    0    0 -0.38032375913E+02  0.22942545474E+02  0.59882705120E+01  0.44818315387E+02  0.00000000000E+00 0. -1.
        -14    1    6    6    0    0 -0.17882397940E+02  0.56676656986E+02 -0.88679188271E+02  0.10675215237E+03  0.00000000000E+00 0.  1.
<mgrwt>
<rscale>  2 0.19302222E+03</rscale>
<asrwt>0</asrwt>
<pdfrwt beam="1">  1       21 0.13757268E-01 0.19352527E+03</pdfrwt>
<pdfrwt beam="2">  1       21 0.77288292E-01 0.19352527E+03</pdfrwt>
<totfact> 0.68196556E+04</totfact>
</mgrwt>
</event>
<event>
12    1  0.1026879E-001  0.2131175E+03  0.7546771E-02  0.1139125E+00
         21   -1    0    0  503  502  0.00000000000E+00  0.00000000000E+00  0.26454153105E+03  0.26454153105E+03  0.00000000000E+00 0. -1.
         21   -1    0    0  501  503 -0.00000000000E+00 -0.00000000000E+00 -0.21996425148E+03  0.21996425148E+03  0.00000000000E+00 0. -1.
          6    2    1    2  501    0  0.40363060365E+02  0.11850150304E+03 -0.91221219903E+02  0.23181967814E+03  0.17247396716E+03 0.  0.
         24    2    3    3    0    0 -0.50090511037E+01  0.72613622725E+02  0.10972221890E+02  0.11086549010E+03  0.82903187179E+02 0.  0.
         -6    2    1    2    0  502 -0.40363060365E+02 -0.11850150304E+03  0.13579849948E+03  0.25268610439E+03  0.17244492463E+03 0.  0.
        -24    2    5    5    0    0 -0.54472355401E+02 -0.26057526012E+02  0.16018004305E+02  0.10065183813E+03  0.78917576576E+02 0.  0.
          5    1    3    3  501    0  0.45372111469E+02  0.45887880311E+02 -0.10219344179E+03  0.12095418804E+03  0.47000000000E+01 0. -1.
        -13    1    4    4    0    0 -0.37086730080E+02  0.17829889388E+02 -0.12771497050E+02  0.43086443814E+02  0.00000000000E+00 0.  1.
         14    1    4    4    0    0  0.32077678977E+02  0.54783733336E+02  0.23743718940E+02  0.67779046289E+02  0.00000000000E+00 0. -1.
         -5    1    5    5    0  502  0.14109295037E+02 -0.92443977023E+02  0.11978049517E+03  0.15203426626E+03  0.47000000000E+01 0.  1.
         11    1    6    6    0    0 -0.31243363882E+02 -0.39373101399E+02  0.40363174381E+02  0.64463747537E+02  0.00000000000E+00 0. -1.
        -12    1    6    6    0    0 -0.23228991519E+02  0.13315575387E+02 -0.24345170076E+02  0.36188090595E+02  0.00000000000E+00 0.  1.
<mgrwt>
<rscale>  2 0.21311159E+03</rscale>
<asrwt>0</asrwt>
<pdfrwt beam="1">  1       21 0.40698697E-01 0.21311746E+03</pdfrwt>
<pdfrwt beam="2">  1       21 0.33840654E-01 0.21311746E+03</pdfrwt>
<totfact> 0.48445966E+04</totfact>
</mgrwt>
</event>
<event>
12    1  0.1026879E-001  0.1931318E+03  0.7546771E-02  0.1156013E+00
         21   -1    0    0  501  502  0.00000000000E+00  0.00000000000E+00  0.16938431917E+03  0.16938431917E+03  0.00000000000E+00 0.  1.
         21   -1    0    0  502  503 -0.00000000000E+00 -0.00000000000E+00 -0.26189748686E+03  0.26189748686E+03  0.00000000000E+00 0.  1.
         -6    2    1    2    0  503  0.55597933688E+02  0.61985720914E+02 -0.13426373328E+03  0.23521615430E+03  0.17425994762E+03 0.  0.
        -24    2    3    3    0    0  0.97410770845E+02  0.29750032026E+02 -0.12645422963E+03  0.18163881454E+03  0.81412923252E+02 0.  0.
          6    2    1    2  501    0 -0.55597933688E+02 -0.61985720914E+02  0.41750565586E+02  0.19606565172E+03  0.17252614361E+03 0.  0.
         24    2    5    5    0    0 -0.67176219751E+02 -0.56183354100E+02 -0.31392519255E+02  0.12163632263E+03  0.78362560827E+02 0.  0.
          5    1    5    5  501    0  0.11578286063E+02 -0.58023668140E+01  0.73143084841E+02  0.74429329091E+02  0.47000000000E+01 0. -1.
        -11    1    6    6    0    0 -0.22338518995E+02 -0.67398297359E+02 -0.14804637984E+02  0.72530801895E+02  0.00000000000E+00 0.  1.
         12    1    6    6    0    0 -0.44837700756E+02  0.11214943259E+02 -0.16587881271E+02  0.49105520733E+02  0.00000000000E+00 0. -1.
         -5    1    3    3    0  503 -0.41812837157E+02  0.32235688888E+02 -0.78095036445E+01  0.53577339765E+02  0.47000000000E+01 0.  1.
         11    1    4    4    0    0  0.39713755229E+02  0.24829560925E+02 -0.50204982647E+01  0.47105146778E+02  0.00000000000E+00 0. -1.
        -12    1    4    4    0    0  0.57697015615E+02  0.49204711008E+01 -0.12143373137E+03  0.13453366776E+03  0.00000000000E+00 0.  1.
<mgrwt>
<rscale>  2 0.19273987E+03</rscale>
<asrwt>0</asrwt>
<pdfrwt beam="1">  1       21 0.26059126E-01 0.19313179E+03</pdfrwt>
<pdfrwt beam="2">  1       21 0.40291921E-01 0.19313179E+03</pdfrwt>
<totfact> 0.83034086E+04</totfact>
</mgrwt>
</event>
<event>
12    1  0.1026879E-001  0.2672277E+03  0.7546771E-02  0.1102950E+00
         21   -1    0    0  503  502  0.00000000000E+00  0.00000000000E+00  0.78322113437E+03  0.78322113437E+03  0.00000000000E+00 0.  1.
         21   -1    0    0  501  503 -0.00000000000E+00 -0.00000000000E+00 -0.38629732053E+03  0.38629732053E+03  0.00000000000E+00 0. -1.
          6    2    1    2  501    0  0.63424241560E+02  0.19293100621E+03 -0.31275518340E+03  0.41137141081E+03  0.17368254176E+03 0.  0.
         24    2    3    3    0    0  0.65868941881E+02  0.44550390112E+02 -0.69242144844E+02  0.12616363788E+03  0.69277226678E+02 0.  0.
         -6    2    1    2    0  502 -0.63424241560E+02 -0.19293100621E+03  0.70967899724E+03  0.75814704409E+03  0.17290938022E+03 0.  0.
        -24    2    5    5    0    0 -0.61798358817E+02 -0.20374423728E+03  0.51362242617E+03  0.56172953336E+03  0.80008253395E+02 0.  0.
          5    1    3    3  501    0 -0.24447003210E+01  0.14838061610E+03 -0.24351303856E+03  0.28520777293E+03  0.47000000000E+01 0. -1.
        -13    1    4    4    0    0  0.13242921866E+02 -0.16744258592E+02 -0.28714973326E+02  0.35781208315E+02  0.00000000000E+00 0.  1.
         14    1    4    4    0    0  0.52626020015E+02  0.61294648704E+02 -0.40527171518E+02  0.90382429563E+02  0.00000000000E+00 0. -1.
         -5    1    5    5    0  502 -0.16258827431E+01  0.10813231073E+02  0.19605657107E+03  0.19641751073E+03  0.47000000000E+01 0.  1.
         13    1    6    6    0    0 -0.19229990526E+02 -0.14490226218E+02  0.19800753920E+02  0.31174172760E+02  0.00000000000E+00 0. -1.
        -14    1    6    6    0    0 -0.42568368292E+02 -0.18925401107E+03  0.49382167225E+03  0.53055536060E+03  0.00000000000E+00 0.  1.
<mgrwt>
<rscale>  2 0.26710213E+03</rscale>
<asrwt>0</asrwt>
<pdfrwt beam="1">  1       21 0.12049556E+00 0.26722768E+03</pdfrwt>
<pdfrwt beam="2">  1       21 0.59430357E-01 0.26722768E+03</pdfrwt>
<totfact> 0.12980934E+03</totfact>
</mgrwt>
</event>
<event>
12    1  0.1026879E-001  0.1740126E+03  0.7546771E-02  0.1173892E+00
         21   -1    0    0  501  502  0.00000000000E+00  0.00000000000E+00  0.55047258027E+03  0.55047258027E+03  0.00000000000E+00 0. -1.
         21   -1    0    0  502  503 -0.00000000000E+00 -0.00000000000E+00 -0.62990281220E+02  0.62990281220E+02  0.00000000000E+00 0. -1.
         -6    2    1    2    0  503 -0.13708388855E+01 -0.99331747565E+01  0.35472858454E+03  0.39511106704E+03  0.17372345681E+03 0.  0.
        -24    2    3    3    0    0  0.54290669263E+02 -0.45911697924E+02  0.20727045265E+03  0.23337471281E+03  0.80295424919E+02 0.  0.
          6    2    1    2  501    0  0.13708388855E+01  0.99331747565E+01  0.13275371451E+03  0.21835179445E+03  0.17307053551E+03 0.  0.
         24    2    5    5    0    0 -0.59483364702E+02  0.39993015614E+02  0.79967299608E+02  0.13223952050E+03  0.77167414116E+02 0.  0.
          5    1    5    5  501    0  0.60854203587E+02 -0.30059840857E+02  0.52786414902E+02  0.86112273950E+02  0.47000000000E+01 0. -1.
        -13    1    6    6    0    0  0.15847183995E+02 -0.10829947452E+01  0.27235991762E+02  0.31529436491E+02  0.00000000000E+00 0.  1.
         14    1    6    6    0    0 -0.75330548697E+02  0.41076010359E+02  0.52731307846E+02  0.10071008401E+03  0.00000000000E+00 0. -1.
         -5    1    3    3    0  503 -0.55661508148E+02  0.35978523167E+02  0.14745813189E+03  0.16173635423E+03  0.47000000000E+01 0.  1.
         11    1    4    4    0    0  0.65247761549E+02 -0.13683222120E+02  0.17147086195E+03  0.18397488267E+03  0.00000000000E+00 0. -1.
        -12    1    4    4    0    0 -0.10957092286E+02 -0.32228475804E+02  0.35799590703E+02  0.49399830147E+02  0.00000000000E+00 0.  1.
<mgrwt>
<rscale>  2 0.17384942E+03</rscale>
<asrwt>0</asrwt>
<pdfrwt beam="1">  1       21 0.84688086E-01 0.17401260E+03</pdfrwt>
<pdfrwt beam="2">  1       21 0.96908129E-02 0.17401260E+03</pdfrwt>
<totfact> 0.10441072E+05</totfact>
</mgrwt>
</event>
<event>
12    1  0.1026879E-001  0.1915059E+03  0.7546771E-02  0.1157772E+00
         21   -1    0    0  503  502  0.00000000000E+00  0.00000000000E+00  0.69442902191E+03  0.69442902191E+03  0.00000000000E+00 0.  1.
         21   -1    0    0  501  503 -0.00000000000E+00 -0.00000000000E+00 -0.65531075763E+02  0.65531075763E+02  0.00000000000E+00 0. -1.
          6    2    1    2  501    0 -0.63177414903E+02  0.45042016246E+02  0.13988896117E+03  0.23478936011E+03  0.17186318158E+03 0.  0.
         24    2    3    3    0    0 -0.19766871714E+02 -0.40461587961E+02  0.73396231015E+02  0.11800445203E+03  0.80685653331E+02 0.  0.
         -6    2    1    2    0  502  0.63177414903E+02 -0.45042016246E+02  0.48900898497E+03  0.52517073756E+03  0.17508382913E+03 0.  0.
        -24    2    5    5    0    0  0.74108820667E+02 -0.29076102085E+02  0.49269881149E+03  0.50491954336E+03  0.76512021307E+02 0.  0.
          5    1    3    3  501    0 -0.43410543189E+02  0.85503604207E+02  0.66492730156E+02  0.11678490808E+03  0.47000000000E+01 0. -1.
        -13    1    4    4    0    0  0.20784350749E+02 -0.13693032865E+02  0.63790752632E+02  0.68474436884E+02  0.00000000000E+00 0.  1.
         14    1    4    4    0    0 -0.40551222463E+02 -0.26768555096E+02  0.96054783822E+01  0.49530015144E+02  0.00000000000E+00 0. -1.
         -5    1    5    5    0  502 -0.10931405763E+02 -0.15965914161E+02 -0.36898265185E+01  0.20251194204E+02  0.47000000000E+01 0.  1.
         13    1    6    6    0    0  0.81778163700E+02 -0.44308483061E+02  0.40067218332E+03  0.41132603640E+03  0.00000000000E+00 0. -1.
        -14    1    6    6    0    0 -0.76693430335E+01  0.15232380976E+02  0.92026628167E+02  0.93593506957E+02  0.00000000000E+00 0.  1.
<mgrwt>
<rscale>  2 0.19076666E+03</rscale>
<asrwt>0</asrwt>
<pdfrwt beam="1">  1       21 0.10683523E+00 0.19150592E+03</pdfrwt>
<pdfrwt beam="2">  1       21 0.10081704E-01 0.19150592E+03</pdfrwt>
<totfact> 0.56087707E+04</totfact>
</mgrwt>
</event>
<event>
12    1  0.1026879E-001  0.3678761E+03  0.7546771E-02  0.1055580E+00
         21   -1    0    0  503  502  0.00000000000E+00  0.00000000000E+00  0.32485747732E+03  0.32485747732E+03  0.00000000000E+00 0. -1.
         21   -1    0    0  501  503 -0.00000000000E+00 -0.00000000000E+00 -0.42587542876E+03  0.42587542876E+03  0.00000000000E+00 0.  1.
          6    2    1    2  501    0  0.42125593862E+02  0.32119509664E+03  0.73249836810E+01  0.36794903933E+03  0.17433296992E+03 0.  0.
         24    2    3    3    0    0  0.49936292504E+02  0.27272108204E+03 -0.50188097242E+02  0.29218241355E+03  0.77338837529E+02 0.  0.
         -6    2    1    2    0  502 -0.42125593862E+02 -0.32119509664E+03 -0.10834293512E+03  0.38278386675E+03  0.17275543782E+03 0.  0.
        -24    2    5    5    0    0 -0.43318999622E+02 -0.18675692209E+03  0.61725676815E+01  0.20611769179E+03  0.75443479524E+02 0.  0.
          5    1    3    3  501    0 -0.78106986411E+01  0.48474014601E+02  0.57513080923E+02  0.75766625779E+02  0.47000000000E+01 0. -1.
        -11    1    4    4    0    0  0.70782262614E+02  0.20671942235E+03 -0.41747159385E+02  0.22245420561E+03  0.00000000000E+00 0.  1.
         12    1    4    4    0    0 -0.20845970111E+02  0.66001659683E+02 -0.84409378567E+01  0.69728207941E+02  0.00000000000E+00 0. -1.
         -5    1    5    5    0  502  0.11934057593E+01 -0.13443817455E+03 -0.11451550280E+03  0.17666617496E+03  0.47000000000E+01 0.  1.
         11    1    6    6    0    0 -0.11428919226E+02 -0.16827497702E+03  0.10592760135E+02  0.16899495452E+03  0.00000000000E+00 0. -1.
        -12    1    6    6    0    0 -0.31890080396E+02 -0.18481945060E+02 -0.44201924538E+01  0.37122737267E+02  0.00000000000E+00 0.  1.
<mgrwt>
<rscale>  2 0.36768974E+03</rscale>
<asrwt>0</asrwt>
<pdfrwt beam="1">  1       21 0.49978074E-01 0.36787612E+03</pdfrwt>
<pdfrwt beam="2">  1       21 0.65519297E-01 0.36787612E+03</pdfrwt>
<totfact> 0.74509701E+03</totfact>
</mgrwt>
</event>
<event>
12    1  0.1026879E-001  0.2586536E+03  0.7546771E-02  0.1108124E+00
         21   -1    0    0  501  502  0.00000000000E+00  0.00000000000E+00  0.22382515983E+03  0.22382515983E+03  0.00000000000E+00 0.  1.
         21   -1    0    0  502  503 -0.00000000000E+00 -0.00000000000E+00 -0.41849358874E+03  0.41849358874E+03  0.00000000000E+00 0.  1.
         -6    2    1    2    0  503  0.14465504060E+03  0.12438650445E+03 -0.27009162750E+03  0.37396681596E+03  0.17465568680E+03 0.  0.
        -24    2    3    3    0    0  0.45861261667E+02  0.63969902536E+02 -0.21999689921E+03  0.24770538738E+03  0.82243051541E+02 0.  0.
          6    2    1    2  501    0 -0.14465504060E+03 -0.12438650445E+03  0.75423198588E+02  0.26835193261E+03  0.17299427040E+03 0.  0.
         24    2    5    5    0    0 -0.11052993538E+03 -0.11222372317E+03  0.11778850411E+03  0.21241120356E+03  0.80208210559E+02 0.  0.
          5    1    5    5  501    0 -0.34125105217E+02 -0.12162781277E+02 -0.42365305521E+02  0.55940729048E+02  0.47000000000E+01 0. -1.
        -13    1    6    6    0    0 -0.77092283501E+01 -0.60674604559E+02  0.49191265040E+02  0.78489619673E+02  0.00000000000E+00 0.  1.
         14    1    6    6    0    0 -0.10282070703E+03 -0.51549118616E+02  0.68597239069E+02  0.13392158389E+03  0.00000000000E+00 0. -1.
         -5    1    3    3    0  503  0.98793778929E+02  0.60416601917E+02 -0.50094728292E+02  0.12626142857E+03  0.47000000000E+01 0.  1.
         11    1    4    4    0    0  0.29259672421E+01  0.87143859852E+01  0.60968163894E+01  0.11030547470E+02  0.00000000000E+00 0. -1.
        -12    1    4    4    0    0  0.42935294425E+02  0.55255516550E+02 -0.22609371560E+03  0.23667483991E+03  0.00000000000E+00 0.  1.
<mgrwt>
<rscale>  2 0.25837342E+03</rscale>
<asrwt>0</asrwt>
<pdfrwt beam="1">  1       21 0.34434640E-01 0.25865361E+03</pdfrwt>
<pdfrwt beam="2">  1       21 0.64383629E-01 0.25865361E+03</pdfrwt>
<totfact> 0.17438150E+04</totfact>
</mgrwt>
</event>
<event>
12    1  0.1026879E-001  0.2035938E+03  0.7546771E-02  0.1146762E+00
         21   -1    0    0  501  502  0.00000000000E+00  0.00000000000E+00  0.17726467953E+04  0.17726467953E+04  0.00000000000E+00 0.  1.
         21   -1    0    0  502  503 -0.00000000000E+00 -0.00000000000E+00 -0.33038124718E+02  0.33038124718E+02  0.00000000000E+00 0. -1.
         -6    2    1    2    0  503  0.72708040694E+02  0.80095899872E+02  0.38131109142E+03  0.43221386593E+03  0.17236259775E+03 0.  0.
        -24    2    3    3    0    0  0.10434251288E+03  0.21786946327E+02  0.23865296471E+03  0.27481594659E+03  0.84891318241E+02 0.  0.
          6    2    1    2  501    0 -0.72708040694E+02 -0.80095899872E+02  0.13582975792E+04  0.13734710541E+04  0.17247785512E+03 0.  0.
         24    2    5    5    0    0 -0.66279058318E+02 -0.10686935556E+03  0.13022996963E+04  0.13108930817E+04  0.81499692722E+02 0.  0.
          5    1    5    5  501    0 -0.64289823758E+01  0.26773455691E+02  0.55997882834E+02  0.62577972370E+02  0.47000000000E+01 0. -1.
        -13    1    6    6    0    0 -0.13528002621E+02  0.93493126308E+01  0.30751664462E+03  0.30795600858E+03  0.00000000000E+00 0.  1.
         14    1    6    6    0    0 -0.52751055697E+02 -0.11621866819E+03  0.99478305171E+03  0.10029370731E+04  0.00000000000E+00 0. -1.
         -5    1    3    3    0  503 -0.31634472191E+02  0.58308953545E+02  0.14265812672E+03  0.15739791934E+03  0.47000000000E+01 0.  1.
         13    1    4    4    0    0  0.71868531239E+02  0.45736228747E+02  0.10503114176E+03  0.13523471870E+03  0.00000000000E+00 0. -1.
        -14    1    4    4    0    0  0.32473981646E+02 -0.23949282419E+02  0.13362182295E+03  0.13958122789E+03  0.00000000000E+00 0.  1.
<mgrwt>
<rscale>  2 0.20356936E+03</rscale>
<asrwt>0</asrwt>
<pdfrwt beam="1">  1       21 0.27271482E+00 0.20359377E+03</pdfrwt>
<pdfrwt beam="2">  1       21 0.50827898E-02 0.20359377E+03</pdfrwt>
<totfact> 0.12690955E+04</totfact>
</mgrwt>
</event>
<event>
12    1  0.1026879E-001  0.1806295E+03  0.7546771E-02  0.1167404E+00
         21   -1    0    0  501  502  0.00000000000E+00  0.00000000000E+00  0.54586653200E+02  0.54586653200E+02  0.00000000000E+00 0.  1.
         21   -1    0    0  502  503 -0.00000000000E+00 -0.00000000000E+00 -0.60052638544E+03  0.60052638544E+03  0.00000000000E+00 0.  1.
         -6    2    1    2    0  503 -0.23070486436E+02  0.47362168286E+02 -0.30546063732E+03  0.35487072378E+03  0.17277617694E+03 0.  0.
        -24    2    3    3    0    0  0.36769714868E+02  0.76986464078E+01 -0.24648673337E+03  0.26184354492E+03  0.79969064018E+02 0.  0.
          6    2    1    2  501    0  0.23070486436E+02 -0.47362168286E+02 -0.24047909493E+03  0.30024231487E+03  0.17187155148E+03 0.  0.
         24    2    5    5    0    0  0.48453379715E+02 -0.99182031592E+01 -0.57547144944E+02  0.11174157184E+03  0.82026850644E+02 0.  0.
          5    1    5    5  501    0 -0.25382893279E+02 -0.37443965127E+02 -0.18293194998E+03  0.18850074302E+03  0.47000000000E+01 0. -1.
        -13    1    6    6    0    0  0.21433337512E+01 -0.34688828918E+02 -0.12883133816E+01  0.34778851083E+02  0.00000000000E+00 0.  1.
         14    1    6    6    0    0  0.46310045964E+02  0.24770625759E+02 -0.56258831562E+02  0.76962720757E+02  0.00000000000E+00 0. -1.
         -5    1    3    3    0  503 -0.59840201304E+02  0.39663521879E+02 -0.58973903943E+02  0.93027178858E+02  0.47000000000E+01 0.  1.
         13    1    4    4    0    0 -0.86922449245E+01 -0.27535682586E+02 -0.58228132048E+02  0.64994494375E+02  0.00000000000E+00 0. -1.
        -14    1    4    4    0    0  0.45461959793E+02  0.35234328994E+02 -0.18825860132E+03  0.19684905054E+03  0.00000000000E+00 0.  1.
<mgrwt>
<rscale>  2 0.18041287E+03</rscale>
<asrwt>0</asrwt>
<pdfrwt beam="1">  1       21 0.83979468E-02 0.18062954E+03</pdfrwt>
<pdfrwt beam="2">  1       21 0.92388673E-01 0.18062954E+03</pdfrwt>
<totfact> 0.10952438E+05</totfact>
</mgrwt>
</event>
<event>
11    1  0.1026879E-001  0.3020292E+03  0.7546771E-02  0.1084343E+00
         21   -1    0    0  501  502  0.00000000000E+00  0.00000000000E+00  0.21703712701E+04  0.21703712701E+04  0.00000000000E+00 0. -1.
         21   -1    0    0  502  503 -0.00000000000E+00 -0.00000000000E+00 -0.47257407032E+02  0.47257407032E+02  0.00000000000E+00 0. -1.
         -6    2    1    2    0  503 -0.24685554067E+03  0.11766822535E+02  0.14333260388E+04  0.14646154765E+04  0.17204314731E+03 0.  0.
        -24    2    3    3    0    0 -0.47242002863E+02 -0.30307123897E+02  0.46343977062E+03  0.47349628863E+03  0.79195869560E+02 0.  0.
          6    2    1    2  501    0  0.24685554067E+03 -0.11766822535E+02  0.68978782431E+03  0.75301320064E+03  0.17362465751E+03 0.  0.
          5    1    5    5  501    0  0.25837331860E+03 -0.38985606724E+02  0.56492373707E+03  0.62244483129E+03  0.47000000000E+01 0. -1.
        -13    1    5    5    0    0  0.30440626761E+01  0.22220939578E+02  0.65193651311E+02  0.68943807877E+02  0.00000000000E+00 0.  1.
         14    1    5    5    0    0 -0.14561840602E+02  0.49978446114E+01  0.59670435933E+02  0.61624561475E+02  0.00000000000E+00 0. -1.
         -5    1    3    3    0  503 -0.19961353781E+03  0.42073946432E+02  0.96988626818E+03  0.99111918792E+03  0.47000000000E+01 0.  1.
         13    1    4    4    0    0 -0.59263401321E+02 -0.28297000784E+02  0.21615112936E+03  0.22590746272E+03  0.00000000000E+00 0. -1.
        -14    1    4    4    0    0  0.12021398458E+02 -0.20101231128E+01  0.24728864126E+03  0.24758882591E+03  0.00000000000E+00 0.  1.
<mgrwt>
<rscale>  2 0.30180235E+03</rscale>
<asrwt>0</asrwt>
<pdfrwt beam="1">  1       21 0.33390319E+00 0.30202920E+03</pdfrwt>
<pdfrwt beam="2">  1       21 0.72703720E-02 0.30202920E+03</pdfrwt>
<totfact> 0.27517723E+03</totfact>
</mgrwt>
</event>
<event>
12    1  0.1026879E-001  0.1939501E+03  0.7546771E-02  0.1155206E+00
         21   -1    0    0  503  502  0.00000000000E+00  0.00000000000E+00  0.33550558462E+03  0.33550558462E+03  0.00000000000E+00 0.  1.
         21   -1    0    0  501  503 -0.00000000000E+00 -0.00000000000E+00 -0.16343578112E+03  0.16343578112E+03  0.00000000000E+00 0.  1.
          6    2    1    2  501    0  0.59185242580E+02  0.64026934629E+02 -0.54500579779E+02  0.20146201660E+03  0.17324632648E+03 0.  0.
         24    2    3    3    0    0  0.32178529588E+02 -0.23672229773E+02 -0.68817718297E+02  0.10846967047E+03  0.73715390738E+02 0.  0.
         -6    2    1    2    0  502 -0.59185242580E+02 -0.64026934629E+02  0.22657038328E+03  0.29747934915E+03  0.17192289927E+03 0.  0.
        -24    2    5    5    0    0  0.25860569049E+01 -0.21627644278E+02  0.31815096804E+02  0.88756794370E+02  0.79944514977E+02 0.  0.
          5    1    3    3  501    0  0.27006712992E+02  0.87699164402E+02  0.14317138517E+02  0.92992346130E+02  0.47000000000E+01 0. -1.
        -11    1    4    4    0    0  0.38100676939E+02 -0.18589661754E+02 -0.82479068638E+02  0.92736367573E+02  0.00000000000E+00 0.  1.
         12    1    4    4    0    0 -0.59221473513E+01 -0.50825680194E+01  0.13661350341E+02  0.15733302898E+02  0.00000000000E+00 0. -1.
         -5    1    5    5    0  502 -0.61771299485E+02 -0.42399290351E+02  0.19475528647E+03  0.20872255478E+03  0.47000000000E+01 0.  1.
         11    1    6    6    0    0 -0.33674086947E+02 -0.39054952588E+01 -0.48312292489E+01  0.34242339304E+02  0.00000000000E+00 0. -1.
        -12    1    6    6    0    0  0.36260143852E+02 -0.17722149020E+02  0.36646326053E+02  0.54514455067E+02  0.00000000000E+00 0.  1.
<mgrwt>
<rscale>  2 0.19365409E+03</rscale>
<asrwt>0</asrwt>
<pdfrwt beam="1">  1       21 0.51616243E-01 0.19395007E+03</pdfrwt>
<pdfrwt beam="2">  1       21 0.25143967E-01 0.19395007E+03</pdfrwt>
<totfact> 0.53383821E+04</totfact>
</mgrwt>
</event>
<event>
12    1  0.1026879E-001  0.1842529E+03  0.7546771E-02  0.1163893E+00
         21   -1    0    0  501  502  0.00000000000E+00  0.00000000000E+00  0.13668736277E+03  0.13668736277E+03  0.00000000000E+00 0.  1.
         21   -1    0    0  502  503 -0.00000000000E+00 -0.00000000000E+00 -0.64803554247E+03  0.64803554247E+03  0.00000000000E+00 0.  1.
         -6    2    1    2    0  503 -0.99531056720E+01  0.61464168179E+02 -0.56428417122E+03  0.59360403897E+03  0.17341343923E+03 0.  0.
        -24    2    3    3    0    0  0.61814030024E+01 -0.33557543452E+02 -0.29756484573E+03  0.30996564833E+03  0.79809443472E+02 0.  0.
          6    2    1    2  501    0  0.99531056720E+01 -0.61464168179E+02  0.52935991525E+02  0.19111886627E+03  0.17276369284E+03 0.  0.
         24    2    5    5    0    0  0.31582011662E+02 -0.55870519265E+02  0.97535187900E+02  0.14101620367E+03  0.79079190916E+02 0.  0.
          5    1    5    5  501    0 -0.21628905990E+02 -0.55936489139E+01 -0.44599196375E+02  0.50102662602E+02  0.47000000000E+01 0. -1.
        -11    1    6    6    0    0  0.18728821334E+02 -0.13407467869E+02  0.93694995339E+02  0.96484615846E+02  0.00000000000E+00 0.  1.
         12    1    6    6    0    0  0.12853190327E+02 -0.42463051396E+02  0.38401925602E+01  0.44531587827E+02  0.00000000000E+00 0. -1.
         -5    1    3    3    0  503 -0.16134508674E+02  0.95021711631E+02 -0.26671932549E+03  0.28363839063E+03  0.47000000000E+01 0.  1.
         11    1    4    4    0    0  0.11672879314E+02  0.18656796402E+02 -0.29482941723E+02  0.36790977374E+02  0.00000000000E+00 0. -1.
        -12    1    4    4    0    0 -0.54914763116E+01 -0.52214339854E+02 -0.26808190401E+03  0.27317467096E+03  0.00000000000E+00 0.  1.
<mgrwt>
<rscale>  2 0.18409986E+03</rscale>
<asrwt>0</asrwt>
<pdfrwt beam="1">  1       21 0.21028824E-01 0.18425289E+03</pdfrwt>
<pdfrwt beam="2">  1       21 0.99697780E-01 0.18425289E+03</pdfrwt>
<totfact> 0.17468380E+04</totfact>
</mgrwt>
</event>
<event>
12    1  0.1026879E-001  0.1844460E+03  0.7546771E-02  0.1163800E+00
         21   -1    0    0  501  502  0.00000000000E+00  0.00000000000E+00  0.22327966841E+03  0.22327966841E+03  0.00000000000E+00 0.  1.
         21   -1    0    0  502  503 -0.00000000000E+00 -0.00000000000E+00 -0.36984844905E+03  0.36984844905E+03  0.00000000000E+00 0.  1.
         -6    2    1    2    0  503  0.34383407525E+02 -0.51408069863E+02 -0.30120325120E+03  0.35319079374E+03  0.17376803471E+03 0.  0.
        -24    2    3    3    0    0  0.38708489919E+02 -0.22118356796E+02 -0.59361464850E+02  0.10949809123E+03  0.80489002820E+02 0.  0.
          6    2    1    2  501    0 -0.34383407525E+02  0.51408069863E+02  0.15463447057E+03  0.23993732372E+03  0.17272258529E+03 0.  0.
         24    2    5    5    0    0  0.55558136386E+01  0.60801083258E+02  0.16886308231E+03  0.19625765477E+03  0.79212926318E+02 0.  0.
          5    1    5    5  501    0 -0.39939221164E+02 -0.93930133956E+01 -0.14228611747E+02  0.43679668956E+02  0.47000000000E+01 0. -1.
        -11    1    6    6    0    0 -0.13669432751E+02  0.85235113970E+01  0.12315367520E+03  0.12420278320E+03  0.00000000000E+00 0.  1.
         12    1    6    6    0    0  0.19225246390E+02  0.52277571862E+02  0.45709407111E+02  0.72054871570E+02  0.00000000000E+00 0. -1.
         -5    1    3    3    0  503 -0.43250823938E+01 -0.29289713067E+02 -0.24184178635E+03  0.24369270251E+03  0.47000000000E+01 0.  1.
         11    1    4    4    0    0 -0.15218457316E+02 -0.43230554842E+01  0.10859309137E+02  0.19188925106E+02  0.00000000000E+00 0. -1.
        -12    1    4    4    0    0  0.53926947235E+02 -0.17795301311E+02 -0.70220773987E+02  0.90309166125E+02  0.00000000000E+00 0.  1.
<mgrwt>
<rscale>  2 0.18419939E+03</rscale>
<asrwt>0</asrwt>
<pdfrwt beam="1">  1       21 0.34350718E-01 0.18444603E+03</pdfrwt>
<pdfrwt beam="2">  1       21 0.56899762E-01 0.18444603E+03</pdfrwt>
<totfact> 0.23814925E+04</totfact>
</mgrwt>
</event>
<event>
12    1  0.1026879E-001  0.2239667E+03  0.7546771E-02  0.1131017E+00
         21   -1    0    0  501  502  0.00000000000E+00  0.00000000000E+00  0.12110361041E+03  0.12110361041E+03  0.00000000000E+00 0.  1.
         21   -1    0    0  502  503 -0.00000000000E+00 -0.00000000000E+00 -0.42433087209E+03  0.42433087209E+03  0.00000000000E+00 0. -1.
         -6    2    1    2    0  503 -0.64735166120E+02  0.12733900130E+03 -0.10817845262E+03  0.24844101287E+03  0.17208862915E+03 0.  0.
        -24    2    3    3    0    0 -0.73295005128E+02  0.12563138193E+03 -0.28816290692E+02  0.16846208094E+03  0.79960566544E+02 0.  0.
          6    2    1    2  501    0  0.64735166120E+02 -0.12733900130E+03 -0.19504880906E+03  0.29699346962E+03  0.17249701474E+03 0.  0.
         24    2    5    5    0    0  0.10684146805E+03 -0.10476598010E+03 -0.15120499412E+03  0.23197922458E+03  0.92522432478E+02 0.  0.
          5    1    5    5  501    0 -0.42106301930E+02 -0.22573021202E+02 -0.43843814941E+02  0.65014245031E+02  0.47000000000E+01 0. -1.
        -11    1    6    6    0    0  0.57128577514E+02 -0.79899167339E+02 -0.36989676278E+02  0.10495612160E+03  0.00000000000E+00 0.  1.
         12    1    6    6    0    0  0.49712890535E+02 -0.24866812757E+02 -0.11421531784E+03  0.12702310298E+03  0.00000000000E+00 0. -1.
         -5    1    3    3    0  503  0.85598390083E+01  0.17076193646E+01 -0.79362161928E+02  0.79978931936E+02  0.47000000000E+01 0.  1.
         13    1    4    4    0    0 -0.17682683811E+02  0.22241026601E+02 -0.41591976881E+02  0.50370955042E+02  0.00000000000E+00 0. -1.
        -14    1    4    4    0    0 -0.55612321317E+02  0.10339035533E+03  0.12775686189E+02  0.11809112590E+03  0.00000000000E+00 0.  1.
<mgrwt>
<rscale>  2 0.22388806E+03</rscale>
<asrwt>0</asrwt>
<pdfrwt beam="1">  1       21 0.18631325E-01 0.22396670E+03</pdfrwt>
<pdfrwt beam="2">  1       21 0.65281672E-01 0.22396670E+03</pdfrwt>
<totfact> 0.56052359E+04</totfact>
</mgrwt>
</event>
<event>
12    1  0.1026879E-001  0.2258849E+03  0.7546771E-02  0.1129695E+00
         21   -1    0    0  501  502  0.00000000000E+00  0.00000000000E+00  0.38260189168E+03  0.38260189168E+03  0.00000000000E+00 0.  1.
         21   -1    0    0  502  503 -0.00000000000E+00 -0.00000000000E+00 -0.14059914516E+03  0.14059914516E+03  0.00000000000E+00 0.  1.
         -6    2    1    2    0  503 -0.12458943402E+03 -0.73764768762E+02  0.60171073442E+02  0.23376169675E+03  0.17337878939E+03 0.  0.
        -24    2    3    3    0    0 -0.58731217275E+01 -0.43588156795E+02  0.63322124505E+02  0.11113947268E+03  0.80049172163E+02 0.  0.
          6    2    1    2  501    0  0.12458943402E+03  0.73764768762E+02  0.18183167308E+03  0.28943934009E+03  0.17247784228E+03 0.  0.
         24    2    5    5    0    0  0.68694199275E+02  0.80156475723E+02  0.19132350533E+03  0.23219149241E+03  0.78512749532E+02 0.  0.
          5    1    5    5  501    0  0.55895234742E+02 -0.63917069612E+01 -0.94918322535E+01  0.57247847683E+02  0.47000000000E+01 0. -1.
        -13    1    6    6    0    0  0.39105357661E+02 -0.40998010996E+01  0.37553892133E+02  0.54372163661E+02  0.00000000000E+00 0.  1.
         14    1    6    6    0    0  0.29588841614E+02  0.84256276823E+02  0.15376961320E+03  0.17781932875E+03  0.00000000000E+00 0. -1.
         -5    1    3    3    0  503 -0.11871631229E+03 -0.30176611966E+02 -0.31510510626E+01  0.12262222407E+03  0.47000000000E+01 0.  1.
         11    1    4    4    0    0  0.36174277428E+02 -0.10204554199E+02  0.28092455515E+02  0.46924378853E+02  0.00000000000E+00 0. -1.
        -12    1    4    4    0    0 -0.42047399156E+02 -0.33383602596E+02  0.35229668989E+02  0.64215093827E+02  0.00000000000E+00 0.  1.
<mgrwt>
<rscale>  2 0.22571197E+03</rscale>
<asrwt>0</asrwt>
<pdfrwt beam="1">  1       21 0.58861829E-01 0.22588487E+03</pdfrwt>
<pdfrwt beam="2">  1       21 0.21630638E-01 0.22588487E+03</pdfrwt>
<totfact> 0.52979616E+04</totfact>
</mgrwt>
</event>
<event>
12    1  0.1026879E-001  0.1765963E+03  0.7546771E-02  0.1171967E+00
         21   -1    0    0  501  502  0.00000000000E+00  0.00000000000E+00  0.71021353326E+02  0.71021353326E+02  0.00000000000E+00 0.  1.
         21   -1    0    0  502  503 -0.00000000000E+00 -0.00000000000E+00 -0.53238382701E+03  0.53238382701E+03  0.00000000000E+00 0.  1.
         -6    2    1    2    0  503  0.10960336081E+02 -0.39787024563E+01 -0.36414788670E+03  0.40470968012E+03  0.17621090420E+03 0.  0.
        -24    2    3    3    0    0  0.13262728100E+01 -0.68913871322E+02 -0.26993731346E+03  0.28978747409E+03  0.79748017399E+02 0.  0.
          6    2    1    2  501    0 -0.10960336081E+02  0.39787024563E+01 -0.97214586983E+02  0.19869550021E+03  0.17289669413E+03 0.  0.
         24    2    5    5    0    0 -0.33537467312E+02  0.35883933816E+02 -0.12056871454E+03  0.15292240859E+03  0.80224869600E+02 0.  0.
          5    1    5    5  501    0  0.22577131231E+02 -0.31905231359E+02  0.23354127557E+02  0.45773091622E+02  0.47000000000E+01 0. -1.
        -13    1    6    6    0    0 -0.19878386350E+02  0.52901231776E+02 -0.39450493803E+02  0.68920476120E+02  0.00000000000E+00 0.  1.
         14    1    6    6    0    0 -0.13659080961E+02 -0.17017297960E+02 -0.81118220738E+02  0.84001932468E+02  0.00000000000E+00 0. -1.
         -5    1    3    3    0  503  0.96340632710E+01  0.64935168866E+02 -0.94210573235E+02  0.11492220604E+03  0.47000000000E+01 0.  1.
         13    1    4    4    0    0  0.63079851222E+01 -0.63594643106E+02 -0.93809756090E+02  0.11350920511E+03  0.00000000000E+00 0. -1.
        -14    1    4    4    0    0 -0.49817123122E+01 -0.53192282159E+01 -0.17612755737E+03  0.17627826897E+03  0.00000000000E+00 0.  1.
<mgrwt>
<rscale>  2 0.17576369E+03</rscale>
<asrwt>0</asrwt>
<pdfrwt beam="1">  1       21 0.10926362E-01 0.17659627E+03</pdfrwt>
<pdfrwt beam="2">  1       21 0.81905204E-01 0.17659627E+03</pdfrwt>
<totfact> 0.91034796E+04</totfact>
</mgrwt>
</event>
<event>
12    1  0.1026879E-001  0.1975786E+03  0.7546771E-02  0.1151861E+00
         21   -1    0    0  501  502  0.00000000000E+00  0.00000000000E+00  0.87189380647E+02  0.87189380647E+02  0.00000000000E+00 0.  1.
         21   -1    0    0  502  503 -0.00000000000E+00 -0.00000000000E+00 -0.14651595211E+04  0.14651595211E+04  0.00000000000E+00 0.  1.
         -6    2    1    2    0  503 -0.41733672640E+02 -0.84462440002E+02 -0.13358383787E+04  0.13503281271E+04  0.17333860988E+03 0.  0.
        -24    2    3    3    0    0  0.14721706643E+02 -0.57495224681E+02 -0.11462474422E+04  0.11506252134E+04  0.80825450274E+02 0.  0.
          6    2    1    2  501    0  0.41733672640E+02  0.84462440002E+02 -0.42131761784E+02  0.20202077466E+03  0.17367125508E+03 0.  0.
         24    2    5    5    0    0 -0.72136952283E+01  0.90071398350E+02  0.12796619040E+02  0.12808484121E+03  0.89872570283E+02 0.  0.
          5    1    5    5  501    0  0.48947367869E+02 -0.56089583483E+01 -0.54928380824E+02  0.73935933449E+02  0.47000000000E+01 0. -1.
        -13    1    6    6    0    0 -0.12706935074E+02  0.54172962130E+01  0.37307467276E+02  0.39782664714E+02  0.00000000000E+00 0.  1.
         14    1    6    6    0    0  0.54932398453E+01  0.84654102137E+02 -0.24510848236E+02  0.88302176495E+02  0.00000000000E+00 0. -1.
         -5    1    3    3    0  503 -0.56455379284E+02 -0.26967215320E+02 -0.18959093651E+03  0.19970291374E+03  0.47000000000E+01 0.  1.
         11    1    4    4    0    0  0.39910405030E+02 -0.47861101588E+02 -0.50797284836E+03  0.51178114478E+03  0.00000000000E+00 0. -1.
        -12    1    4    4    0    0 -0.25188698387E+02 -0.96341230937E+01 -0.63827459382E+03  0.63884406858E+03  0.00000000000E+00 0.  1.
<mgrwt>
<rscale>  2 0.19750549E+03</rscale>
<asrwt>0</asrwt>
<pdfrwt beam="1">  1       21 0.13413751E-01 0.19757861E+03</pdfrwt>
<pdfrwt beam="2">  1       21 0.22540916E+00 0.19757861E+03</pdfrwt>
<totfact> 0.44570419E+03</totfact>
</mgrwt>
</event>
<event>
12    1  0.1026879E-001  0.1778548E+03  0.7546771E-02  0.1170383E+00
         21   -1    0    0  503  502  0.00000000000E+00  0.00000000000E+00  0.23904059378E+03  0.23904059378E+03  0.00000000000E+00 0.  1.
         21   -1    0    0  501  503 -0.00000000000E+00 -0.00000000000E+00 -0.13972113239E+03  0.13972113239E+03  0.00000000000E+00 0.  1.
          6    2    1    2  501    0 -0.26533870655E+02 -0.35653585767E+02  0.17246429934E+01  0.17588968993E+03  0.17017339440E+03 0.  0.
         24    2    3    3    0    0 -0.48999034381E+02  0.22894869093E+02 -0.33470057501E+02  0.10382470474E+03  0.82062440646E+02 0.  0.
         -6    2    1    2    0  502  0.26533870655E+02  0.35653585767E+02  0.97594818398E+02  0.20287203624E+03  0.17221233997E+03 0.  0.
        -24    2    5    5    0    0  0.57616162696E+02  0.76834894306E+02  0.62794554107E+02  0.14046083976E+03  0.81011531850E+02 0.  0.
          5    1    3    3  501    0  0.22465163726E+02 -0.58548454860E+02  0.35194700494E+02  0.72064985191E+02  0.47000000000E+01 0. -1.
        -13    1    4    4    0    0 -0.26471554600E+02 -0.29903812822E+02 -0.67373518871E+01  0.40501520153E+02  0.00000000000E+00 0.  1.
         14    1    4    4    0    0 -0.22527479781E+02  0.52798681915E+02 -0.26732705614E+02  0.63323184591E+02  0.00000000000E+00 0. -1.
         -5    1    5    5    0  502 -0.31082292041E+02 -0.41181308539E+02  0.34800264290E+02  0.62411196481E+02  0.47000000000E+01 0.  1.
         11    1    6    6    0    0  0.26526886017E+01 -0.16436980478E+02  0.34594586862E+01  0.17005262082E+02  0.00000000000E+00 0. -1.
        -12    1    6    6    0    0  0.54963474095E+02  0.93271874784E+02  0.59335095421E+02  0.12345557767E+03  0.00000000000E+00 0.  1.
<mgrwt>
<rscale>  2 0.17735931E+03</rscale>
<asrwt>0</asrwt>
<pdfrwt beam="1">  1       21 0.36775476E-01 0.17785476E+03</pdfrwt>
<pdfrwt beam="2">  1       21 0.21495559E-01 0.17785476E+03</pdfrwt>
<totfact> 0.14449565E+05</totfact>
</mgrwt>
</event>
<event>
12    1  0.1026879E-001  0.1774065E+03  0.7546771E-02  0.1170758E+00
         21   -1    0    0  503  502  0.00000000000E+00  0.00000000000E+00  0.14221981011E+03  0.14221981011E+03  0.00000000000E+00 0. -1.
         21   -1    0    0  501  503 -0.00000000000E+00 -0.00000000000E+00 -0.24403268723E+03  0.24403268723E+03  0.00000000000E+00 0. -1.
          6    2    1    2  501    0 -0.24752862730E+02  0.18980644913E+02 -0.11231354197E+03  0.20853549291E+03  0.17291544464E+03 0.  0.
         24    2    3    3    0    0 -0.16361789703E+02  0.77985476989E+02 -0.56014386617E+02  0.12641567064E+03  0.80584536313E+02 0.  0.
         -6    2    1    2    0  502  0.24752862730E+02 -0.18980644913E+02  0.10500664860E+02  0.17771700443E+03  0.17464278001E+03 0.  0.
        -24    2    5    5    0    0  0.53042558018E+02 -0.66487672718E+02 -0.14307473992E+02  0.11693248088E+03  0.78958075513E+02 0.  0.
          5    1    3    3  501    0 -0.83910730273E+01 -0.59004832075E+02 -0.56299155355E+02  0.82119822263E+02  0.47000000000E+01 0. -1.
        -13    1    4    4    0    0  0.17627988138E+02 -0.52785312945E+01  0.32832023567E+01  0.18691930776E+02  0.00000000000E+00 0.  1.
         14    1    4    4    0    0 -0.33989777841E+02  0.83264008283E+02 -0.59297588973E+02  0.10772373987E+03  0.00000000000E+00 0. -1.
         -5    1    5    5    0  502 -0.28289695287E+02  0.47507027804E+02  0.24808138852E+02  0.60784523553E+02  0.47000000000E+01 0.  1.
         11    1    6    6    0    0  0.44772523030E+02  0.33815731968E+01  0.10777202768E+01  0.44912975149E+02  0.00000000000E+00 0. -1.
        -12    1    6    6    0    0  0.82700349878E+01 -0.69869245914E+02 -0.15385194269E+02  0.72019505733E+02  0.00000000000E+00 0.  1.
<mgrwt>
<rscale>  2 0.17697993E+03</rscale>
<asrwt>0</asrwt>
<pdfrwt beam="1">  1       21 0.21879971E-01 0.17740651E+03</pdfrwt>
<pdfrwt beam="2">  1       21 0.37543490E-01 0.17740651E+03</pdfrwt>
<totfact> 0.13413654E+05</totfact>
</mgrwt>
</event>
<event>
12    1  0.1026879E-001  0.1918707E+03  0.7546771E-02  0.1157132E+00
         21   -1    0    0  503  502  0.00000000000E+00  0.00000000000E+00  0.28898924631E+03  0.28898924631E+03  0.00000000000E+00 0.  1.
         21   -1    0    0  501  503 -0.00000000000E+00 -0.00000000000E+00 -0.31687360558E+03  0.31687360558E+03  0.00000000000E+00 0.  1.
          6    2    1    2  501    0  0.12886210973E+02  0.79811573094E+02 -0.24885369759E+03  0.31423323183E+03  0.17400695260E+03 0.  0.
         24    2    3    3    0    0  0.48913469950E+02  0.16623147477E+02 -0.21376180124E+03  0.23333655879E+03  0.77993496021E+02 0.  0.
         -6    2    1    2    0  502 -0.12886210973E+02 -0.79811573094E+02  0.22096933831E+03  0.29162962006E+03  0.17229174440E+03 0.  0.
        -24    2    5    5    0    0  0.68652203015E+01 -0.76707740556E+02  0.55051965664E+02  0.12444583687E+03  0.80776473560E+02 0.  0.
          5    1    3    3  501    0 -0.36027258977E+02  0.63188425617E+02 -0.35091896345E+02  0.80896673049E+02  0.47000000000E+01 0. -1.
        -11    1    4    4    0    0  0.38455737189E+01  0.37275341291E+02 -0.13639779405E+03  0.14145175053E+03  0.00000000000E+00 0.  1.
         12    1    4    4    0    0  0.45067896231E+02 -0.20652193814E+02 -0.77364007191E+02  0.91884808259E+02  0.00000000000E+00 0. -1.
         -5    1    5    5    0  502 -0.19751431274E+02 -0.31038325377E+01  0.16591737265E+03  0.16718378319E+03  0.47000000000E+01 0.  1.
         13    1    6    6    0    0 -0.11029437465E+02  0.36070421129E+01 -0.13173896955E+02  0.17555933600E+02  0.00000000000E+00 0. -1.
        -14    1    6    6    0    0  0.17894657767E+02 -0.80314782669E+02  0.68225862619E+02  0.10688990327E+03  0.00000000000E+00 0.  1.
<mgrwt>
<rscale>  2 0.19148097E+03</rscale>
<asrwt>0</asrwt>
<pdfrwt beam="1">  1       21 0.44459884E-01 0.19187069E+03</pdfrwt>
<pdfrwt beam="2">  1       21 0.48749786E-01 0.19187069E+03</pdfrwt>
<totfact> 0.19520928E+04</totfact>
</mgrwt>
</event>
<event>
12    1  0.1026879E-001  0.1874156E+03  0.7546771E-02  0.1162783E+00
         21   -1    0    0  501  502  0.00000000000E+00  0.00000000000E+00  0.54296795426E+02  0.54296795426E+02  0.00000000000E+00 0. -1.
         21   -1    0    0  502  503 -0.00000000000E+00 -0.00000000000E+00 -0.86834741266E+03  0.86834741266E+03  0.00000000000E+00 0. -1.
         -6    2    1    2    0  503 -0.42490052767E+02 -0.20972185761E+02 -0.64790134248E+03  0.67218424797E+03  0.17265652746E+03 0.  0.
        -24    2    3    3    0    0  0.37493785944E+02 -0.55423886216E+01 -0.43498978382E+03  0.44417346992E+03  0.81470591637E+02 0.  0.
          6    2    1    2  501    0  0.42490052767E+02  0.20972185761E+02 -0.16614927476E+03  0.25045996012E+03  0.18132670228E+03 0.  0.
         24    2    5    5    0    0 -0.35316620154E+02 -0.31825460745E+02 -0.89197339579E+02  0.12886571619E+03  0.79937999794E+02 0.  0.
          5    1    5    5  501    0  0.77806672921E+02  0.52797646506E+02 -0.76951935179E+02  0.12159424392E+03  0.47000000000E+01 0. -1.
        -11    1    6    6    0    0 -0.36735319089E+02 -0.48042282237E+02 -0.94105379210E+02  0.11186316171E+03  0.00000000000E+00 0.  1.
         12    1    6    6    0    0  0.14186989351E+01  0.16216821492E+02  0.49080396303E+01  0.17002554484E+02  0.00000000000E+00 0. -1.
         -5    1    3    3    0  503 -0.79983838711E+02 -0.15429797140E+02 -0.21291155866E+03  0.22801077804E+03  0.47000000000E+01 0.  1.
         11    1    4    4    0    0 -0.16243488919E+02 -0.23690925071E+02 -0.21837110100E+03  0.22025223862E+03  0.00000000000E+00 0. -1.
        -12    1    4    4    0    0  0.53737274862E+02  0.18148536449E+02 -0.21661868282E+03  0.22392123131E+03  0.00000000000E+00 0.  1.
<mgrwt>
<rscale>  2 0.18528581E+03</rscale>
<asrwt>0</asrwt>
<pdfrwt beam="1">  1       21 0.83533529E-02 0.18741561E+03</pdfrwt>
<pdfrwt beam="2">  1       21 0.13359191E+00 0.18741561E+03</pdfrwt>
<totfact> 0.45029447E+04</totfact>
</mgrwt>
</event>
<event>
12    1  0.1026879E-001  0.4428413E+03  0.7546771E-02  0.1029891E+00
         21   -1    0    0  503  502  0.00000000000E+00  0.00000000000E+00  0.18075466547E+03  0.18075466547E+03  0.00000000000E+00 0. -1.
         21   -1    0    0  501  503 -0.00000000000E+00 -0.00000000000E+00 -0.13464527474E+04  0.13464527474E+04  0.00000000000E+00 0.  1.
          6    2    1    2  501    0  0.14023413658E+03  0.38251292856E+03 -0.91972516368E+03  0.10207853631E+04  0.17357023708E+03 0.  0.
         24    2    3    3    0    0  0.10158984554E+03  0.21188595654E+03 -0.68079487019E+03  0.72461527689E+03  0.79809077950E+02 0.  0.
         -6    2    1    2    0  502 -0.14023413658E+03 -0.38251292856E+03 -0.24597291828E+03  0.50642204981E+03  0.17314405111E+03 0.  0.
        -24    2    5    5    0    0 -0.16646183190E+03 -0.27769732699E+03 -0.20051596546E+03  0.38910782691E+03  0.79830455772E+02 0.  0.
          5    1    3    3  501    0  0.38644291031E+02  0.17062697202E+03 -0.23893029349E+03  0.29617008619E+03  0.47000000000E+01 0. -1.
        -11    1    4    4    0    0  0.88861975534E+02  0.16818524664E+03 -0.43694758166E+03  0.47655631042E+03  0.00000000000E+00 0.  1.
         12    1    4    4    0    0  0.12727870011E+02  0.43700709904E+02 -0.24384728853E+03  0.24805896647E+03  0.00000000000E+00 0. -1.
         -5    1    5    5    0  502  0.26227695321E+02 -0.10481560157E+03 -0.45456952824E+02  0.11731422290E+03  0.47000000000E+01 0.  1.
         13    1    6    6    0    0 -0.73360225801E+02 -0.13624603049E+03 -0.50210275213E+02  0.16268305164E+03  0.00000000000E+00 0. -1.
        -14    1    6    6    0    0 -0.93101606096E+02 -0.14145129649E+03 -0.15030569024E+03  0.22642477527E+03  0.00000000000E+00 0.  1.
<mgrwt>
<rscale>  2 0.44279954E+03</rscale>
<asrwt>0</asrwt>
<pdfrwt beam="1">  1       21 0.27808410E-01 0.44284126E+03</pdfrwt>
<pdfrwt beam="2">  1       21 0.20714658E+00 0.44284126E+03</pdfrwt>
<totfact> 0.12527161E+03</totfact>
</mgrwt>
</event>
<event>
12    1  0.1026879E-001  0.2550319E+03  0.7546771E-02  0.1110189E+00
         21   -1    0    0  503  502  0.00000000000E+00  0.00000000000E+00  0.96986249718E+02  0.96986249718E+02  0.00000000000E+00 0. -1.
         21   -1    0    0  501  503 -0.00000000000E+00 -0.00000000000E+00 -0.13285982243E+04  0.13285982243E+04  0.00000000000E+00 0.  1.
          6    2    1    2  501    0  0.17483572479E+03 -0.63742423676E+02 -0.11174800427E+04  0.11461790760E+04  0.17416716478E+03 0.  0.
         24    2    3    3    0    0  0.43742857092E+02  0.24154751161E+02 -0.33981185034E+03  0.35264195611E+03  0.79920998660E+02 0.  0.
         -6    2    1    2    0  502 -0.17483572479E+03  0.63742423676E+02 -0.11413193184E+03  0.27940539793E+03  0.17438649973E+03 0.  0.
        -24    2    5    5    0    0 -0.13869064786E+03 -0.46678384102E+01 -0.22660024240E+02  0.15950698082E+03  0.75313449758E+02 0.  0.
          5    1    3    3  501    0  0.13109286770E+03 -0.87897174837E+02 -0.77766819235E+03  0.79353711993E+03  0.47000000000E+01 0. -1.
        -11    1    4    4    0    0  0.42213438924E+02 -0.10939459432E+02 -0.27921376787E+03  0.28259860998E+03  0.00000000000E+00 0.  1.
         12    1    4    4    0    0  0.15294181684E+01  0.35094210593E+02 -0.60598082477E+02  0.70043346129E+02  0.00000000000E+00 0. -1.
         -5    1    5    5    0  502 -0.36145076936E+02  0.68410262086E+02 -0.91471907600E+02  0.11989841711E+03  0.47000000000E+01 0.  1.
         11    1    6    6    0    0 -0.40374953674E+02  0.32621676563E+02  0.17121138298E+00  0.51907032080E+02  0.00000000000E+00 0. -1.
        -12    1    6    6    0    0 -0.98315694181E+02 -0.37289514974E+02 -0.22831235623E+02  0.10759994874E+03  0.00000000000E+00 0.  1.
<mgrwt>
<rscale>  2 0.25499443E+03</rscale>
<asrwt>0</asrwt>
<pdfrwt beam="1">  1       21 0.14920963E-01 0.25503192E+03</pdfrwt>
<pdfrwt beam="2">  1       21 0.20439971E+00 0.25503192E+03</pdfrwt>
<totfact> 0.47329210E+03</totfact>
</mgrwt>
</event>
<event>
12    1  0.1026879E-001  0.2000494E+03  0.7546771E-02  0.1150685E+00
         21   -1    0    0  503  502  0.00000000000E+00  0.00000000000E+00  0.89412283769E+03  0.89412283769E+03  0.00000000000E+00 0. -1.
         21   -1    0    0  501  503 -0.00000000000E+00 -0.00000000000E+00 -0.11971862400E+03  0.11971862400E+03  0.00000000000E+00 0.  1.
          6    2    1    2  501    0  0.11365823701E+02 -0.96884385211E+02 -0.14997095811E+02  0.20061075940E+03  0.17465393742E+03 0.  0.
         24    2    3    3    0    0 -0.44473612658E+02 -0.27798387409E+01 -0.10651535354E+02  0.90999253547E+02  0.78624291504E+02 0.  0.
         -6    2    1    2    0  502 -0.11365823701E+02  0.96884385211E+02  0.78940130950E+03  0.81323070229E+03  0.16933393539E+03 0.  0.
        -24    2    5    5    0    0 -0.27365384592E+01  0.64609824786E+02  0.22152372160E+03  0.24435184291E+03  0.80331474548E+02 0.  0.
          5    1    3    3  501    0  0.55839436358E+02 -0.94104546470E+02 -0.43455604574E+01  0.10961150585E+03  0.47000000000E+01 0. -1.
        -11    1    4    4    0    0  0.15314224875E+02 -0.17518544636E+02  0.10984626397E+02  0.25731049469E+02  0.00000000000E+00 0.  1.
         12    1    4    4    0    0 -0.59787837533E+02  0.14738705895E+02 -0.21636161751E+02  0.65268204078E+02  0.00000000000E+00 0. -1.
         -5    1    5    5    0  502 -0.86292852415E+01  0.32274560425E+02  0.56787758790E+03  0.56887885938E+03  0.47000000000E+01 0.  1.
         11    1    6    6    0    0  0.13976377704E+02 -0.44515548489E+01  0.11728774717E+03  0.11820140063E+03  0.00000000000E+00 0. -1.
        -12    1    6    6    0    0 -0.16712916164E+02  0.69061379635E+02  0.10423597443E+03  0.12615044229E+03  0.00000000000E+00 0.  1.
<mgrwt>
<rscale>  2 0.19888237E+03</rscale>
<asrwt>0</asrwt>
<pdfrwt beam="1">  1       21 0.13755736E+00 0.20004940E+03</pdfrwt>
<pdfrwt beam="2">  1       21 0.18418250E-01 0.20004940E+03</pdfrwt>
<totfact> 0.10020103E+04</totfact>
</mgrwt>
</event>
<event>
12    1  0.1026879E-001  0.2433972E+03  0.7546771E-02  0.1118751E+00
         21   -1    0    0  501  502  0.00000000000E+00  0.00000000000E+00  0.46240503913E+03  0.46240503913E+03  0.00000000000E+00 0.  1.
         21   -1    0    0  502  503 -0.00000000000E+00 -0.00000000000E+00 -0.17766485696E+03  0.17766485696E+03  0.00000000000E+00 0.  1.
         -6    2    1    2    0  503 -0.89324279689E+02 -0.14098040262E+03  0.31618120870E+03  0.39465037031E+03  0.16710492868E+03 0.  0.
        -24    2    3    3    0    0  0.10237799707E+02 -0.87282336208E+02  0.12550280664E+03  0.17289277067E+03  0.80112027298E+02 0.  0.
          6    2    1    2  501    0  0.89324279689E+02  0.14098040262E+03 -0.31441026517E+02  0.24541952578E+03  0.17716631908E+03 0.  0.
         24    2    5    5    0    0  0.10943041666E+03  0.16538874226E+03 -0.15362327988E+02  0.20963351825E+03  0.66194853999E+02 0.  0.
          5    1    5    5  501    0 -0.20106136974E+02 -0.24408339639E+02 -0.16078698529E+02  0.35786007522E+02  0.47000000000E+01 0. -1.
        -11    1    6    6    0    0  0.45402700534E+02  0.18998236655E+02 -0.59609357603E+01  0.49576919700E+02  0.00000000000E+00 0.  1.
         12    1    6    6    0    0  0.64027716129E+02  0.14639050561E+03 -0.94013922275E+01  0.16005659855E+03  0.00000000000E+00 0. -1.
         -5    1    3    3    0  503 -0.99562079396E+02 -0.53698066416E+02  0.19067840205E+03  0.22175759964E+03  0.47000000000E+01 0.  1.
         13    1    4    4    0    0 -0.18702673312E+02  0.28815680620E+01  0.44213138148E+02  0.48092567081E+02  0.00000000000E+00 0. -1.
        -14    1    4    4    0    0  0.28940473019E+02 -0.90163904270E+02  0.81289668494E+02  0.12480020359E+03  0.00000000000E+00 0.  1.
<mgrwt>
<rscale>  2 0.24157107E+03</rscale>
<asrwt>0</asrwt>
<pdfrwt beam="1">  1       21 0.71139236E-01 0.24339722E+03</pdfrwt>
<pdfrwt beam="2">  1       21 0.27333055E-01 0.24339722E+03</pdfrwt>
<totfact> 0.22199184E+04</totfact>
</mgrwt>
</event>
<event>
12    1  0.1026879E-001  0.2095453E+03  0.7546771E-02  0.1142615E+00
         21   -1    0    0  503  502  0.00000000000E+00  0.00000000000E+00  0.15052277338E+03  0.15052277338E+03  0.00000000000E+00 0. -1.
         21   -1    0    0  501  503 -0.00000000000E+00 -0.00000000000E+00 -0.29722026545E+03  0.29722026545E+03  0.00000000000E+00 0. -1.
          6    2    1    2  501    0 -0.11689671367E+03  0.19473470574E+02 -0.11555095798E+03  0.23929324704E+03  0.17281544047E+03 0.  0.
         24    2    3    3    0    0 -0.99452449832E+02  0.65010487796E+02 -0.12368704368E+03  0.18963231502E+03  0.80899794952E+02 0.  0.
         -6    2    1    2    0  502  0.11689671367E+03 -0.19473470574E+02 -0.31146534098E+02  0.20844979179E+03  0.16863318591E+03 0.  0.
        -24    2    5    5    0    0  0.10238064953E+02 -0.40621577173E+02  0.13154775052E+02  0.90942320753E+02  0.79639984250E+02 0.  0.
          5    1    3    3  501    0 -0.17444263833E+02 -0.45537017222E+02  0.81360857055E+01  0.49660932017E+02  0.47000000000E+01 0. -1.
        -11    1    4    4    0    0 -0.15806049040E+01 -0.19616851223E+01  0.10356150987E+02  0.10658160425E+02  0.00000000000E+00 0.  1.
         12    1    4    4    0    0 -0.97871844928E+02  0.66972172919E+02 -0.13404319467E+03  0.17897415459E+03  0.00000000000E+00 0. -1.
         -5    1    5    5    0  502  0.10665864871E+03  0.21148106599E+02 -0.44301309151E+02  0.11750747104E+03  0.47000000000E+01 0.  1.
         13    1    6    6    0    0  0.25633630387E+02 -0.25989650489E+02  0.41662460461E+02  0.55392287830E+02  0.00000000000E+00 0. -1.
        -14    1    6    6    0    0 -0.15395565434E+02 -0.14631926683E+02 -0.28507685408E+02  0.35550032923E+02  0.00000000000E+00 0.  1.
<mgrwt>
<rscale>  2 0.20868107E+03</rscale>
<asrwt>0</asrwt>
<pdfrwt beam="1">  1       21 0.23157350E-01 0.20954530E+03</pdfrwt>
<pdfrwt beam="2">  1       21 0.45726194E-01 0.20954530E+03</pdfrwt>
<totfact> 0.79757898E+04</totfact>
</mgrwt>
</event>
<event>
12    1  0.1026879E-001  0.2192604E+03  0.7546771E-02  0.1136681E+00
         21   -1    0    0  503  502  0.00000000000E+00  0.00000000000E+00  0.18680655201E+04  0.18680655201E+04  0.00000000000E+00 0.  1.
         21   -1    0    0  501  503 -0.00000000000E+00 -0.00000000000E+00 -0.75734387343E+02  0.75734387343E+02  0.00000000000E+00 0.  1.
          6    2    1    2  501    0 -0.38753179643E+02 -0.11446169014E+03  0.88116442365E+02  0.22553833483E+03  0.16881867675E+03 0.  0.
         24    2    3    3    0    0 -0.64162031396E+02 -0.13138011354E+03  0.96987135875E+02  0.19340389846E+03  0.81369914008E+02 0.  0.
         -6    2    1    2    0  502  0.38753179643E+02  0.11446169014E+03  0.17042146904E+04  0.17182615727E+04  0.18295309106E+03 0.  0.
        -24    2    5    5    0    0  0.58716721801E+02  0.13898223529E+03  0.10805150640E+04  0.10937432670E+04  0.77445563560E+02 0.  0.
          5    1    3    3  501    0  0.25408851753E+02  0.16918423399E+02 -0.88706935102E+01  0.32134436374E+02  0.47000000000E+01 0. -1.
        -13    1    4    4    0    0 -0.27526140155E+02 -0.52002412918E+02 -0.50286678588E+01  0.59052746266E+02  0.00000000000E+00 0.  1.
         14    1    4    4    0    0 -0.36635891241E+02 -0.79377700623E+02  0.10201580373E+03  0.13435115219E+03  0.00000000000E+00 0. -1.
         -5    1    5    5    0  502 -0.19963542158E+02 -0.24520545150E+02  0.62369962641E+03  0.62451830569E+03  0.47000000000E+01 0.  1.
         13    1    6    6    0    0 -0.11043792480E+02 -0.73227100670E+00  0.13156616541E+03  0.13203089583E+03  0.00000000000E+00 0. -1.
        -14    1    6    6    0    0  0.69760514281E+02  0.13971450630E+03  0.94894889861E+03  0.96171237114E+03  0.00000000000E+00 0.  1.
<mgrwt>
<rscale>  2 0.21628860E+03</rscale>
<asrwt>0</asrwt>
<pdfrwt beam="1">  1       21 0.28739466E+00 0.21926040E+03</pdfrwt>
<pdfrwt beam="2">  1       21 0.11651446E-01 0.21926040E+03</pdfrwt>
<totfact> 0.24202085E+03</totfact>
</mgrwt>
</event>
<event>
12    1  0.1026879E-001  0.2436982E+03  0.7546771E-02  0.1118058E+00
         21   -1    0    0  503  502  0.00000000000E+00  0.00000000000E+00  0.63862654953E+02  0.63862654953E+02  0.00000000000E+00 0.  1.
         21   -1    0    0  501  503 -0.00000000000E+00 -0.00000000000E+00 -0.94698560987E+03  0.94698560987E+03  0.00000000000E+00 0. -1.
          6    2    1    2  501    0  0.11404552698E+03 -0.12209372768E+03 -0.54007751107E+03  0.59251372616E+03  0.17741346388E+03 0.  0.
         24    2    3    3    0    0  0.14407903515E+03 -0.13130982052E+03 -0.47840966190E+03  0.52314542215E+03  0.82488125138E+02 0.  0.
         -6    2    1    2    0  502 -0.11404552698E+03  0.12209372768E+03 -0.34304544385E+03  0.41833453866E+03  0.17149445801E+03 0.  0.
        -24    2    5    5    0    0 -0.19279491200E+02  0.99336905731E+02 -0.26105793360E+03  0.29088840761E+03  0.78900578994E+02 0.  0.
          5    1    3    3  501    0 -0.30033508166E+02  0.92160928404E+01 -0.61667849169E+02  0.69368304009E+02  0.47000000000E+01 0. -1.
        -11    1    4    4    0    0  0.57286121954E+02 -0.72669073988E+02 -0.13169401342E+03  0.16095281064E+03  0.00000000000E+00 0.  1.
         12    1    4    4    0    0  0.86792913196E+02 -0.58640746529E+02 -0.34671564847E+03  0.36219261151E+03  0.00000000000E+00 0. -1.
         -5    1    5    5    0  502 -0.94766035783E+02  0.22756821945E+02 -0.81987510255E+02  0.12744613106E+03  0.47000000000E+01 0.  1.
         13    1    6    6    0    0 -0.44381831149E+02  0.82337080000E+02 -0.15951899496E+03  0.18492012176E+03  0.00000000000E+00 0. -1.
        -14    1    6    6    0    0  0.25102339949E+02  0.16999825731E+02 -0.10153893864E+03  0.10596828585E+03  0.00000000000E+00 0.  1.
<mgrwt>
<rscale>  2 0.24262240E+03</rscale>
<asrwt>0</asrwt>
<pdfrwt beam="1">  1       21 0.98250245E-02 0.24369817E+03</pdfrwt>
<pdfrwt beam="2">  1       21 0.14569008E+00 0.24369817E+03</pdfrwt>
<totfact> 0.26213401E+04</totfact>
</mgrwt>
</event>
<event>
12    1  0.1026879E-001  0.3332896E+03  0.7546771E-02  0.1069806E+00
         21   -1    0    0  501  502  0.00000000000E+00  0.00000000000E+00  0.17653511615E+03  0.17653511615E+03  0.00000000000E+00 0.  1.
         21   -1    0    0  502  503 -0.00000000000E+00 -0.00000000000E+00 -0.10921774878E+04  0.10921774878E+04  0.00000000000E+00 0.  1.
         -6    2    1    2    0  503 -0.21041063893E+03 -0.19079898919E+03 -0.87129062482E+03  0.93248497783E+03  0.17234845438E+03 0.  0.
        -24    2    3    3    0    0 -0.17721500150E+03 -0.20914253589E+03 -0.82206201415E+03  0.87016337517E+03  0.79073303303E+02 0.  0.
          6    2    1    2  501    0  0.21041063893E+03  0.19079898919E+03 -0.44351746804E+02  0.33622762610E+03  0.17437043286E+03 0.  0.
         24    2    5    5    0    0  0.11532247387E+03  0.16744086672E+03 -0.77985101172E+02  0.23259050174E+03  0.81737070330E+02 0.  0.
          5    1    5    5  501    0  0.95088165061E+02  0.23358122468E+02  0.33633354368E+02  0.10363712436E+03  0.47000000000E+01 0. -1.
        -13    1    6    6    0    0  0.65673046342E+02  0.11171173679E+03 -0.72960338979E+01  0.12979095987E+03  0.00000000000E+00 0.  1.
         14    1    6    6    0    0  0.49649427526E+02  0.55729129928E+02 -0.70689067274E+02  0.10279954187E+03  0.00000000000E+00 0. -1.
         -5    1    3    3    0  503 -0.33195637429E+02  0.18343546705E+02 -0.49228610669E+02  0.62321602663E+02  0.47000000000E+01 0.  1.
         13    1    4    4    0    0 -0.10767527438E+03 -0.68477261762E+02 -0.40096440246E+03  0.42077969548E+03  0.00000000000E+00 0. -1.
        -14    1    4    4    0    0 -0.69539727126E+02 -0.14066527413E+03 -0.42109761169E+03  0.44938367969E+03  0.00000000000E+00 0.  1.
<mgrwt>
<rscale>  2 0.33302591E+03</rscale>
<asrwt>0</asrwt>
<pdfrwt beam="1">  1       21 0.27159249E-01 0.33328957E+03</pdfrwt>
<pdfrwt beam="2">  1       21 0.16802731E+00 0.33328957E+03</pdfrwt>
<totfact> 0.25725082E+03</totfact>
</mgrwt>
</event>
<event>
12    1  0.1026879E-001  0.1947640E+03  0.7546771E-02  0.1154707E+00
         21   -1    0    0  503  502  0.00000000000E+00  0.00000000000E+00  0.39245217182E+03  0.39245217182E+03  0.00000000000E+00 0.  1.
         21   -1    0    0  501  503 -0.00000000000E+00 -0.00000000000E+00 -0.11335444532E+03  0.11335444532E+03  0.00000000000E+00 0.  1.
          6    2    1    2  501    0  0.10356428877E+02 -0.87384785370E+02  0.38777378579E+02  0.19647367468E+03  0.17133261050E+03 0.  0.
         24    2    3    3    0    0 -0.11452628409E+02 -0.43062238264E+02 -0.42332191307E+02  0.10138963034E+03  0.80636986905E+02 0.  0.
         -6    2    1    2    0  502 -0.10356428877E+02  0.87384785370E+02  0.24032034793E+03  0.30933294246E+03  0.17375167145E+03 0.  0.
        -24    2    5    5    0    0 -0.47995237121E+02 -0.33145825572E+01  0.10539026680E+03  0.14238602868E+03  0.82777675632E+02 0.  0.
          5    1    3    3  501    0  0.21809057286E+02 -0.44322547106E+02  0.81109569886E+02  0.95084044343E+02  0.47000000000E+01 0. -1.
        -13    1    4    4    0    0 -0.25426539783E+02 -0.42458767381E+02  0.71181647807E+01  0.49999241221E+02  0.00000000000E+00 0.  1.
         14    1    4    4    0    0  0.13973911374E+02 -0.60347088325E+00 -0.49450356088E+02  0.51390389115E+02  0.00000000000E+00 0. -1.
         -5    1    5    5    0  502  0.37638808244E+02  0.90699367927E+02  0.13493008112E+03  0.16694691378E+03  0.47000000000E+01 0.  1.
         13    1    6    6    0    0  0.13329848345E+02  0.11186470093E+02  0.65576681072E+02  0.67846319505E+02  0.00000000000E+00 0. -1.
        -14    1    6    6    0    0 -0.61325085465E+02 -0.14501052650E+02  0.39813585732E+02  0.74539709177E+02  0.00000000000E+00 0.  1.
<mgrwt>
<rscale>  2 0.19422296E+03</rscale>
<asrwt>0</asrwt>
<pdfrwt beam="1">  1       21 0.60377256E-01 0.19476396E+03</pdfrwt>
<pdfrwt beam="2">  1       21 0.17439146E-01 0.19476396E+03</pdfrwt>
<totfact> 0.76029639E+04</totfact>
</mgrwt>
</event>
<event>
12    1  0.1026879E-001  0.2936235E+03  0.7546771E-02  0.1089003E+00
         21   -1    0    0  501  502  0.00000000000E+00  0.00000000000E+00  0.42102287453E+03  0.42102287453E+03  0.00000000000E+00 0.  1.
         21   -1    0    0  502  503 -0.00000000000E+00 -0.00000000000E+00 -0.31355156353E+03  0.31355156353E+03  0.00000000000E+00 0. -1.
         -6    2    1    2    0  503  0.22902394059E+03 -0.61941166550E+02 -0.16565064410E+03  0.33356275767E+03  0.16593765076E+03 0.  0.
        -24    2    3    3    0    0  0.24008898011E+03 -0.49637834606E+02 -0.17521658904E+03  0.31388016691E+03  0.87825241893E+02 0.  0.
          6    2    1    2  501    0 -0.22902394059E+03  0.61941166550E+02  0.27312195510E+03  0.40101168039E+03  0.17299159509E+03 0.  0.
         24    2    5    5    0    0 -0.89831473980E+02  0.86714691011E+02  0.17457285974E+03  0.22861015930E+03  0.78726045406E+02 0.  0.
          5    1    5    5  501    0 -0.13919246661E+03 -0.24773524460E+02  0.98549095367E+02  0.17240152109E+03  0.47000000000E+01 0. -1.
        -11    1    6    6    0    0 -0.71410536183E+02  0.74828892371E+02  0.77915064135E+02  0.12949743253E+03  0.00000000000E+00 0.  1.
         12    1    6    6    0    0 -0.18420937796E+02  0.11885798639E+02  0.96657795603E+02  0.99112726778E+02  0.00000000000E+00 0. -1.
         -5    1    3    3    0  503 -0.11065039516E+02 -0.12303331944E+02  0.95659449408E+01  0.19682590760E+02  0.47000000000E+01 0.  1.
         13    1    4    4    0    0  0.15609359270E+03 -0.63414415537E+02 -0.81110897725E+02  0.18699084338E+03  0.00000000000E+00 0. -1.
        -14    1    4    4    0    0  0.83995387410E+02  0.13776580931E+02 -0.94105691316E+02  0.12688932353E+03  0.00000000000E+00 0.  1.
<mgrwt>
<rscale>  2 0.29259315E+03</rscale>
<asrwt>0</asrwt>
<pdfrwt beam="1">  1       21 0.64772750E-01 0.29362351E+03</pdfrwt>
<pdfrwt beam="2">  1       21 0.48238702E-01 0.29362351E+03</pdfrwt>
<totfact> 0.84979802E+03</totfact>
</mgrwt>
</event>
<event>
12    1  0.1026879E-001  0.2049031E+03  0.7546771E-02  0.1146014E+00
         21   -1    0    0  503  502  0.00000000000E+00  0.00000000000E+00  0.61983823668E+02  0.61983823668E+02  0.00000000000E+00 0. -1.
         21   -1    0    0  501  503 -0.00000000000E+00 -0.00000000000E+00 -0.67278630551E+03  0.67278630551E+03  0.00000000000E+00 0. -1.
          6    2    1    2  501    0 -0.85711281935E+02  0.64121971477E+02 -0.28990988307E+03  0.35403749514E+03  0.17273319480E+03 0.  0.
         24    2    3    3    0    0 -0.52354137223E+01 -0.22743885686E+02 -0.12188561163E+03  0.14842551032E+03  0.81420733847E+02 0.  0.
         -6    2    1    2    0  502  0.85711281935E+02 -0.64121971477E+02 -0.32089259877E+03  0.38073263404E+03  0.17472042697E+03 0.  0.
        -24    2    5    5    0    0  0.25160474601E+02 -0.62372932851E+01 -0.52387970069E+02  0.99425218794E+02  0.80429605337E+02 0.  0.
          5    1    3    3  501    0 -0.80475868212E+02  0.86865857163E+02 -0.16802427145E+03  0.20561198482E+03  0.47000000000E+01 0. -1.
        -13    1    4    4    0    0 -0.40196095399E+02 -0.28009219979E+02 -0.64039643506E+02  0.80630753621E+02  0.00000000000E+00 0.  1.
         14    1    4    4    0    0  0.34960681676E+02  0.52653342930E+01 -0.57845968121E+02  0.67794756703E+02  0.00000000000E+00 0. -1.
         -5    1    5    5    0  502  0.60550807334E+02 -0.57884678192E+02 -0.26850462870E+03  0.28130741524E+03  0.47000000000E+01 0.  1.
         11    1    6    6    0    0  0.37252719183E+01 -0.24442236139E+02 -0.64295467824E+02  0.68885468286E+02  0.00000000000E+00 0. -1.
        -12    1    6    6    0    0  0.21435202682E+02  0.18204942854E+02  0.11907497754E+02  0.30539750508E+02  0.00000000000E+00 0.  1.
<mgrwt>
<rscale>  2 0.20447882E+03</rscale>
<asrwt>0</asrwt>
<pdfrwt beam="1">  1       21 0.95359728E-02 0.20490310E+03</pdfrwt>
<pdfrwt beam="2">  1       21 0.10350559E+00 0.20490310E+03</pdfrwt>
<totfact> 0.66329348E+04</totfact>
</mgrwt>
</event>
<event>
12    1  0.1026879E-001  0.2700785E+03  0.7546771E-02  0.1101522E+00
         21   -1    0    0  501  502  0.00000000000E+00  0.00000000000E+00  0.84914797427E+03  0.84914797427E+03  0.00000000000E+00 0. -1.
         21   -1    0    0  502  503 -0.00000000000E+00 -0.00000000000E+00 -0.12925592031E+03  0.12925592031E+03  0.00000000000E+00 0. -1.
         -6    2    1    2    0  503 -0.24311596153E+02  0.20608698646E+03  0.73668500526E+02  0.27801310262E+03  0.16970956827E+03 0.  0.
        -24    2    3    3    0    0  0.40173114991E+00  0.17488993224E+03  0.11212737900E+03  0.22246870531E+03  0.79580939509E+02 0.  0.
          6    2    1    2  501    0  0.24311596153E+02 -0.20608698646E+03  0.64622355344E+03  0.70039079196E+03  0.17285682151E+03 0.  0.
         24    2    5    5    0    0  0.27993826412E+01 -0.82251059056E+02  0.46970323449E+03  0.48364295402E+03  0.80723634879E+02 0.  0.
          5    1    5    5  501    0  0.21512213512E+02 -0.12383592741E+03  0.17652031896E+03  0.21674783794E+03  0.47000000000E+01 0. -1.
        -11    1    6    6    0    0  0.64849397871E+01  0.15834888611E+02  0.67176759908E+02  0.69321823498E+02  0.00000000000E+00 0.  1.
         12    1    6    6    0    0 -0.36855571459E+01 -0.98085947667E+02  0.40252647458E+03  0.41432113052E+03  0.00000000000E+00 0. -1.
         -5    1    3    3    0  503 -0.24713327303E+02  0.31197054219E+02 -0.38458878477E+02  0.55544397306E+02  0.47000000000E+01 0.  1.
         11    1    4    4    0    0  0.59908789895E+01  0.48482789139E+02 -0.61844285294E+01  0.49241432047E+02  0.00000000000E+00 0. -1.
        -12    1    4    4    0    0 -0.55891478396E+01  0.12640714311E+03  0.11831180753E+03  0.17322727327E+03  0.00000000000E+00 0.  1.
<mgrwt>
<rscale>  2 0.26957622E+03</rscale>
<asrwt>0</asrwt>
<pdfrwt beam="1">  1       21 0.13063815E+00 0.27007847E+03</pdfrwt>
<pdfrwt beam="2">  1       21 0.19885527E-01 0.27007847E+03</pdfrwt>
<totfact> 0.94795689E+03</totfact>
</mgrwt>
</event>
<event>
12    1  0.1026879E-001  0.2739911E+03  0.7546771E-02  0.1099033E+00
         21   -1    0    0  501  502  0.00000000000E+00  0.00000000000E+00  0.72300158965E+02  0.72300158965E+02  0.00000000000E+00 0.  1.
         21   -1    0    0  502  503 -0.00000000000E+00 -0.00000000000E+00 -0.11247276534E+04  0.11247276534E+04  0.00000000000E+00 0. -1.
         -6    2    1    2    0  503 -0.13076805782E+03  0.16548805842E+03 -0.69263528824E+03  0.74485888872E+03  0.17488435938E+03 0.  0.
        -24    2    3    3    0    0 -0.16320015120E+03  0.14255214617E+03 -0.55620249109E+03  0.60268331104E+03  0.83129769473E+02 0.  0.
          6    2    1    2  501    0  0.13076805782E+03 -0.16548805842E+03 -0.35979220615E+03  0.45216892361E+03  0.17469894516E+03 0.  0.
         24    2    5    5    0    0  0.53977003446E+02 -0.72924457473E+02 -0.28625641402E+03  0.31112109846E+03  0.81376347578E+02 0.  0.
          5    1    5    5  501    0  0.76791054377E+02 -0.92563600946E+02 -0.73535792135E+02  0.14104782514E+03  0.47000000000E+01 0. -1.
        -13    1    6    6    0    0 -0.19316475474E+02 -0.55363295883E+01 -0.29105627285E+02  0.35368272642E+02  0.00000000000E+00 0.  1.
         14    1    6    6    0    0  0.73293478920E+02 -0.67388127885E+02 -0.25715078673E+03  0.27575282582E+03  0.00000000000E+00 0. -1.
         -5    1    3    3    0  503  0.32432093376E+02  0.22935912251E+02 -0.13643279715E+03  0.14217557768E+03  0.47000000000E+01 0.  1.
         11    1    4    4    0    0 -0.26326430289E+02 -0.63383500697E+01 -0.10114960937E+03  0.10471150409E+03  0.00000000000E+00 0. -1.
        -12    1    4    4    0    0 -0.13687372091E+03  0.14889049624E+03 -0.45505288173E+03  0.49797180695E+03  0.00000000000E+00 0.  1.
<mgrwt>
<rscale>  2 0.27396152E+03</rscale>
<asrwt>0</asrwt>
<pdfrwt beam="1">  1       21 0.11123102E-01 0.27399110E+03</pdfrwt>
<pdfrwt beam="2">  1       21 0.17303502E+00 0.27399110E+03</pdfrwt>
<totfact> 0.12946070E+04</totfact>
</mgrwt>
</event>
<event>
12    1  0.1026879E-001  0.2173432E+03  0.7546771E-02  0.1138262E+00
         21   -1    0    0  501  502  0.00000000000E+00  0.00000000000E+00  0.10624562583E+03  0.10624562583E+03  0.00000000000E+00 0.  1.
         21   -1    0    0  502  503 -0.00000000000E+00 -0.00000000000E+00 -0.43838319324E+03  0.43838319324E+03  0.00000000000E+00 0.  1.
         -6    2    1    2    0  503 -0.93994778461E+02 -0.91921179123E+02 -0.21720517058E+03  0.29876801596E+03  0.15747926748E+03 0.  0.
        -24    2    3    3    0    0 -0.10418669470E+03 -0.33222398669E+02 -0.10825884539E+03  0.17450694500E+03  0.82304927697E+02 0.  0.
          6    2    1    2  501    0  0.93994778461E+02  0.91921179123E+02 -0.11493239683E+03  0.24586080311E+03  0.17307095977E+03 0.  0.
         24    2    5    5    0    0  0.76996682080E+02 -0.10350727212E+02 -0.47993411991E+02  0.12236426147E+03  0.81449483025E+02 0.  0.
          5    1    5    5  501    0  0.16998096381E+02  0.10227190634E+03 -0.66938984838E+02  0.12349654164E+03  0.47000000000E+01 0. -1.
        -13    1    6    6    0    0  0.30048645998E+02  0.19235521081E+02 -0.55895404231E+02  0.66311557151E+02  0.00000000000E+00 0.  1.
         14    1    6    6    0    0  0.46948036081E+02 -0.29586248293E+02  0.79019922402E+01  0.56052704318E+02  0.00000000000E+00 0. -1.
         -5    1    3    3    0  503  0.10191916237E+02 -0.58698780455E+02 -0.10894632519E+03  0.12426107096E+03  0.47000000000E+01 0.  1.
         11    1    4    4    0    0 -0.16699710513E+02  0.23568315598E+02 -0.83353593775E+01  0.30063666565E+02  0.00000000000E+00 0. -1.
        -12    1    4    4    0    0 -0.87486984185E+02 -0.56790714267E+02 -0.99923486011E+02  0.14444327844E+03  0.00000000000E+00 0.  1.
<mgrwt>
<rscale>  2 0.21422716E+03</rscale>
<asrwt>0</asrwt>
<pdfrwt beam="1">  1       21 0.16345481E-01 0.21734323E+03</pdfrwt>
<pdfrwt beam="2">  1       21 0.67443569E-01 0.21734323E+03</pdfrwt>
<totfact> 0.66677155E+04</totfact>
</mgrwt>
</event>
<event>
12    1  0.1026879E-001  0.2070724E+03  0.7546771E-02  0.1144081E+00
         21   -1    0    0  503  502  0.00000000000E+00  0.00000000000E+00  0.83866929844E+02  0.83866929844E+02  0.00000000000E+00 0.  1.
         21   -1    0    0  501  503 -0.00000000000E+00 -0.00000000000E+00 -0.51022871862E+03  0.51022871862E+03  0.00000000000E+00 0.  1.
          6    2    1    2  501    0  0.11102604384E+03 -0.17564835193E+02 -0.22741081515E+03  0.30756242204E+03  0.17390704057E+03 0.  0.
         24    2    3    3    0    0  0.87024685481E+02 -0.84652153621E+01 -0.24774888552E+03  0.27447775203E+03  0.79457978386E+02 0.  0.
         -6    2    1    2    0  502 -0.11102604384E+03  0.17564835193E+02 -0.19895097363E+03  0.28653322642E+03  0.17287132235E+03 0.  0.
        -24    2    5    5    0    0 -0.69936391562E+02  0.50175281034E+02 -0.49711071514E+02  0.12827255827E+03  0.81080212644E+02 0.  0.
          5    1    3    3  501    0  0.24001358359E+02 -0.90996198306E+01  0.20338070361E+02  0.33084670018E+02  0.47000000000E+01 0. -1.
        -13    1    4    4    0    0  0.81439471432E+02 -0.17484648444E+02 -0.11879033157E+03  0.14508357355E+03  0.00000000000E+00 0.  1.
         14    1    4    4    0    0  0.55852140486E+01  0.90194330821E+01 -0.12895855394E+03  0.12939417848E+03  0.00000000000E+00 0. -1.
         -5    1    5    5    0  502 -0.41089652278E+02 -0.32610445842E+02 -0.14923990211E+03  0.15826066815E+03  0.47000000000E+01 0.  1.
         13    1    6    6    0    0  0.17614192820E+02  0.11067030085E+02 -0.17296087493E+02  0.27053531862E+02  0.00000000000E+00 0. -1.
        -14    1    6    6    0    0 -0.87550584382E+02  0.39108250949E+02 -0.32414984021E+02  0.10121902641E+03  0.00000000000E+00 0.  1.
<mgrwt>
<rscale>  2 0.20685476E+03</rscale>
<asrwt>0</asrwt>
<pdfrwt beam="1">  1       21 0.12902604E-01 0.20707237E+03</pdfrwt>
<pdfrwt beam="2">  1       21 0.78496727E-01 0.20707237E+03</pdfrwt>
<totfact> 0.73481898E+04</totfact>
</mgrwt>
</event>
<event>
12    1  0.1026879E-001  0.3089373E+03  0.7546771E-02  0.1081056E+00
         21   -1    0    0  501  502  0.00000000000E+00  0.00000000000E+00  0.20771740714E+04  0.20771740714E+04  0.00000000000E+00 0. -1.
         21   -1    0    0  502  503 -0.00000000000E+00 -0.00000000000E+00 -0.45702283509E+02  0.45702283509E+02  0.00000000000E+00 0. -1.
         -6    2    1    2    0  503  0.57236724772E+02 -0.24964016785E+03  0.10196064893E+04  0.10653823926E+04  0.17275993005E+03 0.  0.
        -24    2    3    3    0    0  0.73662953782E+02 -0.15667715262E+03  0.85088767779E+03  0.87199141414E+03  0.79907604212E+02 0.  0.
          6    2    1    2  501    0 -0.57236724772E+02  0.24964016785E+03  0.10118652986E+04  0.10574939623E+04  0.16978174725E+03 0.  0.
         24    2    5    5    0    0 -0.76787832074E+02  0.19456032342E+03  0.58297184159E+03  0.62461092667E+03  0.80824198272E+02 0.  0.
          5    1    5    5  501    0  0.19551107302E+02  0.55079844439E+02  0.42889345705E+03  0.43288303566E+03  0.47000000000E+01 0. -1.
        -11    1    6    6    0    0  0.94985467279E+01 -0.15416573183E+01  0.18608698839E+02  0.20949529105E+02  0.00000000000E+00 0.  1.
         12    1    6    6    0    0 -0.86286378802E+02  0.19610198073E+03  0.56436314275E+03  0.60366139757E+03  0.00000000000E+00 0. -1.
         -5    1    3    3    0  503 -0.16426229010E+02 -0.92963015240E+02  0.16871881149E+03  0.19339097847E+03  0.47000000000E+01 0.  1.
         13    1    4    4    0    0 -0.55951429164E+00 -0.77577888479E+02  0.26395039296E+03  0.27511534269E+03  0.00000000000E+00 0. -1.
        -14    1    4    4    0    0  0.74222468074E+02 -0.79099264136E+02  0.58693728483E+03  0.59687607146E+03  0.00000000000E+00 0.  1.
<mgrwt>
<rscale>  2 0.30852258E+03</rscale>
<asrwt>0</asrwt>
<pdfrwt beam="1">  1       21 0.31956517E+00 0.30893729E+03</pdfrwt>
<pdfrwt beam="2">  1       21 0.70311221E-02 0.30893729E+03</pdfrwt>
<totfact> 0.35311904E+03</totfact>
</mgrwt>
</event>
<event>
12    1  0.1026879E-001  0.1897468E+03  0.7546771E-02  0.1159270E+00
         21   -1    0    0  501  502  0.00000000000E+00  0.00000000000E+00  0.22496183428E+03  0.22496183428E+03  0.00000000000E+00 0.  1.
         21   -1    0    0  502  503 -0.00000000000E+00 -0.00000000000E+00 -0.16794548486E+03  0.16794548486E+03  0.00000000000E+00 0.  1.
         -6    2    1    2    0  503  0.43966708497E+02  0.58319276760E+02 -0.19718863952E+02  0.18823165301E+03  0.17236041338E+03 0.  0.
        -24    2    3    3    0    0  0.31383951749E+02 -0.26516536938E+02  0.21866373612E+02  0.92801767564E+02  0.80286677659E+02 0.  0.
          6    2    1    2  501    0 -0.43966708497E+02 -0.58319276760E+02  0.76735213372E+02  0.20467566614E+03  0.17512745598E+03 0.  0.
         24    2    5    5    0    0 -0.56587377029E+02  0.29939235190E+02  0.37210249293E+02  0.10703776883E+03  0.77291605365E+02 0.  0.
          5    1    5    5  501    0  0.12620668532E+02 -0.88258511950E+02  0.39524964080E+02  0.97637897311E+02  0.47000000000E+01 0. -1.
        -13    1    6    6    0    0 -0.43946081784E+02 -0.20211183466E+02  0.21919145686E+02  0.53105545745E+02  0.00000000000E+00 0.  1.
         14    1    6    6    0    0 -0.12641295245E+02  0.50150418656E+02  0.15291103607E+02  0.53932223080E+02  0.00000000000E+00 0. -1.
         -5    1    3    3    0  503  0.12582756748E+02  0.84835813697E+02 -0.41585237564E+02  0.95429885447E+02  0.47000000000E+01 0.  1.
         11    1    4    4    0    0 -0.14118767980E+02 -0.10636623891E+02  0.38055977405E+02  0.41961110487E+02  0.00000000000E+00 0. -1.
        -12    1    4    4    0    0  0.45502719729E+02 -0.15879913046E+02 -0.16189603793E+02  0.50840657077E+02  0.00000000000E+00 0.  1.
<mgrwt>
<rscale>  2 0.18910582E+03</rscale>
<asrwt>0</asrwt>
<pdfrwt beam="1">  1       21 0.34609513E-01 0.18974677E+03</pdfrwt>
<pdfrwt beam="2">  1       21 0.25837767E-01 0.18974677E+03</pdfrwt>
<totfact> 0.11455399E+05</totfact>
</mgrwt>
</event>
<event>
12    1  0.1026879E-001  0.2626403E+03  0.7546771E-02  0.1105701E+00
         21   -1    0    0  501  502  0.00000000000E+00  0.00000000000E+00  0.76466613685E+03  0.76466613685E+03  0.00000000000E+00 0. -1.
         21   -1    0    0  502  503 -0.00000000000E+00 -0.00000000000E+00 -0.13721997235E+03  0.13721997235E+03  0.00000000000E+00 0.  1.
         -6    2    1    2    0  503  0.19009780957E+03  0.48507512859E+02  0.48561431246E+02  0.26620735430E+03  0.17325699661E+03 0.  0.
        -24    2    3    3    0    0  0.11129330269E+03  0.49448467770E+02 -0.37349165656E+02  0.14952935140E+03  0.78311663038E+02 0.  0.
          6    2    1    2  501    0 -0.19009780957E+03 -0.48507512859E+02  0.57888473325E+03  0.63567875489E+03  0.17461325560E+03 0.  0.
         24    2    5    5    0    0 -0.20340250418E+03 -0.57816543407E+02  0.43080612899E+03  0.48663837115E+03  0.80670019835E+02 0.  0.
          5    1    5    5  501    0  0.13304694610E+02  0.93090305475E+01  0.14807860426E+03  0.14904038375E+03  0.47000000000E+01 0. -1.
        -13    1    6    6    0    0 -0.51781325062E+02  0.14699259956E+02  0.67456089784E+02  0.86300045871E+02  0.00000000000E+00 0.  1.
         14    1    6    6    0    0 -0.15162117912E+03 -0.72515803363E+02  0.36335003921E+03  0.40033832528E+03  0.00000000000E+00 0. -1.
         -5    1    3    3    0  503  0.78804506885E+02 -0.94095491054E+00  0.85910596901E+02  0.11667800290E+03  0.47000000000E+01 0.  1.
         11    1    4    4    0    0  0.36569506973E+02  0.29784407665E+02  0.22054699343E+02  0.52065819338E+02  0.00000000000E+00 0. -1.
        -12    1    4    4    0    0  0.74723795713E+02  0.19664060105E+02 -0.59403864999E+02  0.97463532064E+02  0.00000000000E+00 0.  1.
<mgrwt>
<rscale>  2 0.26241511E+03</rscale>
<asrwt>0</asrwt>
<pdfrwt beam="1">  1       21 0.11764094E+00 0.26264033E+03</pdfrwt>
<pdfrwt beam="2">  1       21 0.21110765E-01 0.26264033E+03</pdfrwt>
<totfact> 0.11076801E+04</totfact>
</mgrwt>
</event>
<event>
12    1  0.1026879E-001  0.1967748E+03  0.7546771E-02  0.1152654E+00
         21   -1    0    0  501  502  0.00000000000E+00  0.00000000000E+00  0.39681570269E+03  0.39681570269E+03  0.00000000000E+00 0.  1.
         21   -1    0    0  502  503 -0.00000000000E+00 -0.00000000000E+00 -0.20419176512E+03  0.20419176512E+03  0.00000000000E+00 0.  1.
         -6    2    1    2    0  503  0.90959734551E+02  0.52288349747E+01 -0.12130169173E+03  0.23050829878E+03  0.17354815287E+03 0.  0.
        -24    2    3    3    0    0  0.17032605850E+02  0.25794539164E+02 -0.12900040657E+03  0.15324557325E+03  0.76730912367E+02 0.  0.
          6    2    1    2  501    0 -0.90959734551E+02 -0.52288349747E+01  0.31392562929E+03  0.37049916904E+03  0.17441135142E+03 0.  0.
         24    2    5    5    0    0 -0.10101871495E+03 -0.54053357433E+01  0.32847219563E+03  0.35219870917E+03  0.76915206648E+02 0.  0.
          5    1    5    5  501    0  0.10058980395E+02  0.17650076863E+00 -0.14546566338E+02  0.18300459867E+02  0.47000000000E+01 0. -1.
        -11    1    6    6    0    0 -0.15518996015E+02 -0.14995379238E+02  0.12973843931E+02  0.25179778834E+02  0.00000000000E+00 0.  1.
         12    1    6    6    0    0 -0.85499718932E+02  0.95900434948E+01  0.31549835170E+03  0.32701893034E+03  0.00000000000E+00 0. -1.
         -5    1    3    3    0  503  0.73927128701E+02 -0.20565704189E+02  0.76987148393E+01  0.77262725534E+02  0.47000000000E+01 0.  1.
         13    1    4    4    0    0 -0.25429486386E+02  0.74569189668E+01 -0.15541897789E+02  0.30721572310E+02  0.00000000000E+00 0. -1.
        -14    1    4    4    0    0  0.42462092235E+02  0.18337620197E+02 -0.11345850878E+03  0.12252400094E+03  0.00000000000E+00 0.  1.
<mgrwt>
<rscale>  2 0.19658338E+03</rscale>
<asrwt>0</asrwt>
<pdfrwt beam="1">  1       21 0.61048569E-01 0.19677483E+03</pdfrwt>
<pdfrwt beam="2">  1       21 0.31414118E-01 0.19677483E+03</pdfrwt>
<totfact> 0.24255110E+04</totfact>
</mgrwt>
</event>
<event>
12    1  0.1026879E-001  0.1948528E+03  0.7546771E-02  0.1154370E+00
         21   -1    0    0  503  502  0.00000000000E+00  0.00000000000E+00  0.30714054080E+04  0.30714054080E+04  0.00000000000E+00 0.  1.
         21   -1    0    0  501  503 -0.00000000000E+00 -0.00000000000E+00 -0.10312817114E+03  0.10312817114E+03  0.00000000000E+00 0.  1.
          6    2    1    2  501    0 -0.80726453038E+02 -0.36081585423E+02 -0.50247326217E+01  0.19491753725E+03  0.17363455118E+03 0.  0.
         24    2    3    3    0    0 -0.72300892843E+01  0.13599473333E+02 -0.49514085950E+02  0.95563042416E+02  0.80270981696E+02 0.  0.
         -6    2    1    2    0  502  0.80726453038E+02  0.36081585423E+02  0.29733019694E+04  0.29796160418E+04  0.17253554530E+03 0.  0.
        -24    2    5    5    0    0  0.57393645925E+02 -0.42058216968E+02  0.13894860524E+04  0.13936951114E+04  0.81557645309E+02 0.  0.
          5    1    3    3  501    0 -0.73496363754E+02 -0.49681058756E+02  0.44489353328E+02  0.99354494834E+02  0.47000000000E+01 0. -1.
        -11    1    4    4    0    0 -0.48177454342E+01 -0.30124101302E+01 -0.69347345181E+02  0.69579735337E+02  0.00000000000E+00 0.  1.
         12    1    4    4    0    0 -0.24123438501E+01  0.16611883463E+02  0.19833259231E+02  0.25983307080E+02  0.00000000000E+00 0. -1.
         -5    1    5    5    0  502  0.23332807113E+02  0.78139802391E+02  0.15838159170E+04  0.15859209305E+04  0.47000000000E+01 0.  1.
         13    1    6    6    0    0  0.47905022878E+01 -0.39232842117E+02  0.26056072239E+03  0.26354137221E+03  0.00000000000E+00 0. -1.
        -14    1    6    6    0    0  0.52603143637E+02 -0.28253748507E+01  0.11289253300E+04  0.11301537392E+04  0.00000000000E+00 0.  1.
<mgrwt>
<rscale>  2 0.19460763E+03</rscale>
<asrwt>0</asrwt>
<pdfrwt beam="1">  1       21 0.47252384E+00 0.19485276E+03</pdfrwt>
<pdfrwt beam="2">  1       21 0.15865875E-01 0.19485276E+03</pdfrwt>
<totfact> 0.10352066E+02</totfact>
</mgrwt>
</event>
<event>
12    1  0.1026879E-001  0.1911448E+03  0.7546771E-02  0.1158723E+00
         21   -1    0    0  501  502  0.00000000000E+00  0.00000000000E+00  0.94568422477E+02  0.94568422477E+02  0.00000000000E+00 0. -1.
         21   -1    0    0  502  503 -0.00000000000E+00 -0.00000000000E+00 -0.46206113364E+03  0.46206113364E+03  0.00000000000E+00 0. -1.
         -6    2    1    2    0  503 -0.10625430085E+02 -0.79358899290E+02 -0.30232138653E+03  0.35467992803E+03  0.16729882227E+03 0.  0.
        -24    2    3    3    0    0 -0.31999858724E+02  0.10189787592E+02 -0.10292435517E+03  0.13500494166E+03  0.80654129809E+02 0.  0.
          6    2    1    2  501    0  0.10625430085E+02  0.79358899290E+02 -0.65171324634E+02  0.20194962809E+03  0.17356732431E+03 0.  0.
         24    2    5    5    0    0  0.36617555329E+02  0.50821401070E+02  0.24374859096E+02  0.10432489557E+03  0.79786527147E+02 0.  0.
          5    1    5    5  501    0 -0.25992125244E+02  0.28537498220E+02 -0.89546183730E+02  0.97624732522E+02  0.47000000000E+01 0. -1.
        -11    1    6    6    0    0  0.57553997797E+02  0.14495619388E+02  0.11403693393E+02  0.60436990882E+02  0.00000000000E+00 0.  1.
         12    1    6    6    0    0 -0.20936442467E+02  0.36325781682E+02  0.12971165703E+02  0.43887904685E+02  0.00000000000E+00 0. -1.
         -5    1    3    3    0  503  0.21374428639E+02 -0.89548686882E+02 -0.19939703136E+03  0.21967498637E+03  0.47000000000E+01 0.  1.
         11    1    4    4    0    0  0.19633663171E+02 -0.16282671383E+02 -0.14789494817E+02  0.29484492090E+02  0.00000000000E+00 0. -1.
        -12    1    4    4    0    0 -0.51633521895E+02  0.26472458975E+02 -0.88134860350E+02  0.10552044957E+03  0.00000000000E+00 0.  1.
<mgrwt>
<rscale>  2 0.18971041E+03</rscale>
<asrwt>0</asrwt>
<pdfrwt beam="1">  1       21 0.14548988E-01 0.19114484E+03</pdfrwt>
<pdfrwt beam="2">  1       21 0.71086327E-01 0.19114484E+03</pdfrwt>
<totfact> 0.74318215E+04</totfact>
</mgrwt>
</event>
<event>
12    1  0.1026879E-001  0.1870521E+03  0.7546771E-02  0.1162031E+00
         21   -1    0    0  501  502  0.00000000000E+00  0.00000000000E+00  0.97589882087E+03  0.97589882087E+03  0.00000000000E+00 0.  1.
         21   -1    0    0  502  503 -0.00000000000E+00 -0.00000000000E+00 -0.39142694291E+02  0.39142694291E+02  0.00000000000E+00 0.  1.
         -6    2    1    2    0  503 -0.15722595825E+02 -0.61260258629E+02  0.31016441355E+03  0.36220222244E+03  0.17603541463E+03 0.  0.
        -24    2    3    3    0    0 -0.43635684919E+02 -0.81422892194E+02  0.13198172894E+03  0.18066205766E+03  0.81766997819E+02 0.  0.
          6    2    1    2  501    0  0.15722595825E+02  0.61260258629E+02  0.62659171303E+03  0.65283929272E+03  0.17199403470E+03 0.  0.
         24    2    5    5    0    0  0.36900709954E+02  0.10282953670E+03  0.47315246726E+03  0.49239550337E+03  0.81513793033E+02 0.  0.
          5    1    5    5  501    0 -0.21178114128E+02 -0.41569278068E+02  0.15343924577E+03  0.16044378935E+03  0.47000000000E+01 0. -1.
        -11    1    6    6    0    0  0.27488566095E+02  0.23890965002E+02  0.29588862670E+03  0.29812158406E+03  0.00000000000E+00 0.  1.
         12    1    6    6    0    0  0.94121438586E+01  0.78938571695E+02  0.17726384057E+03  0.19427391931E+03  0.00000000000E+00 0. -1.
         -5    1    3    3    0  503  0.27913089093E+02  0.20162633566E+02  0.17818268460E+03  0.18154016478E+03  0.47000000000E+01 0.  1.
         11    1    4    4    0    0 -0.54331794061E+02 -0.52845987306E+02  0.12949823190E+03  0.15004810657E+03  0.00000000000E+00 0. -1.
        -12    1    4    4    0    0  0.10696109142E+02 -0.28576904888E+02  0.24834970411E+01  0.30613951090E+02  0.00000000000E+00 0.  1.
<mgrwt>
<rscale>  2 0.18609521E+03</rscale>
<asrwt>0</asrwt>
<pdfrwt beam="1">  1       21 0.15013826E+00 0.18705210E+03</pdfrwt>
<pdfrwt beam="2">  1       21 0.60219537E-02 0.18705210E+03</pdfrwt>
<totfact> 0.58604286E+04</totfact>
</mgrwt>
</event>
<event>
12    1  0.1026879E-001  0.1913287E+03  0.7546771E-02  0.1157664E+00
         21   -1    0    0  503  502  0.00000000000E+00  0.00000000000E+00  0.67926655731E+03  0.67926655731E+03  0.00000000000E+00 0.  1.
         21   -1    0    0  501  503 -0.00000000000E+00 -0.00000000000E+00 -0.53555926242E+02  0.53555926242E+02  0.00000000000E+00 0.  1.
          6    2    1    2  501    0  0.11093752392E+01 -0.83075471043E+02  0.29142826048E+03  0.34765838800E+03  0.17039119442E+03 0.  0.
         24    2    3    3    0    0 -0.48977496982E+02 -0.97490826815E+02  0.22288915270E+03  0.26142500382E+03  0.82220445802E+02 0.  0.
         -6    2    1    2    0  502 -0.11093752392E+01  0.83075471043E+02  0.33428237058E+03  0.38516409555E+03  0.17234823068E+03 0.  0.
        -24    2    5    5    0    0 -0.55700844108E+02  0.74380456416E+02  0.28678146093E+03  0.31212808956E+03  0.80903038460E+02 0.  0.
          5    1    3    3  501    0  0.50086872221E+02  0.14415355772E+02  0.68539107780E+02  0.86233384174E+02  0.47000000000E+01 0. -1.
        -11    1    4    4    0    0 -0.59056746589E+02 -0.65098345969E+02  0.96352483351E+02  0.13041968798E+03  0.00000000000E+00 0.  1.
         12    1    4    4    0    0  0.10079249607E+02 -0.32392480846E+02  0.12653666935E+03  0.13100531584E+03  0.00000000000E+00 0. -1.
         -5    1    5    5    0  502  0.54591468869E+02  0.86950146272E+01  0.47500909654E+02  0.73036005987E+02  0.47000000000E+01 0.  1.
         13    1    6    6    0    0 -0.93289289914E+01 -0.56969643164E+01  0.15213847834E+00  0.10931946975E+02  0.00000000000E+00 0. -1.
        -14    1    6    6    0    0 -0.46371915117E+02  0.80077420732E+02  0.28662932245E+03  0.30119614259E+03  0.00000000000E+00 0.  1.
<mgrwt>
<rscale>  2 0.19088694E+03</rscale>
<asrwt>0</asrwt>
<pdfrwt beam="1">  1       21 0.10450254E+00 0.19132872E+03</pdfrwt>
<pdfrwt beam="2">  1       21 0.82393738E-02 0.19132872E+03</pdfrwt>
<totfact> 0.84291270E+04</totfact>
</mgrwt>
</event>
<event>
12    1  0.1026879E-001  0.1861828E+03  0.7546771E-02  0.1161978E+00
         21   -1    0    0  501  502  0.00000000000E+00  0.00000000000E+00  0.21046017528E+03  0.21046017528E+03  0.00000000000E+00 0. -1.
         21   -1    0    0  502  503 -0.00000000000E+00 -0.00000000000E+00 -0.53477968998E+03  0.53477968998E+03  0.00000000000E+00 0. -1.
         -6    2    1    2    0  503  0.24818729059E+02  0.64901880193E+02 -0.47219215068E+03  0.50757211033E+03  0.17273041613E+03 0.  0.
        -24    2    3    3    0    0  0.50983246584E+00 -0.76201818247E+01 -0.94828384730E+02  0.12250604615E+03  0.77181485424E+02 0.  0.
          6    2    1    2  501    0 -0.24818729059E+02 -0.64901880193E+02  0.14787263598E+03  0.23766775493E+03  0.17260191742E+03 0.  0.
         24    2    5    5    0    0 -0.49581692982E+02 -0.81332103670E+02  0.16217784337E+03  0.20435280958E+03  0.79907212049E+02 0.  0.
          5    1    5    5  501    0  0.24762963922E+02  0.16430223476E+02 -0.14305207385E+02  0.33314945356E+02  0.47000000000E+01 0. -1.
        -13    1    6    6    0    0 -0.61882944069E+02 -0.28833735012E+02  0.10904062067E+03  0.12864967935E+03  0.00000000000E+00 0.  1.
         14    1    6    6    0    0  0.12301251088E+02 -0.52498368658E+02  0.53137222692E+02  0.75703130223E+02  0.00000000000E+00 0. -1.
         -5    1    3    3    0  503  0.24308896593E+02  0.72522062018E+02 -0.37736376595E+03  0.38506606418E+03  0.47000000000E+01 0.  1.
         13    1    4    4    0    0  0.20284108519E+00 -0.10784533869E+01 -0.10788948424E+03  0.10789506483E+03  0.00000000000E+00 0. -1.
        -14    1    4    4    0    0  0.30699138065E+00 -0.65417284378E+01  0.13061099507E+02  0.14610981316E+02  0.00000000000E+00 0.  1.
<mgrwt>
<rscale>  2 0.18615295E+03</rscale>
<asrwt>0</asrwt>
<pdfrwt beam="1">  1       21 0.32378489E-01 0.18618276E+03</pdfrwt>
<pdfrwt beam="2">  1       21 0.82273798E-01 0.18618276E+03</pdfrwt>
<totfact> 0.11897381E+04</totfact>
</mgrwt>
</event>
<event>
12    1  0.1026879E-001  0.2684271E+03  0.7546771E-02  0.1102630E+00
         21   -1    0    0  503  502  0.00000000000E+00  0.00000000000E+00  0.10279277902E+04  0.10279277902E+04  0.00000000000E+00 0.  1.
         21   -1    0    0  501  503 -0.00000000000E+00 -0.00000000000E+00 -0.70860298869E+02  0.70860298869E+02  0.00000000000E+00 0. -1.
          6    2    1    2  501    0 -0.11742099457E+03 -0.16320346094E+03  0.56290190073E+03  0.62362780247E+03  0.17784832453E+03 0.  0.
         24    2    3    3    0    0 -0.12661611724E+03 -0.17872685155E+03  0.42683933925E+03  0.48629376964E+03  0.79466220816E+02 0.  0.
         -6    2    1    2    0  502  0.11742099457E+03  0.16320346094E+03  0.39416559058E+03  0.47516028658E+03  0.17316964374E+03 0.  0.
        -24    2    5    5    0    0  0.17673124683E+01  0.44595746636E+02  0.93870856958E+02  0.13216964368E+03  0.81640510239E+02 0.  0.
          5    1    3    3  501    0  0.91951226612E+01  0.15523390609E+02  0.13606256148E+03  0.13733403283E+03  0.47000000000E+01 0. -1.
        -11    1    4    4    0    0 -0.11363418602E+01 -0.10715833136E+02  0.81971364778E+02  0.82676629081E+02  0.00000000000E+00 0.  1.
         12    1    4    4    0    0 -0.12547977538E+03 -0.16801101841E+03  0.34486797447E+03  0.40361714056E+03  0.00000000000E+00 0. -1.
         -5    1    5    5    0  502  0.11565368211E+03  0.11860771431E+03  0.30029473362E+03  0.34299064290E+03  0.47000000000E+01 0.  1.
         13    1    6    6    0    0 -0.17137169755E+02  0.58510265854E+02  0.89499812397E+02  0.10829289089E+03  0.00000000000E+00 0. -1.
        -14    1    6    6    0    0  0.18904482223E+02 -0.13914519219E+02  0.43710445616E+01  0.23876752789E+02  0.00000000000E+00 0.  1.
<mgrwt>
<rscale>  2 0.26765454E+03</rscale>
<asrwt>0</asrwt>
<pdfrwt beam="1">  1       21 0.15814273E+00 0.26842706E+03</pdfrwt>
<pdfrwt beam="2">  1       21 0.10901585E-01 0.26842706E+03</pdfrwt>
<totfact> 0.17266145E+04</totfact>
</mgrwt>
</event>
<event>
12    1  0.1026879E-001  0.2294766E+03  0.7546771E-02  0.1127067E+00
         21   -1    0    0  501  502  0.00000000000E+00  0.00000000000E+00  0.86782669452E+03  0.86782669452E+03  0.00000000000E+00 0.  1.
         21   -1    0    0  502  503 -0.00000000000E+00 -0.00000000000E+00 -0.11989638734E+03  0.11989638734E+03  0.00000000000E+00 0.  1.
         -6    2    1    2    0  503 -0.12604741387E+03 -0.84009989900E+02  0.26494886886E+02  0.23067053147E+03  0.17193395858E+03 0.  0.
        -24    2    3    3    0    0 -0.11630896313E+03 -0.26271711673E+01 -0.11162064862E+02  0.14034812770E+03  0.77706681343E+02 0.  0.
          6    2    1    2  501    0  0.12604741387E+03  0.84009989900E+02  0.72143542029E+03  0.75705255039E+03  0.17237711408E+03 0.  0.
         24    2    5    5    0    0  0.45719786210E+02 -0.80546709384E+01  0.44800569066E+03  0.45752903448E+03  0.80427246321E+02 0.  0.
          5    1    5    5  501    0  0.80327627656E+02  0.92064660838E+02  0.27342972963E+03  0.29952351592E+03  0.47000000000E+01 0. -1.
        -11    1    6    6    0    0  0.69068661052E+02 -0.52534554302E+01  0.32603333177E+03  0.33331038411E+03  0.00000000000E+00 0.  1.
         12    1    6    6    0    0 -0.23348874842E+02 -0.28012155082E+01  0.12197235890E+03  0.12421865037E+03  0.00000000000E+00 0. -1.
         -5    1    3    3    0  503 -0.97384507348E+01 -0.81382818733E+02  0.37656951747E+02  0.90322403768E+02  0.47000000000E+01 0.  1.
         11    1    4    4    0    0 -0.63094356338E+02  0.30918907181E+02  0.15620414554E+02  0.71978288211E+02  0.00000000000E+00 0. -1.
        -12    1    4    4    0    0 -0.53214606793E+02 -0.33546078349E+02 -0.26782479415E+02  0.68369839493E+02  0.00000000000E+00 0.  1.
<mgrwt>
<rscale>  2 0.22939335E+03</rscale>
<asrwt>0</asrwt>
<pdfrwt beam="1">  1       21 0.13351180E+00 0.22947657E+03</pdfrwt>
<pdfrwt beam="2">  1       21 0.18445599E-01 0.22947657E+03</pdfrwt>
<totfact> 0.10569642E+04</totfact>
</mgrwt>
</event>
<event>
12    1  0.1026879E-001  0.1814534E+03  0.7546771E-02  0.1167492E+00
         21   -1    0    0  501  502  0.00000000000E+00  0.00000000000E+00  0.70410520700E+03  0.70410520700E+03  0.00000000000E+00 0.  1.
         21   -1    0    0  502  503 -0.00000000000E+00 -0.00000000000E+00 -0.45673365175E+02  0.45673365175E+02  0.00000000000E+00 0.  1.
         -6    2    1    2    0  503 -0.55154898052E+02 -0.16386232343E+01  0.31152649923E+03  0.35828315338E+03  0.16814669312E+03 0.  0.
        -24    2    3    3    0    0 -0.55337920219E+02  0.26935596307E+02  0.31345493623E+03  0.32926025916E+03  0.79815471253E+02 0.  0.
          6    2    1    2  501    0  0.55154898052E+02  0.16386232343E+01  0.34690534259E+03  0.39149541879E+03  0.17286005423E+03 0.  0.
         24    2    5    5    0    0  0.16774367622E+02  0.56290220934E+02  0.27954740100E+03  0.29652676847E+03  0.79570136579E+02 0.  0.
          5    1    5    5  501    0  0.38380530430E+02 -0.54651597700E+02  0.67357941598E+02  0.94968650320E+02  0.47000000000E+01 0. -1.
        -11    1    6    6    0    0 -0.65892128054E+01 -0.13979678762E+02  0.14019476244E+02  0.20866117460E+02  0.00000000000E+00 0.  1.
         12    1    6    6    0    0  0.23363580427E+02  0.70269899696E+02  0.26552792475E+03  0.27566065101E+03  0.00000000000E+00 0. -1.
         -5    1    3    3    0  503  0.18302216740E+00 -0.28574219542E+02 -0.19284370042E+01  0.29022894218E+02  0.47000000000E+01 0.  1.
         11    1    4    4    0    0 -0.62200215430E+02 -0.95439143999E+01  0.17730354518E+03  0.18813957647E+03  0.00000000000E+00 0. -1.
        -12    1    4    4    0    0  0.68622952109E+01  0.36479510707E+02  0.13615139105E+03  0.14112068269E+03  0.00000000000E+00 0.  1.
<mgrwt>
<rscale>  2 0.18032180E+03</rscale>
<asrwt>0</asrwt>
<pdfrwt beam="1">  1       21 0.10832387E+00 0.18145343E+03</pdfrwt>
<pdfrwt beam="2">  1       21 0.70266721E-02 0.18145343E+03</pdfrwt>
<totfact> 0.10233246E+05</totfact>
</mgrwt>
</event>
<event>
12    1  0.1026879E-001  0.1891560E+03  0.7546771E-02  0.1160246E+00
         21   -1    0    0  501  502  0.00000000000E+00  0.00000000000E+00  0.34961191533E+02  0.34961191533E+02  0.00000000000E+00 0. -1.
         21   -1    0    0  502  503 -0.00000000000E+00 -0.00000000000E+00 -0.10010059596E+04  0.10010059596E+04  0.00000000000E+00 0. -1.
         -6    2    1    2    0  503 -0.33172286178E+02 -0.54850720435E+02 -0.45719266672E+03  0.49309474049E+03  0.17322900016E+03 0.  0.
        -24    2    3    3    0    0 -0.46117703949E+02 -0.41496880135E+02 -0.12841407297E+03  0.16375697679E+03  0.80481921149E+02 0.  0.
          6    2    1    2  501    0  0.33172286178E+02  0.54850720435E+02 -0.50885210132E+03  0.54287241062E+03  0.17796345436E+03 0.  0.
         24    2    5    5    0    0  0.16489951581E+02 -0.31719417778E+02 -0.15584777866E+03  0.17899491621E+03  0.80452532269E+02 0.  0.
          5    1    5    5  501    0  0.16682334597E+02  0.86570138214E+02 -0.35300432266E+03  0.36387749441E+03  0.47000000000E+01 0. -1.
        -11    1    6    6    0    0 -0.31746940272E+02 -0.30065316805E+01 -0.57943863174E+02  0.66139237438E+02  0.00000000000E+00 0.  1.
         12    1    6    6    0    0  0.48236891852E+02 -0.28712886098E+02 -0.97903915485E+02  0.11285567877E+03  0.00000000000E+00 0. -1.
         -5    1    3    3    0  503  0.12945417771E+02 -0.13353840300E+02 -0.32877859375E+03  0.32933776370E+03  0.47000000000E+01 0.  1.
         13    1    4    4    0    0 -0.40575769071E+02  0.80994384590E+01 -0.95218680990E+02  0.10381999397E+03  0.00000000000E+00 0. -1.
        -14    1    4    4    0    0 -0.55419348777E+01 -0.49596318594E+02 -0.33195391977E+02  0.59936982813E+02  0.00000000000E+00 0.  1.
<mgrwt>
<rscale>  2 0.18803423E+03</rscale>
<asrwt>0</asrwt>
<pdfrwt beam="1">  1       21 0.53786446E-02 0.18915600E+03</pdfrwt>
<pdfrwt beam="2">  1       21 0.15400092E+00 0.18915600E+03</pdfrwt>
<totfact> 0.66377438E+04</totfact>
</mgrwt>
</event>
<event>
12    1  0.1026879E-001  0.2220846E+03  0.7546771E-02  0.1132352E+00
         21   -1    0    0  501  502  0.00000000000E+00  0.00000000000E+00  0.43000090584E+03  0.43000090584E+03  0.00000000000E+00 0. -1.
         21   -1    0    0  502  503 -0.00000000000E+00 -0.00000000000E+00 -0.16782984337E+03  0.16782984337E+03  0.00000000000E+00 0.  1.
         -6    2    1    2    0  503  0.97116326228E+02 -0.98482960732E+02 -0.37169284514E+02  0.22510266702E+03  0.17366398767E+03 0.  0.
        -24    2    3    3    0    0  0.10015740382E+03 -0.62345533844E+02  0.32762308754E+02  0.14618701894E+03  0.79867418266E+02 0.  0.
          6    2    1    2  501    0 -0.97116326228E+02  0.98482960732E+02  0.29934034699E+03  0.37272808220E+03  0.17375587918E+03 0.  0.
         24    2    5    5    0    0 -0.11682417052E+02  0.74916352108E+02  0.24620947715E+03  0.26929057832E+03  0.78417920471E+02 0.  0.
          5    1    5    5  501    0 -0.85433909176E+02  0.23566608623E+02  0.53130869833E+02  0.10343750388E+03  0.47000000000E+01 0. -1.
        -13    1    6    6    0    0 -0.58465238923E+01  0.56202117324E+02  0.61396788700E+02  0.83441149896E+02  0.00000000000E+00 0.  1.
         14    1    6    6    0    0 -0.58358931598E+01  0.18714234784E+02  0.18481268845E+03  0.18584942842E+03  0.00000000000E+00 0. -1.
         -5    1    3    3    0  503 -0.30410775903E+01 -0.36137426887E+02 -0.69931593268E+02  0.78915648080E+02  0.47000000000E+01 0.  1.
         13    1    4    4    0    0  0.36899500124E+02 -0.66849483578E+02  0.31927538571E+02  0.82763483997E+02  0.00000000000E+00 0. -1.
        -14    1    4    4    0    0  0.63257903694E+02  0.45039497334E+01  0.83477018226E+00  0.63423534939E+02  0.00000000000E+00 0.  1.
<mgrwt>
<rscale>  2 0.22206665E+03</rscale>
<asrwt>0</asrwt>
<pdfrwt beam="1">  1       21 0.66153985E-01 0.22208462E+03</pdfrwt>
<pdfrwt beam="2">  1       21 0.25819976E-01 0.22208462E+03</pdfrwt>
<totfact> 0.29399242E+04</totfact>
</mgrwt>
</event>
<event>
12    1  0.1026879E-001  0.1952106E+03  0.7546771E-02  0.1153870E+00
         21   -1    0    0  501  502  0.00000000000E+00  0.00000000000E+00  0.91335029655E+03  0.91335029655E+03  0.00000000000E+00 0. -1.
         21   -1    0    0  502  503 -0.00000000000E+00 -0.00000000000E+00 -0.70309834693E+02  0.70309834693E+02  0.00000000000E+00 0.  1.
         -6    2    1    2    0  503  0.50461351952E+01  0.89109137288E+02  0.10784434598E+03  0.22301922703E+03  0.17361241556E+03 0.  0.
        -24    2    3    3    0    0 -0.55314436758E+02  0.13813403175E+02  0.51065686516E+02  0.11095338749E+03  0.80327161246E+02 0.  0.
          6    2    1    2  501    0 -0.50461351952E+01 -0.89109137288E+02  0.73519611587E+03  0.76064090421E+03  0.17348012720E+03 0.  0.
         24    2    5    5    0    0 -0.29776648638E+02 -0.89028011541E+02  0.72058025475E+03  0.73153217231E+03  0.84206768999E+02 0.  0.
          5    1    5    5  501    0  0.24730513443E+02 -0.81125746530E-01  0.14615861124E+02  0.29108731902E+02  0.47000000000E+01 0. -1.
        -11    1    6    6    0    0 -0.45387466947E+01 -0.60463333054E+02  0.18683087558E+03  0.19642349893E+03  0.00000000000E+00 0.  1.
         12    1    6    6    0    0 -0.25237901943E+02 -0.28564678488E+02  0.53374937917E+03  0.53510867337E+03  0.00000000000E+00 0. -1.
         -5    1    3    3    0  503  0.60360571954E+02  0.75295734113E+02  0.56778659465E+02  0.11206583954E+03  0.47000000000E+01 0.  1.
         11    1    4    4    0    0  0.54655590386E+01  0.26331074944E+01  0.48733495696E+02  0.49109664970E+02  0.00000000000E+00 0. -1.
        -12    1    4    4    0    0 -0.60779995797E+02  0.11180295680E+02  0.23321908205E+01  0.61843722516E+02  0.00000000000E+00 0.  1.
<mgrwt>
<rscale>  2 0.19518117E+03</rscale>
<asrwt>0</asrwt>
<pdfrwt beam="1">  1       21 0.14051542E+00 0.19521059E+03</pdfrwt>
<pdfrwt beam="2">  1       21 0.10816898E-01 0.19521059E+03</pdfrwt>
<totfact> 0.24986705E+04</totfact>
</mgrwt>
</event>
<event>
12    1  0.1026879E-001  0.2164284E+03  0.7546771E-02  0.1136725E+00
         21   -1    0    0  503  502  0.00000000000E+00  0.00000000000E+00  0.21135963824E+03  0.21135963824E+03  0.00000000000E+00 0.  1.
         21   -1    0    0  501  503 -0.00000000000E+00 -0.00000000000E+00 -0.22121042341E+03  0.22121042341E+03  0.00000000000E+00 0. -1.
          6    2    1    2  501    0  0.37661923824E+02 -0.12350863074E+03 -0.14118605487E+02  0.21609962002E+03  0.17270468545E+03 0.  0.
         24    2    3    3    0    0  0.80581776519E+02 -0.91158350412E+02  0.27963394164E+02  0.14767711577E+03  0.78887968364E+02 0.  0.
         -6    2    1    2    0  502 -0.37661923824E+02  0.12350863074E+03  0.42678203102E+01  0.21647044164E+03  0.17369063141E+03 0.  0.
        -24    2    5    5    0    0 -0.66109357968E+02  0.11143700192E+03  0.50891833371E+02  0.16033783680E+03  0.79558724218E+02 0.  0.
          5    1    3    3  501    0 -0.42919852695E+02 -0.32350280326E+02 -0.42081999651E+02  0.68422504245E+02  0.47000000000E+01 0. -1.
        -13    1    4    4    0    0  0.16550024428E+02 -0.86657727467E+01  0.38426327129E+02  0.42726824624E+02  0.00000000000E+00 0.  1.
         14    1    4    4    0    0  0.64031752091E+02 -0.82492577665E+02 -0.10462932964E+02  0.10495029115E+03  0.00000000000E+00 0. -1.
         -5    1    5    5    0  502  0.28447434144E+02  0.12071628822E+02 -0.46624013061E+02  0.56132604836E+02  0.47000000000E+01 0.  1.
         13    1    6    6    0    0  0.12951716466E+02 -0.25359902378E+01  0.25250137667E+01  0.13437034659E+02  0.00000000000E+00 0. -1.
        -14    1    6    6    0    0 -0.79061074434E+02  0.11397299215E+03  0.48366819605E+02  0.14690080214E+03  0.00000000000E+00 0.  1.
<mgrwt>
<rscale>  2 0.21623048E+03</rscale>
<asrwt>0</asrwt>
<pdfrwt beam="1">  1       21 0.32516867E-01 0.21642837E+03</pdfrwt>
<pdfrwt beam="2">  1       21 0.34032373E-01 0.21642837E+03</pdfrwt>
<totfact> 0.74944026E+04</totfact>
</mgrwt>
</event>
<event>
12    1  0.1026879E-001  0.3681677E+03  0.7546771E-02  0.1055453E+00
         21   -1    0    0  503  502  0.00000000000E+00  0.00000000000E+00  0.70249520823E+03  0.70249520823E+03  0.00000000000E+00 0.  1.
         21   -1    0    0  501  503 -0.00000000000E+00 -0.00000000000E+00 -0.44735875441E+03  0.44735875441E+03  0.00000000000E+00 0. -1.
          6    2    1    2  501    0 -0.70119552159E+02 -0.31704088965E+03 -0.30621463290E+03  0.47886831160E+03  0.17353899027E+03 0.  0.
         24    2    3    3    0    0  0.24700276414E+02 -0.11323107680E+03 -0.87869646090E+02  0.16545825597E+03  0.78892200853E+02 0.  0.
         -6    2    1    2    0  502  0.70119552159E+02  0.31704088965E+03  0.56135108672E+03  0.67098565104E+03  0.17226440155E+03 0.  0.
        -24    2    5    5    0    0  0.11057719958E+03  0.18376563192E+03  0.35158584213E+03  0.41914708491E+03  0.77939398608E+02 0.  0.
          5    1    3    3  501    0 -0.94819828573E+02 -0.20380981285E+03 -0.21834498681E+03  0.31341005563E+03  0.47000000000E+01 0. -1.
        -13    1    4    4    0    0  0.32357587663E+02 -0.59855110876E+02 -0.88374577665E+02  0.11153346473E+03  0.00000000000E+00 0.  1.
         14    1    4    4    0    0 -0.76573112495E+01 -0.53375965925E+02  0.50493157552E+00  0.53924791236E+02  0.00000000000E+00 0. -1.
         -5    1    5    5    0  502 -0.40457647424E+02  0.13327525773E+03  0.20976524459E+03  0.25183856614E+03  0.47000000000E+01 0.  1.
         11    1    6    6    0    0  0.76493672815E+02  0.56000577148E+02  0.12630702682E+03  0.15792660209E+03  0.00000000000E+00 0. -1.
        -12    1    6    6    0    0  0.34083526768E+02  0.12776505478E+03  0.22527881531E+03  0.26122048282E+03  0.00000000000E+00 0.  1.
<mgrwt>
<rscale>  2 0.36801785E+03</rscale>
<asrwt>0</asrwt>
<pdfrwt beam="1">  1       21 0.10807619E+00 0.36816770E+03</pdfrwt>
<pdfrwt beam="2">  1       21 0.68824424E-01 0.36816770E+03</pdfrwt>
<totfact> 0.11586583E+03</totfact>
</mgrwt>
</event>
<event>
12    1  0.1026879E-001  0.2515145E+03  0.7546771E-02  0.1112704E+00
         21   -1    0    0  503  502  0.00000000000E+00  0.00000000000E+00  0.15029294496E+03  0.15029294496E+03  0.00000000000E+00 0.  1.
         21   -1    0    0  501  503 -0.00000000000E+00 -0.00000000000E+00 -0.58200189134E+03  0.58200189134E+03  0.00000000000E+00 0.  1.
          6    2    1    2  501    0  0.50205262802E+02 -0.17328396961E+03 -0.41001586672E+03  0.47984654591E+03  0.17202265583E+03 0.  0.
         24    2    3    3    0    0  0.78810900232E+02 -0.18374393512E+03 -0.33163120662E+03  0.39562102537E+03  0.81016953903E+02 0.  0.
         -6    2    1    2    0  502 -0.50205262802E+02  0.17328396961E+03 -0.21693079662E+02  0.25244829040E+03  0.17524738824E+03 0.  0.
        -24    2    5    5    0    0 -0.68121677061E+02  0.78131961651E+02  0.52397007021E+02  0.13043872740E+03  0.59360331409E+02 0.  0.
          5    1    3    3  501    0 -0.28605637430E+02  0.10459965509E+02 -0.78384660097E+02  0.84225520537E+02  0.47000000000E+01 0. -1.
        -11    1    4    4    0    0  0.26344381172E+02 -0.15218702958E+03 -0.24121108517E+03  0.28642225123E+03  0.00000000000E+00 0.  1.
         12    1    4    4    0    0  0.52466519060E+02 -0.31556905537E+02 -0.90420121451E+02  0.10919877413E+03  0.00000000000E+00 0. -1.
         -5    1    5    5    0  502  0.17916414259E+02  0.95152007960E+02 -0.74090086683E+02  0.12200956300E+03  0.47000000000E+01 0.  1.
         11    1    6    6    0    0 -0.67881843992E+02  0.51371371957E+02  0.18265582842E+02  0.87066607359E+02  0.00000000000E+00 0. -1.
        -12    1    6    6    0    0 -0.23983306853E+00  0.26760589694E+02  0.34131424178E+02  0.43372120044E+02  0.00000000000E+00 0.  1.
<mgrwt>
<rscale>  2 0.25095360E+03</rscale>
<asrwt>0</asrwt>
<pdfrwt beam="1">  1       21 0.23121991E-01 0.25151451E+03</pdfrwt>
<pdfrwt beam="2">  1       21 0.89538755E-01 0.25151451E+03</pdfrwt>
<totfact> 0.18068625E+04</totfact>
</mgrwt>
</event>
<event>
12    1  0.1026879E-001  0.4109049E+03  0.7546771E-02  0.1040082E+00
         21   -1    0    0  503  502  0.00000000000E+00  0.00000000000E+00  0.10558173075E+04  0.10558173075E+04  0.00000000000E+00 0.  1.
         21   -1    0    0  501  503 -0.00000000000E+00 -0.00000000000E+00 -0.22460736620E+03  0.22460736620E+03  0.00000000000E+00 0. -1.
          6    2    1    2  501    0  0.33733485992E+03  0.15847371321E+03  0.71906646567E+02  0.41714912582E+03  0.17301474461E+03 0.  0.
         24    2    3    3    0    0  0.30683232484E+03  0.94289125733E+02  0.90649920893E+02  0.34350493903E+03  0.82107978762E+02 0.  0.
         -6    2    1    2    0  502 -0.33733485992E+03 -0.15847371321E+03  0.75930329469E+03  0.86327554784E+03  0.17261069686E+03 0.  0.
        -24    2    5    5    0    0 -0.20657133373E+03 -0.10416099592E+03  0.32967830782E+03  0.41089441385E+03  0.81395354286E+02 0.  0.
          5    1    3    3  501    0  0.30502535081E+02  0.64184587475E+02 -0.18743274327E+02  0.73644186791E+02  0.47000000000E+01 0. -1.
        -13    1    4    4    0    0  0.10261736994E+03  0.37899154425E+01  0.57497478283E+02  0.11768877636E+03  0.00000000000E+00 0.  1.
         14    1    4    4    0    0  0.20421495490E+03  0.90499210291E+02  0.33152442611E+02  0.22581616266E+03  0.00000000000E+00 0. -1.
         -5    1    5    5    0  502 -0.13076352620E+03 -0.54312717292E+02  0.42962498687E+03  0.45238113399E+03  0.47000000000E+01 0.  1.
         13    1    6    6    0    0 -0.70092041124E+02 -0.80157718521E+02  0.13520782586E+03  0.17210261544E+03  0.00000000000E+00 0. -1.
        -14    1    6    6    0    0 -0.13647929260E+03 -0.24003277396E+02  0.19447048196E+03  0.23879179841E+03  0.00000000000E+00 0.  1.
<mgrwt>
<rscale>  2 0.41086239E+03</rscale>
<asrwt>0</asrwt>
<pdfrwt beam="1">  1       21 0.16243343E+00 0.41090489E+03</pdfrwt>
<pdfrwt beam="2">  1       21 0.34554980E-01 0.41090489E+03</pdfrwt>
<totfact> 0.16873988E+03</totfact>
</mgrwt>
</event>
<event>
12    1  0.1026879E-001  0.1840104E+03  0.7546771E-02  0.1164281E+00
         21   -1    0    0  503  502  0.00000000000E+00  0.00000000000E+00  0.11898537928E+04  0.11898537928E+04  0.00000000000E+00 0.  1.
         21   -1    0    0  501  503 -0.00000000000E+00 -0.00000000000E+00 -0.28288105280E+02  0.28288105280E+02  0.00000000000E+00 0.  1.
          6    2    1    2  501    0 -0.34313281645E+02 -0.45107054765E+02  0.55903350415E+03  0.58813802747E+03  0.17371192507E+03 0.  0.
         24    2    3    3    0    0  0.12172338996E+01 -0.53628693977E+02  0.52341401971E+03  0.53689474946E+03  0.10684670090E+03 0.  0.
         -6    2    1    2    0  502  0.34313281645E+02  0.45107054765E+02  0.60253218341E+03  0.63000387064E+03  0.17506512301E+03 0.  0.
        -24    2    5    5    0    0 -0.84045828653E+01  0.14215126316E+02  0.13441411259E+03  0.15890330238E+03  0.83128809774E+02 0.  0.
          5    1    3    3  501    0 -0.35530515545E+02  0.85216392125E+01  0.35619484436E+02  0.51243278010E+02  0.47000000000E+01 0. -1.
        -11    1    4    4    0    0 -0.12930281165E+02 -0.79579976783E+02  0.27050016425E+03  0.28225963887E+03  0.00000000000E+00 0.  1.
         12    1    4    4    0    0  0.14147515065E+02  0.25951282806E+02  0.25291385546E+03  0.25463511059E+03  0.00000000000E+00 0. -1.
         -5    1    5    5    0  502  0.42717864510E+02  0.30891928449E+02  0.46811807082E+03  0.47110056826E+03  0.47000000000E+01 0.  1.
         13    1    6    6    0    0  0.10062881599E+02  0.50688586492E+01  0.13759100707E+03  0.13805158507E+03  0.00000000000E+00 0. -1.
        -14    1    6    6    0    0 -0.18467464464E+02  0.91462676664E+01 -0.31768944846E+01  0.20851717304E+02  0.00000000000E+00 0.  1.
<mgrwt>
<rscale>  2 0.18368787E+03</rscale>
<asrwt>0</asrwt>
<pdfrwt beam="1">  1       21 0.18305439E+00 0.18401045E+03</pdfrwt>
<pdfrwt beam="2">  1       21 0.43520171E-02 0.18401045E+03</pdfrwt>
<totfact> 0.59309933E+04</totfact>
</mgrwt>
</event>
<event>
12    1  0.1026879E-001  0.1931316E+03  0.7546771E-02  0.1155767E+00
         21   -1    0    0  501  502  0.00000000000E+00  0.00000000000E+00  0.18282757182E+04  0.18282757182E+04  0.00000000000E+00 0.  1.
         21   -1    0    0  502  503 -0.00000000000E+00 -0.00000000000E+00 -0.41279085337E+02  0.41279085337E+02  0.00000000000E+00 0.  1.
         -6    2    1    2    0  503  0.69140638350E+02  0.50050536766E+02  0.22743406675E+03  0.29807931469E+03  0.17274124877E+03 0.  0.
        -24    2    3    3    0    0  0.31701113555E+01  0.32481114907E+02  0.20977094565E+03  0.22740491435E+03  0.81511183300E+02 0.  0.
          6    2    1    2  501    0 -0.69140638350E+02 -0.50050536766E+02  0.15595625661E+04  0.15714754889E+04  0.17324644389E+03 0.  0.
         24    2    5    5    0    0 -0.11502184781E+03 -0.39244732709E+02  0.11788040981E+04  0.11877816633E+04  0.80473619926E+02 0.  0.
          5    1    5    5  501    0  0.45881209458E+02 -0.10805804057E+02  0.38075846803E+03  0.38369382554E+03  0.47000000000E+01 0. -1.
        -11    1    6    6    0    0 -0.94451036040E+02  0.78681904967E+00  0.94316313122E+03  0.94788095739E+03  0.00000000000E+00 0.  1.
         12    1    6    6    0    0 -0.20570811769E+02 -0.40031551759E+02  0.23564096691E+03  0.23990070596E+03  0.00000000000E+00 0. -1.
         -5    1    3    3    0  503  0.65970526995E+02  0.17569421860E+02  0.17663121106E+02  0.70674400342E+02  0.47000000000E+01 0.  1.
         11    1    4    4    0    0 -0.32970844729E+02 -0.31973782348E+01  0.11751463078E+03  0.12209417790E+03  0.00000000000E+00 0. -1.
        -12    1    4    4    0    0  0.36140956085E+02  0.35678493141E+02  0.92256314869E+02  0.10531073646E+03  0.00000000000E+00 0.  1.
<mgrwt>
<rscale>  2 0.19301824E+03</rscale>
<asrwt>0</asrwt>
<pdfrwt beam="1">  1       21 0.28127312E+00 0.19313160E+03</pdfrwt>
<pdfrwt beam="2">  1       21 0.63506300E-02 0.19313160E+03</pdfrwt>
<totfact> 0.78229924E+03</totfact>
</mgrwt>
</event>
<event>
12    1  0.1026879E-001  0.2873962E+03  0.7546771E-02  0.1091738E+00
         21   -1    0    0  501  502  0.00000000000E+00  0.00000000000E+00  0.22499419323E+04  0.22499419323E+04  0.00000000000E+00 0. -1.
         21   -1    0    0  502  503 -0.00000000000E+00 -0.00000000000E+00 -0.37320810737E+02  0.37320810737E+02  0.00000000000E+00 0.  1.
         -6    2    1    2    0  503 -0.13684676700E+03 -0.18496015336E+03  0.95724291907E+03  0.99940753884E+03  0.17194221880E+03 0.  0.
        -24    2    3    3    0    0 -0.13332754841E+03 -0.13814130970E+03  0.90664313821E+03  0.93022071318E+03  0.80309019123E+02 0.  0.
          6    2    1    2  501    0  0.13684676700E+03  0.18496015336E+03  0.12553782025E+04  0.12878552042E+04  0.17221875542E+03 0.  0.
         24    2    5    5    0    0  0.27757648873E+02  0.14865775835E+03  0.70252257843E+03  0.72315198069E+03  0.80877671772E+02 0.  0.
          5    1    5    5  501    0  0.10908911812E+03  0.36302395007E+02  0.55285562407E+03  0.56470322351E+03  0.47000000000E+01 0. -1.
        -11    1    6    6    0    0  0.35301538800E+02  0.15660551048E+03  0.65864293751E+03  0.67792477731E+03  0.00000000000E+00 0.  1.
         12    1    6    6    0    0 -0.75438899272E+01 -0.79477521286E+01  0.43879640916E+02  0.45227203385E+02  0.00000000000E+00 0. -1.
         -5    1    3    3    0  503 -0.35192185896E+01 -0.46818843667E+02  0.50599780861E+02  0.69186825660E+02  0.47000000000E+01 0.  1.
         13    1    4    4    0    0  0.28099010778E+01  0.64202546249E+01  0.12871348704E+02  0.14655607493E+02  0.00000000000E+00 0. -1.
        -14    1    4    4    0    0 -0.13613744949E+03 -0.14456156432E+03  0.89377178951E+03  0.91556510569E+03  0.00000000000E+00 0.  1.
<mgrwt>
<rscale>  2 0.28735482E+03</rscale>
<asrwt>0</asrwt>
<pdfrwt beam="1">  1       21 0.34614481E+00 0.28739623E+03</pdfrwt>
<pdfrwt beam="2">  1       21 0.57416650E-02 0.28739623E+03</pdfrwt>
<totfact> 0.35437773E+03</totfact>
</mgrwt>
</event>
<event>
12    1  0.1026879E-001  0.2137739E+03  0.7546771E-02  0.1138659E+00
         21   -1    0    0  503  502  0.00000000000E+00  0.00000000000E+00  0.16505599116E+03  0.16505599116E+03  0.00000000000E+00 0. -1.
         21   -1    0    0  501  503 -0.00000000000E+00 -0.00000000000E+00 -0.10856706444E+04  0.10856706444E+04  0.00000000000E+00 0.  1.
          6    2    1    2  501    0  0.80669007046E+02  0.10033697026E+03 -0.10001093290E+04  0.10226506034E+04  0.17035430806E+03 0.  0.
         24    2    3    3    0    0  0.60425029656E+02  0.80264851571E+01 -0.71947902083E+03  0.72649776418E+03  0.80208049968E+02 0.  0.
         -6    2    1    2    0  502 -0.80669007046E+02 -0.10033697026E+03  0.79494675807E+02  0.22807603217E+03  0.17065836244E+03 0.  0.
        -24    2    5    5    0    0 -0.88894496180E+02 -0.13183189299E+03  0.80931166815E+02  0.19515579013E+03  0.79082546735E+02 0.  0.
          5    1    3    3  501    0  0.20243977389E+02  0.92310485099E+02 -0.28063030821E+03  0.29615283920E+03  0.47000000000E+01 0. -1.
        -11    1    4    4    0    0  0.94029596315E+01 -0.33172896863E+02 -0.28959976211E+03  0.29164512502E+03  0.00000000000E+00 0.  1.
         12    1    4    4    0    0  0.51022070025E+02  0.41199382020E+02 -0.42987925872E+03  0.43485263916E+03  0.00000000000E+00 0. -1.
         -5    1    5    5    0  502  0.82254891338E+01  0.31494922736E+02 -0.14364910077E+01  0.32920242041E+02  0.47000000000E+01 0.  1.
         13    1    6    6    0    0 -0.87748763524E+01 -0.67819093550E+02  0.58925747516E+02  0.90269992939E+02  0.00000000000E+00 0. -1.
        -14    1    6    6    0    0 -0.80119619827E+02 -0.64012799443E+02  0.22005419299E+02  0.10488579719E+03  0.00000000000E+00 0.  1.
<mgrwt>
<rscale>  2 0.21371319E+03</rscale>
<asrwt>0</asrwt>
<pdfrwt beam="1">  1       21 0.25393230E-01 0.21377388E+03</pdfrwt>
<pdfrwt beam="2">  1       21 0.16702625E+00 0.21377388E+03</pdfrwt>
<totfact> 0.32309825E+03</totfact>
</mgrwt>
</event>
<event>
12    1  0.1026879E-001  0.1933287E+03  0.7546771E-02  0.1155992E+00
         21   -1    0    0  501  502  0.00000000000E+00  0.00000000000E+00  0.21928108600E+03  0.21928108600E+03  0.00000000000E+00 0.  1.
         21   -1    0    0  502  503 -0.00000000000E+00 -0.00000000000E+00 -0.70677332077E+03  0.70677332077E+03  0.00000000000E+00 0.  1.
         -6    2    1    2    0  503 -0.19466030943E+02 -0.84464444881E+02 -0.64817659106E+03  0.67639403016E+03  0.17280862836E+03 0.  0.
        -24    2    3    3    0    0 -0.15183024720E+02  0.15148413066E+02 -0.39880678539E+03  0.40778938465E+03  0.82373123683E+02 0.  0.
          6    2    1    2  501    0  0.19466030943E+02  0.84464444881E+02  0.16068435628E+03  0.24966037660E+03  0.17028702969E+03 0.  0.
         24    2    5    5    0    0  0.59423019033E+02  0.95241869540E+02  0.15488709270E+03  0.20760788506E+03  0.80677838044E+02 0.  0.
          5    1    5    5  501    0 -0.39956988090E+02 -0.10777424660E+02  0.57972635845E+01  0.42052491539E+02  0.47000000000E+01 0. -1.
        -13    1    6    6    0    0  0.41381003722E+02  0.53373391313E+02  0.14641032926E+03  0.16123613392E+03  0.00000000000E+00 0.  1.
         14    1    6    6    0    0  0.18042015311E+02  0.41868478227E+02  0.84767634436E+01  0.46371751142E+02  0.00000000000E+00 0. -1.
         -5    1    3    3    0  503 -0.42830062231E+01 -0.99612857947E+02 -0.24936980567E+03  0.26860464551E+03  0.47000000000E+01 0.  1.
         11    1    4    4    0    0 -0.39487822292E+02  0.16919936638E+01 -0.34478270601E+03  0.34704072573E+03  0.00000000000E+00 0. -1.
        -12    1    4    4    0    0  0.24304797572E+02  0.13456419402E+02 -0.54024079379E+02  0.60748658923E+02  0.00000000000E+00 0.  1.
<mgrwt>
<rscale>  2 0.19276359E+03</rscale>
<asrwt>0</asrwt>
<pdfrwt beam="1">  1       21 0.33735552E-01 0.19332871E+03</pdfrwt>
<pdfrwt beam="2">  1       21 0.10873436E+00 0.19332871E+03</pdfrwt>
<totfact> 0.56822424E+03</totfact>
</mgrwt>
</event>
<event>
12    1  0.1026879E-001  0.2161484E+03  0.7546771E-02  0.1136839E+00
         21   -1    0    0  503  502  0.00000000000E+00  0.00000000000E+00  0.33399418810E+03  0.33399418810E+03  0.00000000000E+00 0.  1.
         21   -1    0    0  501  503 -0.00000000000E+00 -0.00000000000E+00 -0.27234417841E+03  0.27234417841E+03  0.00000000000E+00 0.  1.
          6    2    1    2  501    0  0.11703792526E+03 -0.55622597745E+02 -0.18073569061E+03  0.28175437486E+03  0.17299823284E+03 0.  0.
         24    2    3    3    0    0  0.15290654118E+03 -0.37749824008E+02 -0.14247098465E+03  0.22614617968E+03  0.77708774096E+02 0.  0.
         -6    2    1    2    0  502 -0.11703792526E+03  0.55622597745E+02  0.24238570030E+03  0.32458399166E+03  0.17266207053E+03 0.  0.
        -24    2    5    5    0    0 -0.66254973939E+02  0.66709139291E+02  0.62037829992E+02  0.13683611851E+03  0.77689124987E+02 0.  0.
          5    1    3    3  501    0 -0.35868615916E+02 -0.17872773737E+02 -0.38264705960E+02  0.55608195178E+02  0.47000000000E+01 0. -1.
        -13    1    4    4    0    0  0.12721124741E+02 -0.24905132988E+02 -0.51303936257E+02  0.58431040888E+02  0.00000000000E+00 0.  1.
         14    1    4    4    0    0  0.14018541644E+03 -0.12844691020E+02 -0.91167048390E+02  0.16771513880E+03  0.00000000000E+00 0. -1.
         -5    1    5    5    0  502 -0.50782951324E+02 -0.11086541546E+02  0.18034787031E+03  0.18774787315E+03  0.47000000000E+01 0.  1.
         11    1    6    6    0    0 -0.30200690784E+00  0.42396278776E+02  0.49942026297E+02  0.65511385674E+02  0.00000000000E+00 0. -1.
        -12    1    6    6    0    0 -0.65952967031E+02  0.24312860515E+02  0.12095803694E+02  0.71324732832E+02  0.00000000000E+00 0.  1.
<mgrwt>
<rscale>  2 0.21608115E+03</rscale>
<asrwt>0</asrwt>
<pdfrwt beam="1">  1       21 0.51383721E-01 0.21614842E+03</pdfrwt>
<pdfrwt beam="2">  1       21 0.41899104E-01 0.21614842E+03</pdfrwt>
<totfact> 0.19462340E+04</totfact>
</mgrwt>
</event>
<event>
12    1  0.1026879E-001  0.1821518E+03  0.7546771E-02  0.1167261E+00
         21   -1    0    0  501  502  0.00000000000E+00  0.00000000000E+00  0.35420871876E+03  0.35420871876E+03  0.00000000000E+00 0. -1.
         21   -1    0    0  502  503 -0.00000000000E+00 -0.00000000000E+00 -0.91765859116E+02  0.91765859116E+02  0.00000000000E+00 0. -1.
         -6    2    1    2    0  503  0.31035189174E+02 -0.12182614514E+02  0.15999171426E+03  0.24243889396E+03  0.17907448062E+03 0.  0.
        -24    2    3    3    0    0  0.38855088480E+02 -0.73907533101E+02  0.71556386040E+02  0.13420759683E+03  0.76937125727E+02 0.  0.
          6    2    1    2  501    0 -0.31035189174E+02  0.12182614514E+02  0.10245114539E+03  0.20353568392E+03  0.17268160983E+03 0.  0.
         24    2    5    5    0    0 -0.63939239743E+02  0.13098273310E+02  0.57795985265E+01  0.10130558587E+03  0.77263360186E+02 0.  0.
          5    1    5    5  501    0  0.32904050568E+02 -0.91565879585E+00  0.96671546860E+02  0.10223009805E+03  0.47000000000E+01 0. -1.
        -13    1    6    6    0    0  0.10377263724E+02  0.10318771288E+02 -0.18027240504E+02  0.23219518589E+02  0.00000000000E+00 0.  1.
         14    1    6    6    0    0 -0.74316503467E+02  0.27795020217E+01  0.23806839031E+02  0.78086067283E+02  0.00000000000E+00 0. -1.
         -5    1    3    3    0  503 -0.78198993052E+01  0.61724918586E+02  0.88435328221E+02  0.10823129712E+03  0.47000000000E+01 0.  1.
         11    1    4    4    0    0 -0.14725020275E+01  0.11035140212E+01 -0.13628682631E+02  0.13752345097E+02  0.00000000000E+00 0. -1.
        -12    1    4    4    0    0  0.40327590507E+02 -0.75011047122E+02  0.85185068671E+02  0.12045525174E+03  0.00000000000E+00 0.  1.
<mgrwt>
<rscale>  2 0.18056081E+03</rscale>
<asrwt>0</asrwt>
<pdfrwt beam="1">  1       21 0.54493648E-01 0.18215177E+03</pdfrwt>
<pdfrwt beam="2">  1       21 0.14117825E-01 0.18215177E+03</pdfrwt>
<totfact> 0.13979110E+05</totfact>
</mgrwt>
</event>
<event>
12    1  0.1026879E-001  0.1826325E+03  0.7546771E-02  0.1165319E+00
         21   -1    0    0  503  502  0.00000000000E+00  0.00000000000E+00  0.41061663805E+03  0.41061663805E+03  0.00000000000E+00 0. -1.
         21   -1    0    0  501  503 -0.00000000000E+00 -0.00000000000E+00 -0.94354066417E+02  0.94354066417E+02  0.00000000000E+00 0. -1.
          6    2    1    2  501    0  0.18443792807E+02 -0.57947980233E+02  0.63765383125E+02  0.19344419558E+03  0.17221060017E+03 0.  0.
         24    2    3    3    0    0  0.39643820554E+00 -0.70662367638E+01  0.97863774719E+02  0.12941725488E+03  0.84388497985E+02 0.  0.
         -6    2    1    2    0  502 -0.18443792807E+02  0.57947980233E+02  0.25249718851E+03  0.31152650888E+03  0.17203428039E+03 0.  0.
        -24    2    5    5    0    0  0.10687075953E+01  0.14377739955E+02  0.25096947524E+03  0.26353143187E+03  0.79090306218E+02 0.  0.
          5    1    3    3  501    0  0.18047354602E+02 -0.50881743469E+02 -0.34098391594E+02  0.64026940704E+02  0.47000000000E+01 0. -1.
        -13    1    4    4    0    0 -0.31126161297E+02  0.12124329339E+02  0.11214599037E+02  0.35236408877E+02  0.00000000000E+00 0.  1.
         14    1    4    4    0    0  0.31522599502E+02 -0.19190566102E+02  0.86649175683E+02  0.94180845999E+02  0.00000000000E+00 0. -1.
         -5    1    5    5    0  502 -0.19512500403E+02  0.43570240278E+02  0.15277132631E+01  0.47995077015E+02  0.47000000000E+01 0.  1.
         11    1    6    6    0    0  0.19550310255E+02  0.40003878137E+02  0.18642745075E+03  0.19167086187E+03  0.00000000000E+00 0. -1.
        -12    1    6    6    0    0 -0.18481602660E+02 -0.25626138183E+02  0.64542024496E+02  0.71860570002E+02  0.00000000000E+00 0.  1.
<mgrwt>
<rscale>  2 0.18259093E+03</rscale>
<asrwt>0</asrwt>
<pdfrwt beam="1">  1       21 0.63171789E-01 0.18263251E+03</pdfrwt>
<pdfrwt beam="2">  1       21 0.14516010E-01 0.18263251E+03</pdfrwt>
<totfact> 0.96926465E+04</totfact>
</mgrwt>
</event>
<event>
12    1  0.1026879E-001  0.1835251E+03  0.7546771E-02  0.1164830E+00
         21   -1    0    0  501  502  0.00000000000E+00  0.00000000000E+00  0.35716033610E+03  0.35716033610E+03  0.00000000000E+00 0. -1.
         21   -1    0    0  502  503 -0.00000000000E+00 -0.00000000000E+00 -0.57577567041E+03  0.57577567041E+03  0.00000000000E+00 0.  1.
         -6    2    1    2    0  503  0.55176693137E+02 -0.16922326037E+02 -0.53616556296E+03  0.56616684943E+03  0.17245450966E+03 0.  0.
        -24    2    3    3    0    0 -0.40878855790E+02 -0.68366449270E+01 -0.23326802611E+03  0.24820868037E+03  0.73998354301E+02 0.  0.
          6    2    1    2  501    0 -0.55176693137E+02  0.16922326037E+02  0.31755022865E+03  0.36676915709E+03  0.17421433435E+03 0.  0.
         24    2    5    5    0    0  0.58177631924E+01  0.55258086622E+02  0.24975653495E+03  0.26773366270E+03  0.78839614976E+02 0.  0.
          5    1    5    5  501    0 -0.60994456330E+02 -0.38335760585E+02  0.67793693702E+02  0.99035494387E+02  0.47000000000E+01 0. -1.
        -13    1    6    6    0    0 -0.55318177051E+01  0.16143019493E+02  0.26210998962E+01  0.17264653200E+02  0.00000000000E+00 0.  1.
         14    1    6    6    0    0  0.11349580897E+02  0.39115067129E+02  0.24713543505E+03  0.25046900950E+03  0.00000000000E+00 0. -1.
         -5    1    3    3    0  503  0.96055548928E+02 -0.10085681110E+02 -0.30289753685E+03  0.31795816906E+03  0.47000000000E+01 0.  1.
         11    1    4    4    0    0 -0.96900697670E+01  0.21660515968E+02 -0.17293113379E+03  0.17455157529E+03  0.00000000000E+00 0. -1.
        -12    1    4    4    0    0 -0.31188786023E+02 -0.28497160895E+02 -0.60336892323E+02  0.73657105074E+02  0.00000000000E+00 0.  1.
<mgrwt>
<rscale>  2 0.18310626E+03</rscale>
<asrwt>0</asrwt>
<pdfrwt beam="1">  1       21 0.54947744E-01 0.18352511E+03</pdfrwt>
<pdfrwt beam="2">  1       21 0.88580873E-01 0.18352511E+03</pdfrwt>
<totfact> 0.34327954E+03</totfact>
</mgrwt>
</event>
<event>
12    1  0.1026879E-001  0.1827819E+03  0.7546771E-02  0.1165463E+00
         21   -1    0    0  503  502  0.00000000000E+00  0.00000000000E+00  0.86788882609E+03  0.86788882609E+03  0.00000000000E+00 0.  1.
         21   -1    0    0  501  503 -0.00000000000E+00 -0.00000000000E+00 -0.43390629547E+02  0.43390629547E+02  0.00000000000E+00 0.  1.
          6    2    1    2  501    0  0.27080961187E+02  0.51144388692E+02  0.25341825400E+03  0.31166164913E+03  0.17193907387E+03 0.  0.
         24    2    3    3    0    0 -0.47925424600E+02  0.34634466968E+02  0.11274145339E+03  0.15131643512E+03  0.81790192570E+02 0.  0.
         -6    2    1    2    0  502 -0.27080961187E+02 -0.51144388692E+02  0.57107994254E+03  0.59961780651E+03  0.17337844778E+03 0.  0.
        -24    2    5    5    0    0  0.82491283391E+01  0.17723554761E+02  0.43639511004E+03  0.44420512052E+03  0.80593576134E+02 0.  0.
          5    1    3    3  501    0  0.75006385787E+02  0.16509921724E+02  0.14067680061E+03  0.16034521401E+03  0.47000000000E+01 0. -1.
        -11    1    4    4    0    0 -0.28837510183E+02  0.50118375385E+02  0.30282490039E+02  0.65272373542E+02  0.00000000000E+00 0.  1.
         12    1    4    4    0    0 -0.19087914416E+02 -0.15483908417E+02  0.82458963347E+02  0.86044061579E+02  0.00000000000E+00 0. -1.
         -5    1    5    5    0  502 -0.35330089526E+02 -0.68867943453E+02  0.13468483250E+03  0.15541268599E+03  0.47000000000E+01 0.  1.
         11    1    6    6    0    0 -0.25299544175E+01  0.47523656045E+02  0.19423570206E+03  0.19998101537E+03  0.00000000000E+00 0. -1.
        -12    1    6    6    0    0  0.10779082757E+02 -0.29800101284E+02  0.24215940799E+03  0.24422410515E+03  0.00000000000E+00 0.  1.
<mgrwt>
<rscale>  2 0.18243973E+03</rscale>
<asrwt>0</asrwt>
<pdfrwt beam="1">  1       21 0.13352135E+00 0.18278187E+03</pdfrwt>
<pdfrwt beam="2">  1       21 0.66754821E-02 0.18278187E+03</pdfrwt>
<totfact> 0.66650715E+04</totfact>
</mgrwt>
</event>
<event>
12    1  0.1026879E-001  0.2096495E+03  0.7546771E-02  0.1141891E+00
         21   -1    0    0  501  502  0.00000000000E+00  0.00000000000E+00  0.13804697337E+03  0.13804697337E+03  0.00000000000E+00 0. -1.
         21   -1    0    0  502  503 -0.00000000000E+00 -0.00000000000E+00 -0.33908731811E+03  0.33908731811E+03  0.00000000000E+00 0. -1.
         -6    2    1    2    0  503  0.11761664680E+03  0.13996495179E+02 -0.41123990507E+02  0.21364474265E+03  0.17298357143E+03 0.  0.
        -24    2    3    3    0    0 -0.12482732338E+02  0.14701199774E+02 -0.41194014015E+01  0.78301568918E+02  0.75777452753E+02 0.  0.
          6    2    1    2  501    0 -0.11761664680E+03 -0.13996495179E+02 -0.15991635423E+03  0.26348954884E+03  0.17269604661E+03 0.  0.
         24    2    5    5    0    0 -0.39076704991E+02 -0.19109966002E+02 -0.62710844227E+01  0.90794357889E+02  0.79448783824E+02 0.  0.
          5    1    5    5  501    0 -0.78539941807E+02  0.51134708237E+01 -0.15364526981E+03  0.17269519095E+03  0.47000000000E+01 0. -1.
        -13    1    6    6    0    0 -0.63574764112E+02 -0.14627461150E+02 -0.85127321779E+01  0.65788903781E+02  0.00000000000E+00 0.  1.
         14    1    6    6    0    0  0.24498059121E+02 -0.44825048525E+01  0.22416477552E+01  0.25005454108E+02  0.00000000000E+00 0. -1.
         -5    1    3    3    0  503  0.13009937914E+03 -0.70470459585E+00 -0.37004589106E+02  0.13534317373E+03  0.47000000000E+01 0.  1.
         11    1    4    4    0    0  0.13153989407E+02  0.25521723067E+02  0.24966227475E+02  0.38048630724E+02  0.00000000000E+00 0. -1.
        -12    1    4    4    0    0 -0.25636721745E+02 -0.10820523293E+02 -0.29085628876E+02  0.40252938194E+02  0.00000000000E+00 0.  1.
<mgrwt>
<rscale>  2 0.20959013E+03</rscale>
<asrwt>0</asrwt>
<pdfrwt beam="1">  1       21 0.21237996E-01 0.20964945E+03</pdfrwt>
<pdfrwt beam="2">  1       21 0.52167279E-01 0.20964945E+03</pdfrwt>
<totfact> 0.71382844E+04</totfact>
</mgrwt>
</event>
<event>
12    1  0.1026879E-001  0.2662428E+03  0.7546771E-02  0.1103469E+00
         21   -1    0    0  501  502  0.00000000000E+00  0.00000000000E+00  0.11033907021E+04  0.11033907021E+04  0.00000000000E+00 0. -1.
         21   -1    0    0  502  503 -0.00000000000E+00 -0.00000000000E+00 -0.13920075121E+03  0.13920075121E+03  0.00000000000E+00 0.  1.
         -6    2    1    2    0  503 -0.13715262975E+03 -0.14873992804E+03  0.26025893098E+02  0.26738018027E+03  0.17285949107E+03 0.  0.
        -24    2    3    3    0    0 -0.14720756398E+02 -0.63631481381E+02 -0.24937059356E+02  0.10973398201E+03  0.84581462432E+02 0.  0.
          6    2    1    2  501    0  0.13715262975E+03  0.14873992804E+03  0.93816405777E+03  0.97521127302E+03  0.17306304543E+03 0.  0.
         24    2    5    5    0    0  0.73819236659E+02  0.11411194996E+03  0.83133753555E+03  0.84619882635E+03  0.80371256552E+02 0.  0.
          5    1    5    5  501    0  0.63333393090E+02  0.34627978071E+02  0.10682652222E+03  0.12901244667E+03  0.47000000000E+01 0. -1.
        -11    1    6    6    0    0 -0.56591348868E+01  0.33180263818E+02  0.35276243947E+03  0.35436463482E+03  0.00000000000E+00 0.  1.
         12    1    6    6    0    0  0.79478371545E+02  0.80931686146E+02  0.47857509609E+03  0.49183419153E+03  0.00000000000E+00 0. -1.
         -5    1    3    3    0  503 -0.12243187335E+03 -0.85108446655E+02  0.50962952453E+02  0.15764619826E+03  0.47000000000E+01 0.  1.
         11    1    4    4    0    0 -0.20379103723E+02  0.91044968211E+01  0.14680391100E+02  0.26715419027E+02  0.00000000000E+00 0. -1.
        -12    1    4    4    0    0  0.56583473250E+01 -0.72735978202E+02 -0.39617450456E+02  0.83018562985E+02  0.00000000000E+00 0.  1.
<mgrwt>
<rscale>  2 0.26620972E+03</rscale>
<asrwt>0</asrwt>
<pdfrwt beam="1">  1       21 0.16975241E+00 0.26624280E+03</pdfrwt>
<pdfrwt beam="2">  1       21 0.21415501E-01 0.26624280E+03</pdfrwt>
<totfact> 0.41091248E+03</totfact>
</mgrwt>
</event>
<event>
12    1  0.1026879E-001  0.1939806E+03  0.7546771E-02  0.1155180E+00
         21   -1    0    0  501  502  0.00000000000E+00  0.00000000000E+00  0.24945614074E+03  0.24945614074E+03  0.00000000000E+00 0.  1.
         21   -1    0    0  502  503 -0.00000000000E+00 -0.00000000000E+00 -0.15569003580E+03  0.15569003580E+03  0.00000000000E+00 0. -1.
         -6    2    1    2    0  503 -0.80530944571E+02 -0.25778916458E+02  0.77522349175E+01  0.19295084277E+03  0.17326322464E+03 0.  0.
        -24    2    3    3    0    0 -0.99306353410E+02 -0.54134625637E+02 -0.25230816653E+02  0.14534271415E+03  0.87724574247E+02 0.  0.
          6    2    1    2  501    0  0.80530944571E+02  0.25778916458E+02  0.86013870022E+02  0.21219533378E+03  0.17458146601E+03 0.  0.
         24    2    5    5    0    0 -0.28466905334E+01 -0.14518837862E+02 -0.87528835623E+01  0.79611146847E+02  0.77733013783E+02 0.  0.
          5    1    5    5  501    0  0.83377635105E+02  0.40297754321E+02  0.94766753585E+02  0.13258418693E+03  0.47000000000E+01 0. -1.
        -13    1    6    6    0    0 -0.16450222936E+02  0.99839826197E+01  0.27639306532E+02  0.33678197832E+02  0.00000000000E+00 0.  1.
         14    1    6    6    0    0  0.13603532403E+02 -0.24502820482E+02 -0.36392190094E+02  0.45932949016E+02  0.00000000000E+00 0. -1.
         -5    1    3    3    0  503  0.18775408838E+02  0.28355709178E+02  0.32983051571E+02  0.47608128623E+02  0.47000000000E+01 0.  1.
         13    1    4    4    0    0 -0.62369745193E+02 -0.32323749233E+01 -0.47670408599E+02  0.78567812869E+02  0.00000000000E+00 0. -1.
        -14    1    4    4    0    0 -0.36936608217E+02 -0.50902250713E+02  0.22439591945E+02  0.66774901280E+02  0.00000000000E+00 0.  1.
<mgrwt>
<rscale>  2 0.19368353E+03</rscale>
<asrwt>0</asrwt>
<pdfrwt beam="1">  1       21 0.38377868E-01 0.19398060E+03</pdfrwt>
<pdfrwt beam="2">  1       21 0.23952313E-01 0.19398060E+03</pdfrwt>
<totfact> 0.10754769E+05</totfact>
</mgrwt>
</event>
<event>
12    1  0.1026879E-001  0.2138481E+03  0.7546771E-02  0.1139088E+00
         21   -1    0    0  503  502  0.00000000000E+00  0.00000000000E+00  0.10251199166E+04  0.10251199166E+04  0.00000000000E+00 0. -1.
         21   -1    0    0  501  503 -0.00000000000E+00 -0.00000000000E+00 -0.75206270638E+02  0.75206270638E+02  0.00000000000E+00 0. -1.
          6    2    1    2  501    0  0.10842333986E+03  0.51141938456E+02  0.11900530680E+03  0.24234034911E+03  0.17376841849E+03 0.  0.
         24    2    3    3    0    0  0.14412508147E+03  0.23864506889E+02  0.10345066241E+03  0.19456263894E+03  0.76230093277E+02 0.  0.
         -6    2    1    2    0  502 -0.10842333986E+03 -0.51141938456E+02  0.83090833918E+03  0.85798583814E+03  0.17708730006E+03 0.  0.
        -24    2    5    5    0    0 -0.89937232683E+02 -0.94982834960E+02  0.43003079134E+03  0.45426729916E+03  0.65740800259E+02 0.  0.
          5    1    3    3  501    0 -0.35701741612E+02  0.27277431566E+02  0.15554644393E+02  0.47777710171E+02  0.47000000000E+01 0. -1.
        -13    1    4    4    0    0 -0.37590988225E+01  0.14098127881E+02  0.14809978931E+01  0.14665653359E+02  0.00000000000E+00 0.  1.
         14    1    4    4    0    0  0.14788418029E+03  0.97663790085E+01  0.10196966452E+03  0.17989698558E+03  0.00000000000E+00 0. -1.
         -5    1    5    5    0  502 -0.18486107177E+02  0.43840896505E+02  0.40087754783E+03  0.40371853898E+03  0.47000000000E+01 0.  1.
         13    1    6    6    0    0 -0.38038526190E+02 -0.85391677487E+02  0.28425796590E+03  0.29923445530E+03  0.00000000000E+00 0. -1.
        -14    1    6    6    0    0 -0.51898706493E+02 -0.95911574729E+01  0.14577282544E+03  0.15503284386E+03  0.00000000000E+00 0.  1.
<mgrwt>
<rscale>  2 0.21315979E+03</rscale>
<asrwt>0</asrwt>
<pdfrwt beam="1">  1       21 0.15771075E+00 0.21384815E+03</pdfrwt>
<pdfrwt beam="2">  1       21 0.11570196E-01 0.21384815E+03</pdfrwt>
<totfact> 0.16148000E+04</totfact>
</mgrwt>
</event>
<event>
12    1  0.1026879E-001  0.2453783E+03  0.7546771E-02  0.1116609E+00
         21   -1    0    0  501  502  0.00000000000E+00  0.00000000000E+00  0.47697374624E+03  0.47697374624E+03  0.00000000000E+00 0. -1.
         21   -1    0    0  502  503 -0.00000000000E+00 -0.00000000000E+00 -0.17507499177E+03  0.17507499177E+03  0.00000000000E+00 0. -1.
         -6    2    1    2    0  503  0.60015401267E+02 -0.16015800105E+03 -0.23645148746E+02  0.24438546879E+03  0.17295297224E+03 0.  0.
        -24    2    3    3    0    0  0.78962670343E+02 -0.39892440704E+02  0.14417073113E+01  0.11998995296E+03  0.81049368654E+02 0.  0.
          6    2    1    2  501    0 -0.60015401267E+02  0.16015800105E+03  0.32554390322E+03  0.40766326922E+03  0.17594906779E+03 0.  0.
         24    2    5    5    0    0 -0.82472294439E+02  0.14497272390E+03  0.21239652954E+03  0.29121876371E+03  0.10898308378E+03 0.  0.
          5    1    5    5  501    0  0.22456893172E+02  0.15185277150E+02  0.11314737367E+03  0.11644450551E+03  0.47000000000E+01 0. -1.
        -13    1    6    6    0    0 -0.69156975627E+02  0.18293147299E+02  0.84472412191E+02  0.11069288567E+03  0.00000000000E+00 0.  1.
         14    1    6    6    0    0 -0.13315318812E+02  0.12667957660E+03  0.12792411735E+03  0.18052587804E+03  0.00000000000E+00 0. -1.
         -5    1    3    3    0  503 -0.18947269077E+02 -0.12026556035E+03 -0.25086856057E+02  0.12439551583E+03  0.47000000000E+01 0.  1.
         11    1    4    4    0    0  0.29820439850E+02 -0.34408095294E+02 -0.35936088215E+02  0.58004983327E+02  0.00000000000E+00 0. -1.
        -12    1    4    4    0    0  0.49142230494E+02 -0.54843454093E+01  0.37377795526E+02  0.61984969636E+02  0.00000000000E+00 0.  1.
<mgrwt>
<rscale>  2 0.24484169E+03</rscale>
<asrwt>0</asrwt>
<pdfrwt beam="1">  1       21 0.73380576E-01 0.24537830E+03</pdfrwt>
<pdfrwt beam="2">  1       21 0.26934614E-01 0.24537830E+03</pdfrwt>
<totfact> 0.21291760E+04</totfact>
</mgrwt>
</event>
<event>
12    1  0.1026879E-001  0.2761577E+03  0.7546771E-02  0.1098092E+00
         21   -1    0    0  501  502  0.00000000000E+00  0.00000000000E+00  0.10719097468E+03  0.10719097468E+03  0.00000000000E+00 0.  1.
         21   -1    0    0  502  503 -0.00000000000E+00 -0.00000000000E+00 -0.74730176210E+03  0.74730176210E+03  0.00000000000E+00 0.  1.
         -6    2    1    2    0  503  0.16353261774E+03 -0.13688362269E+03 -0.41911541764E+03  0.50079509183E+03  0.17221482941E+03 0.  0.
        -24    2    3    3    0    0  0.28290128141E+02 -0.84098011003E+02 -0.22865136773E+03  0.26126326491E+03  0.90023545946E+02 0.  0.
          6    2    1    2  501    0 -0.16353261774E+03  0.13688362269E+03 -0.22099536978E+03  0.35369764495E+03  0.17545092576E+03 0.  0.
         24    2    5    5    0    0 -0.71481042113E+02  0.15141186391E+02 -0.14675946615E+03  0.18391021090E+03  0.83341645430E+02 0.  0.
          5    1    5    5  501    0 -0.92051575631E+02  0.12174243630E+03 -0.74235903632E+02  0.16978743405E+03  0.47000000000E+01 0. -1.
        -13    1    6    6    0    0 -0.29418347202E+02  0.23309311504E+02 -0.75891975143E+01  0.38293068221E+02  0.00000000000E+00 0.  1.
         14    1    6    6    0    0 -0.42062694910E+02 -0.81681251126E+01 -0.13917026863E+03  0.14561714268E+03  0.00000000000E+00 0. -1.
         -5    1    3    3    0  503  0.13524248960E+03 -0.52785611686E+02 -0.19046404991E+03  0.23953182691E+03  0.47000000000E+01 0.  1.
         11    1    4    4    0    0  0.53760139809E+02 -0.84448389613E+02 -0.19338030076E+03  0.21775588135E+03  0.00000000000E+00 0. -1.
        -12    1    4    4    0    0 -0.25470011668E+02  0.35037861046E+00 -0.35271066974E+02  0.43507383569E+02  0.00000000000E+00 0.  1.
<mgrwt>
<rscale>  2 0.27564512E+03</rscale>
<asrwt>0</asrwt>
<pdfrwt beam="1">  1       21 0.16490920E-01 0.27615769E+03</pdfrwt>
<pdfrwt beam="2">  1       21 0.11496950E+00 0.27615769E+03</pdfrwt>
<totfact> 0.18479633E+04</totfact>
</mgrwt>
</event>
<event>
12    1  0.1026879E-001  0.2232943E+03  0.7546771E-02  0.1131651E+00
         21   -1    0    0  503  502  0.00000000000E+00  0.00000000000E+00  0.16443750539E+03  0.16443750539E+03  0.00000000000E+00 0. -1.
         21   -1    0    0  501  503 -0.00000000000E+00 -0.00000000000E+00 -0.32807345403E+03  0.32807345403E+03  0.00000000000E+00 0.  1.
          6    2    1    2  501    0  0.23969823362E+02  0.13918861815E+03 -0.15140903313E+03  0.26888215020E+03  0.17153685181E+03 0.  0.
         24    2    3    3    0    0 -0.21293793922E+02  0.89430005924E+02 -0.15701040807E+03  0.20121990118E+03  0.85942008175E+02 0.  0.
         -6    2    1    2    0  502 -0.23969823362E+02 -0.13918861815E+03 -0.12226915512E+02  0.22362880921E+03  0.17295179383E+03 0.  0.
        -24    2    5    5    0    0  0.39372512563E+02 -0.11915789153E+03  0.19057846565E+02  0.15004682862E+03  0.80012820244E+02 0.  0.
          5    1    3    3  501    0  0.45263617284E+02  0.49758612230E+02  0.56013749471E+01  0.67662249017E+02  0.47000000000E+01 0. -1.
        -11    1    4    4    0    0  0.21980912577E+02  0.42152517297E+01 -0.64235147951E+02  0.68022666055E+02  0.00000000000E+00 0.  1.
         12    1    4    4    0    0 -0.43274706499E+02  0.85214754194E+02 -0.92775260124E+02  0.13319723513E+03  0.00000000000E+00 0. -1.
         -5    1    5    5    0  502 -0.63342335924E+02 -0.20030726621E+02 -0.31284762077E+02  0.73581980590E+02  0.47000000000E+01 0.  1.
         13    1    6    6    0    0 -0.23464018454E+02 -0.49025547438E+02  0.22794064061E+01  0.54399082319E+02  0.00000000000E+00 0. -1.
        -14    1    6    6    0    0  0.62836531016E+02 -0.70132344094E+02  0.16778440159E+02  0.95647746301E+02  0.00000000000E+00 0.  1.
<mgrwt>
<rscale>  2 0.22302027E+03</rscale>
<asrwt>0</asrwt>
<pdfrwt beam="1">  1       21 0.25298078E-01 0.22329431E+03</pdfrwt>
<pdfrwt beam="2">  1       21 0.50472839E-01 0.22329431E+03</pdfrwt>
<totfact> 0.54549604E+04</totfact>
</mgrwt>
</event>
<event>
12    1  0.1026879E-001  0.1928283E+03  0.7546771E-02  0.1156498E+00
         21   -1    0    0  501  502  0.00000000000E+00  0.00000000000E+00  0.68314047582E+03  0.68314047582E+03  0.00000000000E+00 0. -1.
         21   -1    0    0  502  503 -0.00000000000E+00 -0.00000000000E+00 -0.16379497252E+03  0.16379497252E+03  0.00000000000E+00 0. -1.
         -6    2    1    2    0  503 -0.47847326585E+01  0.78142385915E+02 -0.86914217426E+02  0.21151082247E+03  0.17622037534E+03 0.  0.
        -24    2    3    3    0    0 -0.45513859146E+02  0.10637880381E+03 -0.73742524714E+02  0.16001576903E+03  0.82335442619E+02 0.  0.
          6    2    1    2  501    0  0.47847326585E+01 -0.78142385915E+02  0.60625972072E+03  0.63542462588E+03  0.17344878222E+03 0.  0.
         24    2    5    5    0    0 -0.15976577215E+02  0.24169108613E+02  0.28360956725E+03  0.29627291140E+03  0.80646478896E+02 0.  0.
          5    1    5    5  501    0  0.20761309874E+02 -0.10231149453E+03  0.32265015347E+03  0.33915171448E+03  0.47000000000E+01 0. -1.
        -13    1    6    6    0    0 -0.45377207741E+02 -0.32441686415E+01  0.14964231374E+03  0.15640472395E+03  0.00000000000E+00 0.  1.
         14    1    6    6    0    0  0.29400630526E+02  0.27413277254E+02  0.13396725352E+03  0.13986818745E+03  0.00000000000E+00 0. -1.
         -5    1    3    3    0  503  0.40729126487E+02 -0.28236417895E+02 -0.13171692712E+02  0.51495053440E+02  0.47000000000E+01 0.  1.
         13    1    4    4    0    0 -0.49815821061E+02  0.10800530894E+03 -0.39295863773E+02  0.12526343320E+03  0.00000000000E+00 0. -1.
        -14    1    4    4    0    0  0.43019619156E+01 -0.16265051320E+01 -0.34446660942E+02  0.34752335825E+02  0.00000000000E+00 0.  1.
<mgrwt>
<rscale>  2 0.19219276E+03</rscale>
<asrwt>0</asrwt>
<pdfrwt beam="1">  1       21 0.10509853E+00 0.19282828E+03</pdfrwt>
<pdfrwt beam="2">  1       21 0.25199227E-01 0.19282828E+03</pdfrwt>
<totfact> 0.10874742E+04</totfact>
</mgrwt>
</event>
<event>
12    1  0.1026879E-001  0.2075006E+03  0.7546771E-02  0.1143704E+00
         21   -1    0    0  501  502  0.00000000000E+00  0.00000000000E+00  0.66802774683E+03  0.66802774683E+03  0.00000000000E+00 0.  1.
         21   -1    0    0  502  503 -0.00000000000E+00 -0.00000000000E+00 -0.65339107978E+02  0.65339107978E+02  0.00000000000E+00 0.  1.
         -6    2    1    2    0  503  0.98497010303E+02 -0.55792210107E+02  0.25412303391E+03  0.32807776877E+03  0.17390248488E+03 0.  0.
        -24    2    3    3    0    0  0.92070720453E+02 -0.77726194987E+02  0.11123943478E+03  0.18330135565E+03  0.81895031480E+02 0.  0.
          6    2    1    2  501    0 -0.98497010303E+02  0.55792210107E+02  0.34856560495E+03  0.40528908605E+03  0.17305152577E+03 0.  0.
         24    2    5    5    0    0 -0.10244678293E+02  0.69138111514E+02  0.12214597871E+03  0.16186656380E+03  0.79975699222E+02 0.  0.
          5    1    5    5  501    0 -0.88252332010E+02 -0.13345901407E+02  0.22641962624E+03  0.24342252224E+03  0.47000000000E+01 0. -1.
        -11    1    6    6    0    0  0.14411535567E+02  0.29072562302E+02  0.16248954849E+01  0.32489175452E+02  0.00000000000E+00 0.  1.
         12    1    6    6    0    0 -0.24656213860E+02  0.40065549212E+02  0.12052108322E+03  0.12937738835E+03  0.00000000000E+00 0. -1.
         -5    1    3    3    0  503  0.64262898501E+01  0.21933984880E+02  0.14288359913E+03  0.14477641312E+03  0.47000000000E+01 0.  1.
         11    1    4    4    0    0  0.40606908560E+02  0.91292184089E+01  0.50655399947E+02  0.65560912100E+02  0.00000000000E+00 0. -1.
        -12    1    4    4    0    0  0.51463811892E+02 -0.86855413396E+02  0.60584034830E+02  0.11774044355E+03  0.00000000000E+00 0.  1.
<mgrwt>
<rscale>  2 0.20732222E+03</rscale>
<asrwt>0</asrwt>
<pdfrwt beam="1">  1       21 0.10277349E+00 0.20750062E+03</pdfrwt>
<pdfrwt beam="2">  1       21 0.10052171E-01 0.20750062E+03</pdfrwt>
<totfact> 0.61391368E+04</totfact>
</mgrwt>
</event>
<event>
12    1  0.1026879E-001  0.1742970E+03  0.7546771E-02  0.1173976E+00
         21   -1    0    0  503  502  0.00000000000E+00  0.00000000000E+00  0.33385281357E+03  0.33385281357E+03  0.00000000000E+00 0. -1.
         21   -1    0    0  501  503 -0.00000000000E+00 -0.00000000000E+00 -0.17944053609E+03  0.17944053609E+03  0.00000000000E+00 0. -1.
          6    2    1    2  501    0  0.22713202667E+01  0.23559697979E+02 -0.10432494029E+03  0.20132478974E+03  0.17055133988E+03 0.  0.
         24    2    3    3    0    0  0.22969865081E+02 -0.78828368233E+01 -0.92121716712E+01  0.98925612465E+02  0.95455009698E+02 0.  0.
         -6    2    1    2    0  502 -0.22713202667E+01 -0.23559697979E+02  0.25873721777E+03  0.31196855992E+03  0.17268241443E+03 0.  0.
        -24    2    5    5    0    0  0.65278469164E+01 -0.81166290157E+02  0.15694312370E+03  0.19458000684E+03  0.81238264037E+02 0.  0.
          5    1    3    3  501    0 -0.20698544814E+02  0.31442534802E+02 -0.95112768623E+02  0.10239917728E+03  0.47000000000E+01 0. -1.
        -13    1    4    4    0    0  0.30150693088E+02  0.29970921345E+02  0.23329510279E+02  0.48493159000E+02  0.00000000000E+00 0.  1.
         14    1    4    4    0    0 -0.71808280074E+01 -0.37853758168E+02 -0.32541681950E+02  0.50432453465E+02  0.00000000000E+00 0. -1.
         -5    1    5    5    0  502 -0.87991671831E+01  0.57606592179E+02  0.10179409407E+03  0.11738855307E+03  0.47000000000E+01 0.  1.
         13    1    6    6    0    0 -0.26324783008E+02 -0.70225047135E+01  0.72740013659E+02  0.77675088413E+02  0.00000000000E+00 0. -1.
        -14    1    6    6    0    0  0.32852629924E+02 -0.74143785444E+02  0.84203110040E+02  0.11690491843E+03  0.00000000000E+00 0.  1.
<mgrwt>
<rscale>  2 0.17376679E+03</rscale>
<asrwt>0</asrwt>
<pdfrwt beam="1">  1       21 0.51361971E-01 0.17429697E+03</pdfrwt>
<pdfrwt beam="2">  1       21 0.27606236E-01 0.17429697E+03</pdfrwt>
<totfact> 0.45515009E+04</totfact>
</mgrwt>
</event>
<event>
12    1  0.1026879E-001  0.1949664E+03  0.7546771E-02  0.1155279E+00
         21   -1    0    0  503  502  0.00000000000E+00  0.00000000000E+00  0.18628255728E+03  0.18628255728E+03  0.00000000000E+00 0.  1.
         21   -1    0    0  501  503 -0.00000000000E+00 -0.00000000000E+00 -0.23445082384E+03  0.23445082384E+03  0.00000000000E+00 0. -1.
          6    2    1    2  501    0  0.44861720124E+02  0.66570403387E+02 -0.10636901824E+03  0.21726537003E+03  0.17159743714E+03 0.  0.
         24    2    3    3    0    0  0.60327778130E+02  0.10860746472E+03 -0.52774196078E+02  0.14725959571E+03  0.58866378786E+02 0.  0.
         -6    2    1    2    0  502 -0.44861720124E+02 -0.66570403387E+02  0.58200751674E+02  0.20346801109E+03  0.17767304664E+03 0.  0.
        -24    2    5    5    0    0  0.17901984721E+02  0.23584719108E+02  0.27455036773E+02  0.89298760666E+02  0.79647784526E+02 0.  0.
          5    1    3    3  501    0 -0.15466058006E+02 -0.42037061331E+02 -0.53594822161E+02  0.70005774319E+02  0.47000000000E+01 0. -1.
        -13    1    4    4    0    0  0.52480372632E+02  0.38286958512E+02 -0.37019589623E+02  0.74769851676E+02  0.00000000000E+00 0.  1.
         14    1    4    4    0    0  0.78474054974E+01  0.70320506205E+02 -0.15754606454E+02  0.72489744037E+02  0.00000000000E+00 0. -1.
         -5    1    5    5    0  502 -0.62763704844E+02 -0.90155122495E+02  0.30745714901E+02  0.11416925043E+03  0.47000000000E+01 0.  1.
         13    1    6    6    0    0  0.14950178531E+02 -0.52138211281E+01 -0.24879850515E+02  0.29490654970E+02  0.00000000000E+00 0. -1.
        -14    1    6    6    0    0  0.29518061895E+01  0.28798540237E+02  0.52334887288E+02  0.59808105697E+02  0.00000000000E+00 0.  1.
<mgrwt>
<rscale>  2 0.19357147E+03</rscale>
<asrwt>0</asrwt>
<pdfrwt beam="1">  1       21 0.28658855E-01 0.19496642E+03</pdfrwt>
<pdfrwt beam="2">  1       21 0.36069358E-01 0.19496642E+03</pdfrwt>
<totfact> 0.86250702E+04</totfact>
</mgrwt>
</event>
<event>
12    1  0.1026879E-001  0.2293768E+03  0.7546771E-02  0.1127113E+00
         21   -1    0    0  503  502  0.00000000000E+00  0.00000000000E+00  0.22306717521E+04  0.22306717521E+04  0.00000000000E+00 0.  1.
         21   -1    0    0  501  503 -0.00000000000E+00 -0.00000000000E+00 -0.34553019886E+02  0.34553019886E+02  0.00000000000E+00 0.  1.
          6    2    1    2  501    0  0.41831931117E+02  0.14455828213E+03  0.45972195942E+03  0.51376842351E+03  0.17310894148E+03 0.  0.
         24    2    3    3    0    0  0.92305794011E+02  0.11273406190E+03  0.37918714232E+03  0.41342731231E+03  0.76876038844E+02 0.  0.
         -6    2    1    2    0  502 -0.41831931117E+02 -0.14455828213E+03  0.17363967728E+04  0.17514563485E+04  0.17285421799E+03 0.  0.
        -24    2    5    5    0    0 -0.29541447363E+01 -0.16152597613E+03  0.15046963615E+04  0.15158580558E+04  0.87264753119E+02 0.  0.
          5    1    3    3  501    0 -0.50473862894E+02  0.31824220234E+02  0.80534817104E+02  0.10034111119E+03  0.47000000000E+01 0. -1.
        -13    1    4    4    0    0  0.57912454720E+02  0.11368642180E+03  0.32604147684E+03  0.35011640855E+03  0.00000000000E+00 0.  1.
         14    1    4    4    0    0  0.34393339291E+02 -0.95235989877E+00  0.53145665476E+02  0.63310903767E+02  0.00000000000E+00 0. -1.
         -5    1    5    5    0  502 -0.38877786381E+02  0.16967693996E+02  0.23170041126E+03  0.23559829264E+03  0.47000000000E+01 0.  1.
         13    1    6    6    0    0  0.60301088683E+01  0.85074990840E+01  0.17402383976E+03  0.17433598756E+03  0.00000000000E+00 0. -1.
        -14    1    6    6    0    0 -0.89842536046E+01 -0.17003347521E+03  0.13306725217E+04  0.13415220683E+04  0.00000000000E+00 0.  1.
<mgrwt>
<rscale>  2 0.22932873E+03</rscale>
<asrwt>0</asrwt>
<pdfrwt beam="1">  1       21 0.34318016E+00 0.22937679E+03</pdfrwt>
<pdfrwt beam="2">  1       21 0.53158510E-02 0.22937679E+03</pdfrwt>
<totfact> 0.44526595E+03</totfact>
</mgrwt>
</event>
<event>
12    1  0.1026879E-001  0.1873474E+03  0.7546771E-02  0.1160968E+00
         21   -1    0    0  503  502  0.00000000000E+00  0.00000000000E+00  0.29891172247E+03  0.29891172247E+03  0.00000000000E+00 0. -1.
         21   -1    0    0  501  503 -0.00000000000E+00 -0.00000000000E+00 -0.13619458072E+03  0.13619458072E+03  0.00000000000E+00 0. -1.
          6    2    1    2  501    0  0.74142372824E+02 -0.56193747518E+00 -0.24120567321E-01  0.18694550120E+03  0.17161355604E+03 0.  0.
         24    2    3    3    0    0  0.11182156277E+03  0.26870599778E+02  0.87046527653E+01  0.13929524476E+03  0.78110839198E+02 0.  0.
         -6    2    1    2    0  502 -0.74142372824E+02  0.56193747518E+00  0.16274126231E+03  0.24816080199E+03  0.17205132363E+03 0.  0.
        -24    2    5    5    0    0  0.23506853750E+01 -0.28093863340E+02  0.25388322189E+02  0.88285028237E+02  0.79717554077E+02 0.  0.
          5    1    3    3  501    0 -0.37679189947E+02 -0.27432537253E+02 -0.87287733326E+01  0.47650256443E+02  0.47000000000E+01 0. -1.
        -11    1    4    4    0    0  0.12090074253E+02 -0.22989238373E+02 -0.64664026941E+01  0.26767318510E+02  0.00000000000E+00 0.  1.
         12    1    4    4    0    0  0.99731488519E+02  0.49859838151E+02  0.15171055459E+02  0.11252792625E+03  0.00000000000E+00 0. -1.
         -5    1    5    5    0  502 -0.76493058199E+02  0.28655800816E+02  0.13735294012E+03  0.15987577375E+03  0.47000000000E+01 0.  1.
         13    1    6    6    0    0 -0.22609724958E+02 -0.44364519332E+02  0.10367908845E+01  0.49804469414E+02  0.00000000000E+00 0. -1.
        -14    1    6    6    0    0  0.24960410333E+02  0.16270655992E+02  0.24351531305E+02  0.38480558823E+02  0.00000000000E+00 0.  1.
<mgrwt>
<rscale>  2 0.18724688E+03</rscale>
<asrwt>0</asrwt>
<pdfrwt beam="1">  1       21 0.45986419E-01 0.18734745E+03</pdfrwt>
<pdfrwt beam="2">  1       21 0.20953013E-01 0.18734745E+03</pdfrwt>
<totfact> 0.96076283E+04</totfact>
</mgrwt>
</event>
<event>
12    1  0.1026879E-001  0.2348049E+03  0.7546771E-02  0.1123448E+00
         21   -1    0    0  503  502  0.00000000000E+00  0.00000000000E+00  0.66920363901E+02  0.66920363901E+02  0.00000000000E+00 0.  1.
         21   -1    0    0  501  503 -0.00000000000E+00 -0.00000000000E+00 -0.82898007842E+03  0.82898007842E+03  0.00000000000E+00 0. -1.
          6    2    1    2  501    0  0.80467140375E+02 -0.13487648086E+03 -0.33750414174E+03  0.41114765094E+03  0.17454718392E+03 0.  0.
         24    2    3    3    0    0  0.35622931040E+02  0.19750383277E+01 -0.11417853685E+03  0.14537376733E+03  0.82606900173E+02 0.  0.
         -6    2    1    2    0  502 -0.80467140375E+02  0.13487648086E+03 -0.42455557278E+03  0.48475279137E+03  0.17341052044E+03 0.  0.
        -24    2    5    5    0    0  0.13688680417E+02  0.93346798892E+02 -0.27048126358E+03  0.29941252099E+03  0.87101888266E+02 0.  0.
          5    1    3    3  501    0  0.44844209336E+02 -0.13685151919E+03 -0.22332560488E+03  0.26577388362E+03  0.47000000000E+01 0. -1.
        -11    1    4    4    0    0  0.14886592262E+02 -0.15563938358E+02  0.58447201603E+01  0.22316082993E+02  0.00000000000E+00 0.  1.
         12    1    4    4    0    0  0.20736338778E+02  0.17538976686E+02 -0.12002325701E+03  0.12305768433E+03  0.00000000000E+00 0. -1.
         -5    1    5    5    0  502 -0.94155820793E+02  0.41529681971E+02 -0.15407430919E+03  0.18534027039E+03  0.47000000000E+01 0.  1.
         11    1    6    6    0    0  0.27397638752E+02  0.10595098156E+03 -0.23839553549E+03  0.26231407214E+03  0.00000000000E+00 0. -1.
        -12    1    6    6    0    0 -0.13708958335E+02 -0.12604182668E+02 -0.32085728095E+02  0.37098448846E+02  0.00000000000E+00 0.  1.
<mgrwt>
<rscale>  2 0.23459369E+03</rscale>
<asrwt>0</asrwt>
<pdfrwt beam="1">  1       21 0.10295441E-01 0.23480491E+03</pdfrwt>
<pdfrwt beam="2">  1       21 0.12753540E+00 0.23480491E+03</pdfrwt>
<totfact> 0.34159526E+04</totfact>
</mgrwt>
</event>
<event>
12    1  0.1026879E-001  0.1829532E+03  0.7546771E-02  0.1165084E+00
         21   -1    0    0  501  502  0.00000000000E+00  0.00000000000E+00  0.81382437435E+03  0.81382437435E+03  0.00000000000E+00 0.  1.
         21   -1    0    0  502  503 -0.00000000000E+00 -0.00000000000E+00 -0.68010220162E+02  0.68010220162E+02  0.00000000000E+00 0.  1.
         -6    2    1    2    0  503  0.19706597634E+02  0.54800413784E+02  0.94895716468E+02  0.20569357404E+03  0.17295436986E+03 0.  0.
        -24    2    3    3    0    0  0.46487580195E+02  0.81006757301E+02  0.25492282467E+02  0.12668142232E+03  0.81701508278E+02 0.  0.
          6    2    1    2  501    0 -0.19706597634E+02 -0.54800413784E+02  0.65091843772E+03  0.67614102048E+03  0.17343711156E+03 0.  0.
         24    2    5    5    0    0 -0.15625206070E+02 -0.93936504822E+02  0.59424003374E+03  0.60698306463E+03  0.78987398041E+02 0.  0.
          5    1    5    5  501    0 -0.40813915635E+01  0.39136091037E+02  0.56678403980E+02  0.69157955843E+02  0.47000000000E+01 0. -1.
        -13    1    6    6    0    0  0.31499789132E+02 -0.43707672874E+02  0.29907264490E+03  0.30388656488E+03  0.00000000000E+00 0.  1.
         14    1    6    6    0    0 -0.47124995202E+02 -0.50228831948E+02  0.29516738883E+03  0.30309649975E+03  0.00000000000E+00 0. -1.
         -5    1    3    3    0  503 -0.26780982561E+02 -0.26206343517E+02  0.69403434002E+02  0.79012151715E+02  0.47000000000E+01 0.  1.
         11    1    4    4    0    0  0.52427593770E+02  0.10942022745E+02  0.73207231423E+01  0.54055281311E+02  0.00000000000E+00 0. -1.
        -12    1    4    4    0    0 -0.59400135747E+01  0.70064734556E+02  0.18171559325E+02  0.72626141010E+02  0.00000000000E+00 0.  1.
<mgrwt>
<rscale>  2 0.18283868E+03</rscale>
<asrwt>0</asrwt>
<pdfrwt beam="1">  1       21 0.12520374E+00 0.18295318E+03</pdfrwt>
<pdfrwt beam="2">  1       21 0.10463111E-01 0.18295318E+03</pdfrwt>
<totfact> 0.35779245E+04</totfact>
</mgrwt>
</event>
<event>
12    1  0.1026879E-001  0.1888207E+03  0.7546771E-02  0.1160048E+00
         21   -1    0    0  503  502  0.00000000000E+00  0.00000000000E+00  0.12111965626E+04  0.12111965626E+04  0.00000000000E+00 0. -1.
         21   -1    0    0  501  503 -0.00000000000E+00 -0.00000000000E+00 -0.82792296786E+02  0.82792296786E+02  0.00000000000E+00 0. -1.
          6    2    1    2  501    0 -0.53083982534E+02 -0.52766807093E+02  0.44296733663E+02  0.19394708351E+03  0.17335231598E+03 0.  0.
         24    2    3    3    0    0 -0.56681358909E+02  0.25158227661E+02  0.53492323771E+02  0.11525845005E+03  0.81100978650E+02 0.  0.
         -6    2    1    2    0  502  0.53083982534E+02  0.52766807093E+02  0.10841075322E+04  0.11000417759E+04  0.17088160312E+03 0.  0.
        -24    2    5    5    0    0 -0.12335645591E+02  0.26751178390E+02  0.86869463519E+03  0.87336723638E+03  0.85276999698E+02 0.  0.
          5    1    3    3  501    0  0.35973763750E+01 -0.77925034754E+02 -0.91955901084E+01  0.78688633459E+02  0.47000000000E+01 0. -1.
        -11    1    4    4    0    0  0.13786427374E+02  0.25650052316E+02  0.45817329065E+01  0.29478518280E+02  0.00000000000E+00 0.  1.
         12    1    4    4    0    0 -0.70467786283E+02 -0.49182465538E+00  0.48910590865E+02  0.85779931767E+02  0.00000000000E+00 0. -1.
         -5    1    5    5    0  502  0.65419628125E+02  0.26015628704E+02  0.21541289698E+03  0.22667453952E+03  0.47000000000E+01 0.  1.
         11    1    6    6    0    0  0.21643337688E+02  0.42779622990E+02  0.34336782969E+03  0.34669871168E+03  0.00000000000E+00 0. -1.
        -12    1    6    6    0    0 -0.33978983279E+02 -0.16028444600E+02  0.52532680550E+03  0.52666852470E+03  0.00000000000E+00 0.  1.
<mgrwt>
<rscale>  2 0.18825174E+03</rscale>
<asrwt>0</asrwt>
<pdfrwt beam="1">  1       21 0.18633792E+00 0.18882074E+03</pdfrwt>
<pdfrwt beam="2">  1       21 0.12737277E-01 0.18882074E+03</pdfrwt>
<totfact> 0.87251494E+03</totfact>
</mgrwt>
</event>
<event>
12    1  0.1026879E-001  0.2138649E+03  0.7546771E-02  0.1138674E+00
         21   -1    0    0  503  502  0.00000000000E+00  0.00000000000E+00  0.33613749576E+03  0.33613749576E+03  0.00000000000E+00 0. -1.
         21   -1    0    0  501  503 -0.00000000000E+00 -0.00000000000E+00 -0.14485325053E+03  0.14485325053E+03  0.00000000000E+00 0.  1.
          6    2    1    2  501    0 -0.11521497336E+03 -0.51088102456E+02  0.34824593594E+02  0.21600433155E+03  0.17193206400E+03 0.  0.
         24    2    3    3    0    0 -0.14446367682E+03 -0.64531478049E+02  0.17696494927E+02  0.17923922900E+03  0.82337535199E+02 0.  0.
         -6    2    1    2    0  502  0.11521497336E+03  0.51088102456E+02  0.15645965163E+03  0.26498641474E+03  0.17278221294E+03 0.  0.
        -24    2    5    5    0    0  0.12732341147E+03  0.52025961524E+02  0.84395173045E+02  0.19175477590E+03  0.10358280294E+03 0.  0.
          5    1    3    3  501    0  0.29248703457E+02  0.13443375593E+02  0.17128098666E+02  0.36765102545E+02  0.47000000000E+01 0. -1.
        -13    1    4    4    0    0 -0.80169843410E+02  0.71243852544E+01  0.20024127931E+02  0.82939293203E+02  0.00000000000E+00 0.  1.
         14    1    4    4    0    0 -0.64293833407E+02 -0.71655863303E+02 -0.23276330036E+01  0.96299935801E+02  0.00000000000E+00 0. -1.
         -5    1    5    5    0  502 -0.12108438113E+02 -0.93785906768E+00  0.72064478588E+02  0.73231638841E+02  0.47000000000E+01 0.  1.
         13    1    6    6    0    0  0.11352136721E+03  0.79947566832E+02  0.80148483841E+02  0.16031997292E+03  0.00000000000E+00 0. -1.
        -14    1    6    6    0    0  0.13802044260E+02 -0.27921605308E+02  0.42466892046E+01  0.31434802973E+02  0.00000000000E+00 0.  1.
<mgrwt>
<rscale>  2 0.21369309E+03</rscale>
<asrwt>0</asrwt>
<pdfrwt beam="1">  1       21 0.51713461E-01 0.21386486E+03</pdfrwt>
<pdfrwt beam="2">  1       21 0.22285116E-01 0.21386486E+03</pdfrwt>
<totfact> 0.66273408E+04</totfact>
</mgrwt>
</event>
<event>
12    1  0.1026879E-001  0.1848999E+03  0.7546771E-02  0.1163904E+00
         21   -1    0    0  501  502  0.00000000000E+00  0.00000000000E+00  0.15951130159E+03  0.15951130159E+03  0.00000000000E+00 0.  1.
         21   -1    0    0  502  503 -0.00000000000E+00 -0.00000000000E+00 -0.26960673885E+03  0.26960673885E+03  0.00000000000E+00 0.  1.
         -6    2    1    2    0  503  0.10261132831E+02 -0.52664874898E+02 -0.15503651862E+03  0.23883493316E+03  0.17357109003E+03 0.  0.
        -24    2    3    3    0    0 -0.25981986991E+02  0.11608078553E+02 -0.19779532454E+02  0.84688513844E+02  0.77272914643E+02 0.  0.
          6    2    1    2  501    0 -0.10261132831E+02  0.52664874898E+02  0.44941081365E+02  0.19028310729E+03  0.17694372051E+03 0.  0.
         24    2    5    5    0    0  0.53603458707E+02  0.32804651855E+02 -0.11032556472E+02  0.10294323870E+03  0.80784386634E+02 0.  0.
          5    1    5    5  501    0 -0.63864591537E+02  0.19860223043E+02  0.55973637837E+02  0.87339868584E+02  0.47000000000E+01 0. -1.
        -13    1    6    6    0    0  0.45967097801E+01  0.26206897191E+02  0.28973988080E+02  0.39337300192E+02  0.00000000000E+00 0.  1.
         14    1    6    6    0    0  0.49006748926E+02  0.65977546644E+01 -0.40006544551E+02  0.63605938511E+02  0.00000000000E+00 0. -1.
         -5    1    3    3    0  503  0.36243119822E+02 -0.64272953451E+02 -0.13525698617E+03  0.15414641931E+03  0.47000000000E+01 0.  1.
         11    1    4    4    0    0 -0.20287502097E+02 -0.31317388507E+02 -0.17798089648E+02  0.41341668560E+02  0.00000000000E+00 0. -1.
        -12    1    4    4    0    0 -0.56944848941E+01  0.42925467060E+02 -0.19814428054E+01  0.43346845284E+02  0.00000000000E+00 0.  1.
<mgrwt>
<rscale>  2 0.18408832E+03</rscale>
<asrwt>0</asrwt>
<pdfrwt beam="1">  1       21 0.24540200E-01 0.18489987E+03</pdfrwt>
<pdfrwt beam="2">  1       21 0.41477959E-01 0.18489987E+03</pdfrwt>
<totfact> 0.88094022E+04</totfact>
</mgrwt>
</event>
<event>
12    1  0.1026879E-001  0.2444787E+03  0.7546771E-02  0.1116857E+00
         21   -1    0    0  501  502  0.00000000000E+00  0.00000000000E+00  0.63003460963E+03  0.63003460963E+03  0.00000000000E+00 0.  1.
         21   -1    0    0  502  503 -0.00000000000E+00 -0.00000000000E+00 -0.34894916895E+03  0.34894916895E+03  0.00000000000E+00 0.  1.
         -6    2    1    2    0  503 -0.11777777162E+03  0.12512002002E+03 -0.27717482585E+03  0.36953781364E+03  0.17379783867E+03 0.  0.
        -24    2    3    3    0    0 -0.35162392049E+02  0.10812067671E+03 -0.22734170115E+03  0.27145769878E+03  0.95281470361E+02 0.  0.
          6    2    1    2  501    0  0.11777777162E+03 -0.12512002002E+03  0.55826026653E+03  0.60944596494E+03  0.17390582535E+03 0.  0.
         24    2    5    5    0    0  0.12454160684E+03 -0.12146877133E+03  0.56519348624E+03  0.59807756050E+03  0.89374589441E+02 0.  0.
          5    1    5    5  501    0 -0.67638352240E+01 -0.36512486913E+01 -0.69332197088E+01  0.11368404438E+02  0.47000000000E+01 0. -1.
        -13    1    6    6    0    0 -0.39469012537E+01 -0.27594141581E+02  0.16621966714E+03  0.16854077377E+03  0.00000000000E+00 0.  1.
         14    1    6    6    0    0  0.12848850809E+03 -0.93874629751E+02  0.39897381910E+03  0.42953678673E+03  0.00000000000E+00 0. -1.
         -5    1    3    3    0  503 -0.82615379567E+02  0.16999343309E+02 -0.49833124699E+02  0.98080114862E+02  0.47000000000E+01 0.  1.
         11    1    4    4    0    0 -0.25211928523E+00  0.11428496153E+02  0.84600153916E+01  0.14221320222E+02  0.00000000000E+00 0. -1.
        -12    1    4    4    0    0 -0.34910272764E+02  0.96692180562E+02 -0.23580171655E+03  0.25723637855E+03  0.00000000000E+00 0.  1.
<mgrwt>
<rscale>  2 0.24445955E+03</rscale>
<asrwt>0</asrwt>
<pdfrwt beam="1">  1       21 0.96928401E-01 0.24447875E+03</pdfrwt>
<pdfrwt beam="2">  1       21 0.53684488E-01 0.24447875E+03</pdfrwt>
<totfact> 0.27850016E+03</totfact>
</mgrwt>
</event>
<event>
12    1  0.1026879E-001  0.2081954E+03  0.7546771E-02  0.1144324E+00
         21   -1    0    0  501  502  0.00000000000E+00  0.00000000000E+00  0.72104010588E+02  0.72104010588E+02  0.00000000000E+00 0.  1.
         21   -1    0    0  502  503 -0.00000000000E+00 -0.00000000000E+00 -0.10949808687E+04  0.10949808687E+04  0.00000000000E+00 0. -1.
         -6    2    1    2    0  503 -0.15250330331E+02 -0.10467019327E+03 -0.91490742571E+03  0.93829682528E+03  0.17932348646E+03 0.  0.
        -24    2    3    3    0    0  0.59473363791E+02 -0.72181665545E+02 -0.61827034749E+03  0.63063665388E+03  0.81835767177E+02 0.  0.
          6    2    1    2  501    0  0.15250330331E+02  0.10467019327E+03 -0.10796943242E+03  0.22878805402E+03  0.17175026460E+03 0.  0.
         24    2    5    5    0    0  0.49067115244E+02  0.73356486258E+02 -0.95942550427E+01  0.12005034799E+03  0.80816337752E+02 0.  0.
          5    1    5    5  501    0 -0.33816784913E+02  0.31313707008E+02 -0.98375177380E+02  0.10873770603E+03  0.47000000000E+01 0. -1.
        -11    1    6    6    0    0  0.16866961147E+01  0.37329431728E+02  0.30541458987E+02  0.48260875810E+02  0.00000000000E+00 0.  1.
         12    1    6    6    0    0  0.47380419129E+02  0.36027054530E+02 -0.40135714029E+02  0.71789472178E+02  0.00000000000E+00 0. -1.
         -5    1    3    3    0  503 -0.74723694122E+02 -0.32488527721E+02 -0.29663707822E+03  0.30766017141E+03  0.47000000000E+01 0.  1.
         13    1    4    4    0    0 -0.65717992223E+01 -0.34338926402E+02 -0.84214357963E+02  0.91183378411E+02  0.00000000000E+00 0. -1.
        -14    1    4    4    0    0  0.66045163014E+02 -0.37842739144E+02 -0.53405598953E+03  0.53945327547E+03  0.00000000000E+00 0.  1.
<mgrwt>
<rscale>  2 0.20655456E+03</rscale>
<asrwt>0</asrwt>
<pdfrwt beam="1">  1       21 0.11092925E-01 0.20819542E+03</pdfrwt>
<pdfrwt beam="2">  1       21 0.16845859E+00 0.20819542E+03</pdfrwt>
<totfact> 0.14604626E+04</totfact>
</mgrwt>
</event>
<event>
12    1  0.1026879E-001  0.2516940E+03  0.7546771E-02  0.1112244E+00
         21   -1    0    0  503  502  0.00000000000E+00  0.00000000000E+00  0.13261667380E+04  0.13261667380E+04  0.00000000000E+00 0.  1.
         21   -1    0    0  501  503 -0.00000000000E+00 -0.00000000000E+00 -0.47785018801E+02  0.47785018801E+02  0.00000000000E+00 0.  1.
          6    2    1    2  501    0  0.50104120234E+01 -0.18348829474E+03  0.65418264684E+03  0.70093137437E+03  0.17221149094E+03 0.  0.
         24    2    3    3    0    0 -0.35499409883E+01 -0.13077236522E+03  0.61646789855E+03  0.63538184265E+03  0.81014828595E+02 0.  0.
         -6    2    1    2    0  502 -0.50104120234E+01  0.18348829474E+03  0.62419907239E+03  0.67302038246E+03  0.17215950366E+03 0.  0.
        -24    2    5    5    0    0 -0.36114553124E+02  0.88460779815E+02  0.48972212123E+03  0.50537839315E+03  0.80311852984E+02 0.  0.
          5    1    3    3  501    0  0.85603530117E+01 -0.52715929523E+02  0.37714748295E+02  0.65549531715E+02  0.47000000000E+01 0. -1.
        -11    1    4    4    0    0  0.26937149928E+02 -0.10708513448E+02  0.90763539149E+02  0.95280125658E+02  0.00000000000E+00 0.  1.
         12    1    4    4    0    0 -0.30487090916E+02 -0.12006385177E+03  0.52570435940E+03  0.54010171700E+03  0.00000000000E+00 0. -1.
         -5    1    5    5    0  502  0.31104141100E+02  0.95027514926E+02  0.13447695116E+03  0.16764198931E+03  0.47000000000E+01 0.  1.
         13    1    6    6    0    0  0.21798869156E+02  0.42010141615E+01  0.73291412486E+02  0.76579829986E+02  0.00000000000E+00 0. -1.
        -14    1    6    6    0    0 -0.57913422279E+02  0.84259765654E+02  0.41643070874E+03  0.42879856316E+03  0.00000000000E+00 0.  1.
<mgrwt>
<rscale>  2 0.25168508E+03</rscale>
<asrwt>0</asrwt>
<pdfrwt beam="1">  1       21 0.20402562E+00 0.25169397E+03</pdfrwt>
<pdfrwt beam="2">  1       21 0.73515424E-02 0.25169397E+03</pdfrwt>
<totfact> 0.16868058E+04</totfact>
</mgrwt>
</event>
<event>
12    1  0.1026879E-001  0.3448747E+03  0.7546771E-02  0.1064928E+00
         21   -1    0    0  503  502  0.00000000000E+00  0.00000000000E+00  0.12103555676E+03  0.12103555676E+03  0.00000000000E+00 0. -1.
         21   -1    0    0  501  503 -0.00000000000E+00 -0.00000000000E+00 -0.11938234986E+04  0.11938234986E+04  0.00000000000E+00 0.  1.
          6    2    1    2  501    0 -0.41706968373E+02 -0.29206622543E+03 -0.81737965740E+03  0.88715728567E+03  0.17859561568E+03 0.  0.
         24    2    3    3    0    0  0.59070495274E+01 -0.25874070548E+03 -0.52637311696E+03  0.59036681824E+03  0.66952788680E+02 0.  0.
         -6    2    1    2    0  502  0.41706968373E+02  0.29206622543E+03 -0.25540828439E+03  0.42770176964E+03  0.17508072645E+03 0.  0.
        -24    2    5    5    0    0  0.51603202994E+02  0.14733440856E+03 -0.62829960641E+02  0.18655091426E+03  0.80519073226E+02 0.  0.
          5    1    3    3  501    0 -0.47614017900E+02 -0.33325519951E+02 -0.29100654044E+03  0.29679046743E+03  0.47000000000E+01 0. -1.
        -11    1    4    4    0    0 -0.28145134222E+02 -0.82272642831E+02 -0.19138468834E+03  0.21021188184E+03  0.00000000000E+00 0.  1.
         12    1    4    4    0    0  0.34052183750E+02 -0.17646806264E+03 -0.33498842863E+03  0.38015493640E+03  0.00000000000E+00 0. -1.
         -5    1    5    5    0  502 -0.98962346212E+01  0.14473181687E+03 -0.19257832375E+03  0.24115085539E+03  0.47000000000E+01 0.  1.
         11    1    6    6    0    0  0.59635614845E+02  0.90103147269E+02 -0.69350745208E+02  0.12839201520E+03  0.00000000000E+00 0. -1.
        -12    1    6    6    0    0 -0.80324118504E+01  0.57231261287E+02  0.65207845679E+01  0.58158899061E+02  0.00000000000E+00 0.  1.
<mgrwt>
<rscale>  2 0.34442203E+03</rscale>
<asrwt>0</asrwt>
<pdfrwt beam="1">  1       21 0.18620855E-01 0.34487468E+03</pdfrwt>
<pdfrwt beam="2">  1       21 0.18366515E+00 0.34487468E+03</pdfrwt>
<totfact> 0.40829575E+03</totfact>
</mgrwt>
</event>
<event>
12    1  0.1026879E-001  0.1931062E+03  0.7546771E-02  0.1155729E+00
         21   -1    0    0  503  502  0.00000000000E+00  0.00000000000E+00  0.45261414460E+02  0.45261414460E+02  0.00000000000E+00 0. -1.
         21   -1    0    0  501  503 -0.00000000000E+00 -0.00000000000E+00 -0.85695983025E+03  0.85695983025E+03  0.00000000000E+00 0. -1.
          6    2    1    2  501    0  0.18714121198E+02  0.83454342127E+02 -0.49531930334E+03  0.53156538733E+03  0.17293265509E+03 0.  0.
         24    2    3    3    0    0  0.39672310345E+02  0.27407247190E+02 -0.43679898773E+03  0.44773675331E+03  0.85730946424E+02 0.  0.
         -6    2    1    2    0  502 -0.18714121198E+02 -0.83454342127E+02 -0.31637911245E+03  0.37065585738E+03  0.17313340597E+03 0.  0.
        -24    2    5    5    0    0  0.10532989859E+02 -0.93857095927E+01 -0.57390524440E+02  0.99660037208E+02  0.80245967506E+02 0.  0.
          5    1    3    3  501    0 -0.20958189147E+02  0.56047094936E+02 -0.58520315611E+02  0.83828634024E+02  0.47000000000E+01 0. -1.
        -11    1    4    4    0    0 -0.16242229652E+02  0.22150298277E+02 -0.27695488415E+03  0.27831358858E+03  0.00000000000E+00 0.  1.
         12    1    4    4    0    0  0.55914539997E+02  0.52569489131E+01 -0.15984410358E+03  0.16942316472E+03  0.00000000000E+00 0. -1.
         -5    1    5    5    0  502 -0.29247111057E+02 -0.74068632534E+02 -0.25898858802E+03  0.27099582018E+03  0.47000000000E+01 0.  1.
         11    1    6    6    0    0 -0.32632876866E+02  0.36252183131E+01 -0.10168298068E+02  0.34372098364E+02  0.00000000000E+00 0. -1.
        -12    1    6    6    0    0  0.43165866724E+02 -0.13010927906E+02 -0.47222226372E+02  0.65287938845E+02  0.00000000000E+00 0.  1.
<mgrwt>
<rscale>  2 0.19306124E+03</rscale>
<asrwt>0</asrwt>
<pdfrwt beam="1">  1       21 0.69632942E-02 0.19310624E+03</pdfrwt>
<pdfrwt beam="2">  1       21 0.13183998E+00 0.19310624E+03</pdfrwt>
<totfact> 0.63668136E+04</totfact>
</mgrwt>
</event>
<event>
12    1  0.1026879E-001  0.1773408E+03  0.7546771E-02  0.1170408E+00
         21   -1    0    0  501  502  0.00000000000E+00  0.00000000000E+00  0.11572706847E+04  0.11572706847E+04  0.00000000000E+00 0. -1.
         21   -1    0    0  502  503 -0.00000000000E+00 -0.00000000000E+00 -0.39835759975E+02  0.39835759975E+02  0.00000000000E+00 0. -1.
         -6    2    1    2    0  503 -0.63129068611E+01 -0.36435185095E+02  0.22121061049E+03  0.28350489160E+03  0.17341716715E+03 0.  0.
        -24    2    3    3    0    0 -0.41639875252E+02 -0.42383334036E+02  0.51927010085E+02  0.11040837939E+03  0.77222857034E+02 0.  0.
          6    2    1    2  501    0  0.63129068611E+01  0.36435185095E+02  0.89622431424E+03  0.91360155308E+03  0.17344278842E+03 0.  0.
         24    2    5    5    0    0 -0.54066544554E+02 -0.13857960930E+02  0.48517322652E+03  0.49508014932E+03  0.81216132631E+02 0.  0.
          5    1    5    5  501    0  0.60379451415E+02  0.50293146025E+02  0.41105108772E+03  0.41852140376E+03  0.47000000000E+01 0. -1.
        -13    1    6    6    0    0 -0.36983170279E+02 -0.23279199662E+02  0.46488301730E+03  0.46693243172E+03  0.00000000000E+00 0.  1.
         14    1    6    6    0    0 -0.17083374275E+02  0.94212387323E+01  0.20290209222E+02  0.28147717601E+02  0.00000000000E+00 0. -1.
         -5    1    3    3    0  503  0.35326968391E+02  0.59481489414E+01  0.16928360041E+03  0.17309651221E+03  0.47000000000E+01 0.  1.
         11    1    4    4    0    0  0.16823171703E+01 -0.52841377361E+02  0.28316878126E+02  0.59974052217E+02  0.00000000000E+00 0. -1.
        -12    1    4    4    0    0 -0.43322192423E+02  0.10458043325E+02  0.23610131959E+02  0.50434327175E+02  0.00000000000E+00 0.  1.
<mgrwt>
<rscale>  2 0.17733458E+03</rscale>
<asrwt>0</asrwt>
<pdfrwt beam="1">  1       21 0.17804162E+00 0.17734085E+03</pdfrwt>
<pdfrwt beam="2">  1       21 0.61285794E-02 0.17734085E+03</pdfrwt>
<totfact> 0.36041822E+04</totfact>
</mgrwt>
</event>
<event>
12    1  0.1026879E-001  0.2332044E+03  0.7546771E-02  0.1124444E+00
         21   -1    0    0  503  502  0.00000000000E+00  0.00000000000E+00  0.28236065716E+03  0.28236065716E+03  0.00000000000E+00 0. -1.
         21   -1    0    0  501  503 -0.00000000000E+00 -0.00000000000E+00 -0.34106243014E+03  0.34106243014E+03  0.00000000000E+00 0. -1.
          6    2    1    2  501    0  0.26341359089E+02 -0.15406802172E+03 -0.23512693977E+03  0.33100197215E+03  0.17276227957E+03 0.  0.
         24    2    3    3    0    0  0.65105182986E+02 -0.14436383186E+03 -0.13657260227E+03  0.22455079656E+03  0.81800878626E+02 0.  0.
         -6    2    1    2    0  502 -0.26341359089E+02  0.15406802172E+03  0.17642516679E+03  0.29242111515E+03  0.17307064047E+03 0.  0.
        -24    2    5    5    0    0 -0.48220327530E+02  0.65167165834E+02  0.15817765642E+03  0.19894858939E+03  0.89377909683E+02 0.  0.
          5    1    3    3  501    0 -0.38763823897E+02 -0.97041898648E+01 -0.98554337505E+02  0.10645117559E+03  0.47000000000E+01 0. -1.
        -13    1    4    4    0    0 -0.13365488480E+02 -0.76861166966E+01 -0.31683695931E+02  0.35235908673E+02  0.00000000000E+00 0.  1.
         14    1    4    4    0    0  0.78470671466E+02 -0.13667771516E+03 -0.10488890634E+03  0.18931488788E+03  0.00000000000E+00 0. -1.
         -5    1    5    5    0  502  0.21878968441E+02  0.88900855887E+02  0.18247510370E+02  0.93472525762E+02  0.47000000000E+01 0.  1.
         11    1    6    6    0    0  0.92111171419E+01  0.62362617454E+02  0.78152799251E+02  0.10040817081E+03  0.00000000000E+00 0. -1.
        -12    1    6    6    0    0 -0.57431444671E+02  0.28045483802E+01  0.80024857172E+02  0.98540418581E+02  0.00000000000E+00 0.  1.
<mgrwt>
<rscale>  2 0.23314714E+03</rscale>
<asrwt>0</asrwt>
<pdfrwt beam="1">  1       21 0.43440101E-01 0.23320435E+03</pdfrwt>
<pdfrwt beam="2">  1       21 0.52471143E-01 0.23320435E+03</pdfrwt>
<totfact> 0.17134856E+04</totfact>
</mgrwt>
</event>
<event>
12    1  0.1026879E-001  0.1982788E+03  0.7546771E-02  0.1151352E+00
         21   -1    0    0  503  502  0.00000000000E+00  0.00000000000E+00  0.48694313431E+03  0.48694313431E+03  0.00000000000E+00 0.  1.
         21   -1    0    0  501  503 -0.00000000000E+00 -0.00000000000E+00 -0.12948514368E+03  0.12948514368E+03  0.00000000000E+00 0.  1.
          6    2    1    2  501    0 -0.52862892255E+02 -0.79339111630E+02 -0.10744994108E+02  0.19856972659E+03  0.17385425335E+03 0.  0.
         24    2    3    3    0    0 -0.10640246587E+01 -0.88579523173E+01 -0.57319632536E+02  0.99362854618E+02  0.80671191488E+02 0.  0.
         -6    2    1    2    0  502  0.52862892255E+02  0.79339111630E+02  0.36820298473E+03  0.41785855140E+03  0.17304089400E+03 0.  0.
        -24    2    5    5    0    0  0.30254369967E+02  0.49585204156E+02  0.36701166122E+03  0.38017633355E+03  0.80389462928E+02 0.  0.
          5    1    3    3  501    0 -0.51798867597E+02 -0.70481159313E+02  0.46574638428E+02  0.99206871975E+02  0.47000000000E+01 0. -1.
        -13    1    4    4    0    0 -0.33372536159E+02 -0.99936924739E+01 -0.57271320366E+02  0.67034350862E+02  0.00000000000E+00 0.  1.
         14    1    4    4    0    0  0.32308511500E+02  0.11357401567E+01 -0.48312170123E-01  0.32328503757E+02  0.00000000000E+00 0. -1.
         -5    1    5    5    0  502  0.22608522288E+02  0.29753907474E+02  0.11913235167E+01  0.37682217846E+02  0.47000000000E+01 0.  1.
         11    1    6    6    0    0  0.28964503706E+02  0.28355535806E+02  0.59879353352E+02  0.72308476983E+02  0.00000000000E+00 0. -1.
        -12    1    6    6    0    0  0.12898662609E+01  0.21229668350E+02  0.30713230787E+03  0.30786785657E+03  0.00000000000E+00 0.  1.
<mgrwt>
<rscale>  2 0.19810036E+03</rscale>
<asrwt>0</asrwt>
<pdfrwt beam="1">  1       21 0.74914328E-01 0.19827880E+03</pdfrwt>
<pdfrwt beam="2">  1       21 0.19920792E-01 0.19827880E+03</pdfrwt>
<totfact> 0.36956863E+04</totfact>
</mgrwt>
</event>
<event>
12    1  0.1026879E-001  0.2306716E+03  0.7546771E-02  0.1128408E+00
         21   -1    0    0  503  502  0.00000000000E+00  0.00000000000E+00  0.53970853302E+03  0.53970853302E+03  0.00000000000E+00 0.  1.
         21   -1    0    0  501  503 -0.00000000000E+00 -0.00000000000E+00 -0.10406017002E+03  0.10406017002E+03  0.00000000000E+00 0. -1.
          6    2    1    2  501    0 -0.15197646839E+03  0.22567722932E+01  0.12003477572E+03  0.26003406680E+03  0.17351492314E+03 0.  0.
         24    2    3    3    0    0  0.14881270381E+01  0.19377089908E+02  0.29646688283E+02  0.81046403332E+02  0.72882832214E+02 0.  0.
         -6    2    1    2    0  502  0.15197646839E+03 -0.22567722932E+01  0.31561358728E+03  0.38373463623E+03  0.15664735747E+03 0.  0.
        -24    2    5    5    0    0  0.99357570165E+02 -0.56884633914E+02  0.22876319429E+03  0.26833085606E+03  0.81000376095E+02 0.  0.
          5    1    3    3  501    0 -0.15346459543E+03 -0.17120317614E+02  0.90388087436E+02  0.17898766347E+03  0.47000000000E+01 0. -1.
        -13    1    4    4    0    0 -0.18095906659E+02 -0.22133566152E+02  0.17676482595E+02  0.33612715234E+02  0.00000000000E+00 0.  1.
         14    1    4    4    0    0  0.19584033698E+02  0.41510656060E+02  0.11970205688E+02  0.47433688098E+02  0.00000000000E+00 0. -1.
         -5    1    5    5    0  502  0.52618898224E+02  0.54627861621E+02  0.86850392986E+02  0.11540378017E+03  0.47000000000E+01 0.  1.
         13    1    6    6    0    0  0.67347456531E+02  0.60024259577E+01  0.89070521332E+02  0.11182695019E+03  0.00000000000E+00 0. -1.
        -14    1    6    6    0    0  0.32010113634E+02 -0.62887059872E+02  0.13969267296E+03  0.15650390587E+03  0.00000000000E+00 0.  1.
<mgrwt>
<rscale>  2 0.22750576E+03</rscale>
<asrwt>0</asrwt>
<pdfrwt beam="1">  1       21 0.83032081E-01 0.23067156E+03</pdfrwt>
<pdfrwt beam="2">  1       21 0.16009257E-01 0.23067156E+03</pdfrwt>
<totfact> 0.43211797E+04</totfact>
</mgrwt>
</event>
<event>
12    1  0.1026879E-001  0.3837126E+03  0.7546771E-02  0.1049695E+00
         21   -1    0    0  503  502  0.00000000000E+00  0.00000000000E+00  0.10529056800E+04  0.10529056800E+04  0.00000000000E+00 0.  1.
         21   -1    0    0  501  503 -0.00000000000E+00 -0.00000000000E+00 -0.19906373068E+03  0.19906373068E+03  0.00000000000E+00 0. -1.
          6    2    1    2  501    0 -0.25369858859E+03 -0.22981927680E+03  0.84577034640E+02  0.39292316483E+03  0.17336512000E+03 0.  0.
         24    2    3    3    0    0 -0.22068021773E+03 -0.24151252067E+03  0.10475872965E+03  0.35222506193E+03  0.77846301605E+02 0.  0.
         -6    2    1    2    0  502  0.25369858859E+03  0.22981927680E+03  0.76926491464E+03  0.85904624580E+03  0.17032929780E+03 0.  0.
        -24    2    5    5    0    0  0.42993531477E+02  0.80751877361E+02  0.20288178022E+03  0.23660777043E+03  0.80330012051E+02 0.  0.
          5    1    3    3  501    0 -0.33018370857E+02  0.11693243870E+02 -0.20181695012E+02  0.40698102902E+02  0.47000000000E+01 0. -1.
        -11    1    4    4    0    0 -0.58569538228E+02 -0.11883046157E+03  0.31927950038E+02  0.13627348751E+03  0.00000000000E+00 0.  1.
         12    1    4    4    0    0 -0.16211067950E+03 -0.12268205911E+03  0.72830779614E+02  0.21595157442E+03  0.00000000000E+00 0. -1.
         -5    1    5    5    0  502  0.21070505711E+03  0.14906739944E+03  0.56638313442E+03  0.62243847538E+03  0.47000000000E+01 0.  1.
         13    1    6    6    0    0  0.58492840263E+02  0.64624270975E+02  0.10629088378E+03  0.13746076071E+03  0.00000000000E+00 0. -1.
        -14    1    6    6    0    0 -0.15499308786E+02  0.16127606386E+02  0.96590896438E+02  0.99147009714E+02  0.00000000000E+00 0.  1.
<mgrwt>
<rscale>  2 0.38337161E+03</rscale>
<asrwt>0</asrwt>
<pdfrwt beam="1">  1       21 0.16198549E+00 0.38371257E+03</pdfrwt>
<pdfrwt beam="2">  1       21 0.30625190E-01 0.38371257E+03</pdfrwt>
<totfact> 0.21927582E+03</totfact>
</mgrwt>
</event>
<event>
12    1  0.1026879E-001  0.1745763E+03  0.7546771E-02  0.1173453E+00
         21   -1    0    0  503  502  0.00000000000E+00  0.00000000000E+00  0.70589399721E+02  0.70589399721E+02  0.00000000000E+00 0.  1.
         21   -1    0    0  501  503 -0.00000000000E+00 -0.00000000000E+00 -0.47482665977E+03  0.47482665977E+03  0.00000000000E+00 0.  1.
          6    2    1    2  501    0  0.19847111827E+02 -0.14985297571E+02 -0.28635117406E+03  0.33476463785E+03  0.17161556129E+03 0.  0.
         24    2    3    3    0    0  0.25390004156E+02  0.43680538576E+02 -0.93669237325E+02  0.13321855694E+03  0.80128747215E+02 0.  0.
         -6    2    1    2    0  502 -0.19847111827E+02  0.14985297571E+02 -0.11788608599E+03  0.21065142164E+03  0.17279590614E+03 0.  0.
        -24    2    5    5    0    0  0.25825416241E+01  0.32646679544E+02  0.27041891876E+01  0.86638848754E+02  0.80165468051E+02 0.  0.
          5    1    3    3  501    0 -0.55428923288E+01 -0.58665836147E+02 -0.19268193674E+03  0.20154608091E+03  0.47000000000E+01 0. -1.
        -13    1    4    4    0    0  0.89102790960E+01  0.15102446588E+02 -0.98348196797E+02  0.99899173068E+02  0.00000000000E+00 0.  1.
         14    1    4    4    0    0  0.16479725060E+02  0.28578091988E+02  0.46789594719E+01  0.33319383870E+02  0.00000000000E+00 0. -1.
         -5    1    5    5    0  502 -0.22429653451E+02 -0.17661381973E+02 -0.12059027518E+03  0.12401257289E+03  0.47000000000E+01 0.  1.
         11    1    6    6    0    0 -0.44681345529E+01  0.19654532692E+02 -0.38174864804E+02  0.43169262034E+02  0.00000000000E+00 0. -1.
        -12    1    6    6    0    0  0.70506761771E+01  0.12992146852E+02  0.40879053992E+02  0.43469586721E+02  0.00000000000E+00 0.  1.
<mgrwt>
<rscale>  2 0.17428353E+03</rscale>
<asrwt>0</asrwt>
<pdfrwt beam="1">  1       21 0.10859908E-01 0.17457632E+03</pdfrwt>
<pdfrwt beam="2">  1       21 0.73050255E-01 0.17457632E+03</pdfrwt>
<totfact> 0.11900475E+05</totfact>
</mgrwt>
</event>
<event>
12    1  0.1026879E-001  0.2342778E+03  0.7546771E-02  0.1123671E+00
         21   -1    0    0  501  502  0.00000000000E+00  0.00000000000E+00  0.12110249959E+03  0.12110249959E+03  0.00000000000E+00 0.  1.
         21   -1    0    0  502  503 -0.00000000000E+00 -0.00000000000E+00 -0.52589481114E+03  0.52589481114E+03  0.00000000000E+00 0.  1.
         -6    2    1    2    0  503  0.15258995482E+03 -0.37576575165E+02 -0.32269992314E+03  0.39875297569E+03  0.17370377633E+03 0.  0.
        -24    2    3    3    0    0  0.55426358217E+02 -0.57945642580E+02 -0.26528567246E+03  0.28397427735E+03  0.61928373966E+02 0.  0.
          6    2    1    2  501    0 -0.15258995482E+03  0.37576575165E+02 -0.82092388403E+02  0.24824433504E+03  0.17375383833E+03 0.  0.
         24    2    5    5    0    0 -0.95614259311E+02  0.68486124136E+02 -0.10784558634E+03  0.17833763079E+03  0.79631678858E+02 0.  0.
          5    1    5    5  501    0 -0.56975695504E+02 -0.30909548971E+02  0.25753197941E+02  0.69906704256E+02  0.47000000000E+01 0. -1.
        -11    1    6    6    0    0 -0.14807224571E+02  0.29048469200E+02  0.61171086185E+01  0.33173581058E+02  0.00000000000E+00 0.  1.
         12    1    6    6    0    0 -0.80807034740E+02  0.39437654936E+02 -0.11396269496E+03  0.14516404973E+03  0.00000000000E+00 0. -1.
         -5    1    3    3    0  503  0.97163596599E+02  0.20369067415E+02 -0.57414250682E+02  0.11477869834E+03  0.47000000000E+01 0.  1.
         13    1    4    4    0    0  0.67327103774E+02 -0.56454968704E+02 -0.24644964739E+03  0.26164390131E+03  0.00000000000E+00 0. -1.
        -14    1    4    4    0    0 -0.11900745557E+02 -0.14906738760E+01 -0.18836025065E+02  0.22330376031E+02  0.00000000000E+00 0.  1.
<mgrwt>
<rscale>  2 0.23426852E+03</rscale>
<asrwt>0</asrwt>
<pdfrwt beam="1">  1       21 0.18631154E-01 0.23427780E+03</pdfrwt>
<pdfrwt beam="2">  1       21 0.80906893E-01 0.23427780E+03</pdfrwt>
<totfact> 0.34569504E+04</totfact>
</mgrwt>
</event>
<event>
12    1  0.1026879E-001  0.1884425E+03  0.7546771E-02  0.1160516E+00
         21   -1    0    0  501  502  0.00000000000E+00  0.00000000000E+00  0.13877271115E+03  0.13877271115E+03  0.00000000000E+00 0. -1.
         21   -1    0    0  502  503 -0.00000000000E+00 -0.00000000000E+00 -0.42031091437E+03  0.42031091437E+03  0.00000000000E+00 0.  1.
         -6    2    1    2    0  503 -0.19034079286E+02  0.71159354748E+02 -0.31823652931E+03  0.36984467217E+03  0.17344925194E+03 0.  0.
        -24    2    3    3    0    0 -0.60546731418E+02  0.65963169795E+02 -0.30081083981E+03  0.32428103228E+03  0.81571932031E+02 0.  0.
          6    2    1    2  501    0  0.19034079286E+02 -0.71159354748E+02  0.36698326097E+02  0.18923895335E+03  0.17040734839E+03 0.  0.
         24    2    5    5    0    0 -0.44551561916E+02 -0.37812448292E+01  0.81991956920E+01  0.92196519863E+02  0.80211171187E+02 0.  0.
          5    1    5    5  501    0  0.63585641202E+02 -0.67378109919E+02  0.28499130405E+02  0.97042433488E+02  0.47000000000E+01 0. -1.
        -11    1    6    6    0    0 -0.30662397579E+02  0.15089826855E+02 -0.31253365642E+02  0.46310456311E+02  0.00000000000E+00 0.  1.
         12    1    6    6    0    0 -0.13889164337E+02 -0.18871071684E+02  0.39452561334E+02  0.45886063552E+02  0.00000000000E+00 0. -1.
         -5    1    3    3    0  503  0.41512652132E+02  0.51961849528E+01 -0.17425689506E+02  0.45563639888E+02  0.47000000000E+01 0.  1.
         13    1    4    4    0    0 -0.27173612679E+02  0.50310438238E+02 -0.69256201532E+02  0.89810728047E+02  0.00000000000E+00 0. -1.
        -14    1    4    4    0    0 -0.33373118740E+02  0.15652731557E+02 -0.23155463828E+03  0.23447030423E+03  0.00000000000E+00 0.  1.
<mgrwt>
<rscale>  2 0.18773960E+03</rscale>
<asrwt>0</asrwt>
<pdfrwt beam="1">  1       21 0.21349648E-01 0.18844255E+03</pdfrwt>
<pdfrwt beam="2">  1       21 0.64663217E-01 0.18844255E+03</pdfrwt>
<totfact> 0.45114240E+04</totfact>
</mgrwt>
</event>
<event>
12    1  0.1026879E-001  0.2126829E+03  0.7546771E-02  0.1139462E+00
         21   -1    0    0  503  502  0.00000000000E+00  0.00000000000E+00  0.61126590491E+03  0.61126590491E+03  0.00000000000E+00 0. -1.
         21   -1    0    0  501  503 -0.00000000000E+00 -0.00000000000E+00 -0.84651717206E+02  0.84651717206E+02  0.00000000000E+00 0. -1.
          6    2    1    2  501    0  0.20905220741E+02 -0.12170527687E+03  0.13986026329E+03  0.25454840470E+03  0.17316118045E+03 0.  0.
         24    2    3    3    0    0  0.13075243166E+02 -0.65042025781E+02  0.16278297206E+03  0.19274570936E+03  0.79064438169E+02 0.  0.
         -6    2    1    2    0  502 -0.20905220741E+02  0.12170527687E+03  0.38675392442E+03  0.44136921742E+03  0.17314440608E+03 0.  0.
        -24    2    5    5    0    0 -0.44786085084E+02  0.16387874111E+02  0.24586141948E+03  0.26378870341E+03  0.82838919738E+02 0.  0.
          5    1    3    3  501    0  0.78299775743E+01 -0.56663251093E+02 -0.22922708777E+02  0.61802695337E+02  0.47000000000E+01 0. -1.
        -11    1    4    4    0    0  0.16116345373E+01  0.76820942095E+01  0.86044943331E+02  0.86402223410E+02  0.00000000000E+00 0.  1.
         12    1    4    4    0    0  0.11463608629E+02 -0.72724119991E+02  0.76738028731E+02  0.10634348595E+03  0.00000000000E+00 0. -1.
         -5    1    5    5    0  502  0.23880864343E+02  0.10531740276E+03  0.14089250494E+03  0.17758051400E+03  0.47000000000E+01 0.  1.
         11    1    6    6    0    0 -0.13053334840E+02  0.38780607112E+02  0.52485332622E+02  0.66550996828E+02  0.00000000000E+00 0. -1.
        -12    1    6    6    0    0 -0.31732750243E+02 -0.22392733000E+02  0.19337608686E+03  0.19723770658E+03  0.00000000000E+00 0.  1.
<mgrwt>
<rscale>  2 0.21267944E+03</rscale>
<asrwt>0</asrwt>
<pdfrwt beam="1">  1       21 0.94040906E-01 0.21268286E+03</pdfrwt>
<pdfrwt beam="2">  1       21 0.13023342E-01 0.21268286E+03</pdfrwt>
<totfact> 0.47576829E+04</totfact>
</mgrwt>
</event>
<event>
12    1  0.1026879E-001  0.2051592E+03  0.7546771E-02  0.1145874E+00
         21   -1    0    0  501  502  0.00000000000E+00  0.00000000000E+00  0.16629883829E+03  0.16629883829E+03  0.00000000000E+00 0.  1.
         21   -1    0    0  502  503 -0.00000000000E+00 -0.00000000000E+00 -0.25426370839E+03  0.25426370839E+03  0.00000000000E+00 0.  1.
         -6    2    1    2    0  503  0.10064896762E+03  0.31539510580E+02 -0.68991701151E+02  0.21452788220E+03  0.17360127304E+03 0.  0.
        -24    2    3    3    0    0  0.58447433781E+02 -0.26240394618E+02  0.12588157949E+02  0.10591457586E+03  0.83395292631E+02 0.  0.
          6    2    1    2  501    0 -0.10064896762E+03 -0.31539510580E+02 -0.18973168957E+02  0.20603466449E+03  0.17596973154E+03 0.  0.
         24    2    5    5    0    0 -0.11323752594E+03  0.82360763717E+01  0.28563860436E+02  0.14261204800E+03  0.81435446078E+02 0.  0.
          5    1    5    5  501    0  0.12588558317E+02 -0.39775586951E+02 -0.47537029394E+02  0.63422616482E+02  0.47000000000E+01 0. -1.
        -11    1    6    6    0    0 -0.93109542304E+02 -0.12905910627E+02 -0.96841867921E+01  0.94497263828E+02  0.00000000000E+00 0.  1.
         12    1    6    6    0    0 -0.20127983636E+02  0.21141986999E+02  0.38248047228E+02  0.48114784176E+02  0.00000000000E+00 0. -1.
         -5    1    3    3    0  503  0.42201533841E+02  0.57779905198E+02 -0.81579859099E+02  0.10861330634E+03  0.47000000000E+01 0.  1.
         13    1    4    4    0    0  0.78249091876E+02 -0.25799514555E+02  0.19968239835E+02  0.84777744325E+02  0.00000000000E+00 0. -1.
        -14    1    4    4    0    0 -0.19801658095E+02 -0.44088006298E+00 -0.73800818862E+01  0.21136831531E+02  0.00000000000E+00 0.  1.
<mgrwt>
<rscale>  2 0.20465036E+03</rscale>
<asrwt>0</asrwt>
<pdfrwt beam="1">  1       21 0.25584437E-01 0.20515921E+03</pdfrwt>
<pdfrwt beam="2">  1       21 0.39117494E-01 0.20515921E+03</pdfrwt>
<totfact> 0.90841162E+04</totfact>
</mgrwt>
</event>
<event>
12    1  0.1026879E-001  0.2028451E+03  0.7546771E-02  0.1147434E+00
         21   -1    0    0  503  502  0.00000000000E+00  0.00000000000E+00  0.10873196650E+04  0.10873196650E+04  0.00000000000E+00 0.  1.
         21   -1    0    0  501  503 -0.00000000000E+00 -0.00000000000E+00 -0.40532382757E+02  0.40532382757E+02  0.00000000000E+00 0.  1.
          6    2    1    2  501    0  0.96063870811E+02  0.47750471590E+02  0.37675307434E+03  0.42788903988E+03  0.17215625638E+03 0.  0.
         24    2    3    3    0    0  0.85834271244E+02  0.72097786939E+02  0.16892312204E+03  0.21833519109E+03  0.81053201689E+02 0.  0.
         -6    2    1    2    0  502 -0.96063870811E+02 -0.47750471590E+02  0.67003420790E+03  0.69996300788E+03  0.17173816648E+03 0.  0.
        -24    2    5    5    0    0 -0.43676214061E+02  0.47175704300E+02  0.22221428552E+03  0.23918082687E+03  0.60787502861E+02 0.  0.
          5    1    3    3  501    0  0.10229599567E+02 -0.24347315350E+02  0.20782995230E+03  0.20955384879E+03  0.47000000000E+01 0. -1.
        -11    1    4    4    0    0  0.69460861154E+02  0.68022872342E+02  0.17517181475E+03  0.20034242455E+03  0.00000000000E+00 0.  1.
         12    1    4    4    0    0  0.16373410090E+02  0.40749145970E+01 -0.62486927048E+01  0.17992766532E+02  0.00000000000E+00 0. -1.
         -5    1    5    5    0  502 -0.52387656750E+02 -0.94926175890E+02  0.44781992238E+03  0.46078218100E+03  0.47000000000E+01 0.  1.
         11    1    6    6    0    0 -0.49668061619E+02  0.43287784588E+02  0.12150017289E+03  0.13821374987E+03  0.00000000000E+00 0. -1.
        -12    1    6    6    0    0  0.59918475586E+01  0.38879197122E+01  0.10071411263E+03  0.10096707701E+03  0.00000000000E+00 0.  1.
<mgrwt>
<rscale>  2 0.20275640E+03</rscale>
<asrwt>0</asrwt>
<pdfrwt beam="1">  1       21 0.16727993E+00 0.20284514E+03</pdfrwt>
<pdfrwt beam="2">  1       21 0.62357520E-02 0.20284514E+03</pdfrwt>
<totfact> 0.40909007E+04</totfact>
</mgrwt>
</event>
<event>
12    1  0.1026879E-001  0.3537569E+03  0.7546771E-02  0.1061135E+00
         21   -1    0    0  503  502  0.00000000000E+00  0.00000000000E+00  0.17671777945E+04  0.17671777945E+04  0.00000000000E+00 0.  1.
         21   -1    0    0  501  503 -0.00000000000E+00 -0.00000000000E+00 -0.83391316788E+02  0.83391316788E+02  0.00000000000E+00 0. -1.
          6    2    1    2  501    0 -0.39536983795E+02 -0.30534041042E+03  0.12031663182E+04  0.12540945471E+04  0.17420678608E+03 0.  0.
         24    2    3    3    0    0 -0.89900040505E+02 -0.21398141258E+03  0.92027718191E+03  0.95254644573E+03  0.81022080416E+02 0.  0.
         -6    2    1    2    0  502  0.39536983795E+02  0.30534041042E+03  0.48062015943E+03  0.59647456418E+03  0.17317687127E+03 0.  0.
        -24    2    5    5    0    0 -0.35523372825E+02  0.17195504899E+03  0.31629680349E+03  0.37186386300E+03  0.86073316505E+02 0.  0.
          5    1    3    3  501    0  0.50363056709E+02 -0.91358997843E+02  0.28288913634E+03  0.30154810135E+03  0.47000000000E+01 0. -1.
        -13    1    4    4    0    0 -0.55106913502E+02 -0.20145275120E+03  0.78116407194E+03  0.80860205922E+03  0.00000000000E+00 0.  1.
         14    1    4    4    0    0 -0.34793127003E+02 -0.12528661380E+02  0.13911310997E+03  0.14394438651E+03  0.00000000000E+00 0. -1.
         -5    1    5    5    0  502  0.75060356620E+02  0.13338536143E+03  0.16432335594E+03  0.22461070118E+03  0.47000000000E+01 0.  1.
         13    1    6    6    0    0 -0.11524465808E+02  0.16357071199E+03  0.29932733561E+03  0.34129905505E+03  0.00000000000E+00 0. -1.
        -14    1    6    6    0    0 -0.23998907017E+02  0.83843369993E+01  0.16969467888E+02  0.30564807955E+02  0.00000000000E+00 0.  1.
<mgrwt>
<rscale>  2 0.35363032E+03</rscale>
<asrwt>0</asrwt>
<pdfrwt beam="1">  1       21 0.27187348E+00 0.35375690E+03</pdfrwt>
<pdfrwt beam="2">  1       21 0.12829435E-01 0.35375690E+03</pdfrwt>
<totfact> 0.22490921E+03</totfact>
</mgrwt>
</event>
<event>
12    1  0.1026879E-001  0.3756704E+03  0.7546771E-02  0.1052596E+00
         21   -1    0    0  503  502  0.00000000000E+00  0.00000000000E+00  0.18724832570E+04  0.18724832570E+04  0.00000000000E+00 0.  1.
         21   -1    0    0  501  503 -0.00000000000E+00 -0.00000000000E+00 -0.75730394265E+02  0.75730394265E+02  0.00000000000E+00 0. -1.
          6    2    1    2  501    0  0.14535786145E+03 -0.30048669673E+03  0.82115624876E+03  0.90278695994E+03  0.17118863091E+03 0.  0.
         24    2    3    3    0    0  0.83353011854E+02 -0.28971556274E+03  0.68393304035E+03  0.75174750275E+03  0.80480260479E+02 0.  0.
         -6    2    1    2    0  502 -0.14535786145E+03  0.30048669673E+03  0.97559661402E+03  0.10454266914E+04  0.17235733510E+03 0.  0.
        -24    2    5    5    0    0 -0.27704428454E+02  0.20094675753E+03  0.64109718706E+03  0.67710280344E+03  0.79469921666E+02 0.  0.
          5    1    3    3  501    0  0.62004849591E+02 -0.10771133988E+02  0.13722320841E+03  0.15103945719E+03  0.47000000000E+01 0. -1.
        -13    1    4    4    0    0  0.97338131741E+02 -0.21942829234E+03  0.54045963616E+03  0.59137137713E+03  0.00000000000E+00 0.  1.
         14    1    4    4    0    0 -0.13985119887E+02 -0.70287270399E+02  0.14347340419E+03  0.16037612562E+03  0.00000000000E+00 0. -1.
         -5    1    5    5    0  502 -0.11765343299E+03  0.99539939197E+02  0.33449942696E+03  0.36832388793E+03  0.47000000000E+01 0.  1.
         13    1    6    6    0    0 -0.30774713104E+02  0.39051373381E+02  0.91347108395E+02  0.10400186028E+03  0.00000000000E+00 0. -1.
        -14    1    6    6    0    0  0.30702846493E+01  0.16189538415E+03  0.54975007867E+03  0.57310094316E+03  0.00000000000E+00 0.  1.
<mgrwt>
<rscale>  2 0.37553659E+03</rscale>
<asrwt>0</asrwt>
<pdfrwt beam="1">  1       21 0.28807431E+00 0.37567035E+03</pdfrwt>
<pdfrwt beam="2">  1       21 0.11650831E-01 0.37567035E+03</pdfrwt>
<totfact> 0.21160992E+03</totfact>
</mgrwt>
</event>
<event>
12    1  0.1026879E-001  0.2390882E+03  0.7546771E-02  0.1120840E+00
         21   -1    0    0  503  502  0.00000000000E+00  0.00000000000E+00  0.19462049134E+03  0.19462049134E+03  0.00000000000E+00 0.  1.
         21   -1    0    0  501  503 -0.00000000000E+00 -0.00000000000E+00 -0.29137552206E+03  0.29137552206E+03  0.00000000000E+00 0. -1.
          6    2    1    2  501    0  0.65244830848E+02  0.15207541163E+03 -0.61231986792E+02  0.24428325603E+03  0.16894121521E+03 0.  0.
         24    2    3    3    0    0  0.19848927910E+02  0.16440802950E+03 -0.68920405282E+02  0.19638666695E+03  0.79960744028E+02 0.  0.
         -6    2    1    2    0  502 -0.65244830848E+02 -0.15207541163E+03 -0.35523043922E+02  0.24171275737E+03  0.17256694831E+03 0.  0.
        -24    2    5    5    0    0  0.80982195285E+01 -0.93710444641E+02 -0.70775404666E+02  0.14146061850E+03  0.78452024100E+02 0.  0.
          5    1    3    3  501    0  0.45395902938E+02 -0.12332617876E+02  0.76884184897E+01  0.47896589087E+02  0.47000000000E+01 0. -1.
        -11    1    4    4    0    0  0.13647163660E+02  0.12861948972E+03 -0.13390637991E+02  0.13003279355E+03  0.00000000000E+00 0.  1.
         12    1    4    4    0    0  0.62017642502E+01  0.35788539783E+02 -0.55529767291E+02  0.66353873398E+02  0.00000000000E+00 0. -1.
         -5    1    5    5    0  502 -0.73343050377E+02 -0.58364966986E+02  0.35252360744E+02  0.10025213887E+03  0.47000000000E+01 0.  1.
         13    1    6    6    0    0 -0.11944442174E+02 -0.19246322505E+02 -0.59323116542E+02  0.63500573109E+02  0.00000000000E+00 0. -1.
        -14    1    6    6    0    0  0.20042661702E+02 -0.74464122136E+02 -0.11452288123E+02  0.77960045388E+02  0.00000000000E+00 0.  1.
<mgrwt>
<rscale>  2 0.23843462E+03</rscale>
<asrwt>0</asrwt>
<pdfrwt beam="1">  1       21 0.29941614E-01 0.23908821E+03</pdfrwt>
<pdfrwt beam="2">  1       21 0.44827003E-01 0.23908821E+03</pdfrwt>
<totfact> 0.50023307E+04</totfact>
</mgrwt>
</event>
<event>
12    1  0.1026879E-001  0.1877025E+03  0.7546771E-02  0.1160750E+00
         21   -1    0    0  501  502  0.00000000000E+00  0.00000000000E+00  0.66754948400E+03  0.66754948400E+03  0.00000000000E+00 0. -1.
         21   -1    0    0  502  503 -0.00000000000E+00 -0.00000000000E+00 -0.60625622036E+02  0.60625622036E+02  0.00000000000E+00 0. -1.
         -6    2    1    2    0  503  0.51511287763E+01 -0.68014555318E+02  0.17105724779E+03  0.25395433392E+03  0.17487054593E+03 0.  0.
        -24    2    3    3    0    0 -0.47200550921E+01 -0.23059881703E+01  0.12104790684E+02  0.81608664734E+02  0.80534785656E+02 0.  0.
          6    2    1    2  501    0 -0.51511287763E+01  0.68014555318E+02  0.43586661417E+03  0.47422077211E+03  0.17393424473E+03 0.  0.
         24    2    5    5    0    0 -0.59256016025E+02  0.70139038120E+01  0.17899294742E+03  0.20467562008E+03  0.79329464580E+02 0.  0.
          5    1    5    5  501    0  0.54104887249E+02  0.61000651506E+02  0.25687366675E+03  0.26954515202E+03  0.47000000000E+01 0. -1.
        -11    1    6    6    0    0 -0.62426240236E+02  0.19738885516E+02  0.17998567584E+03  0.19152415664E+03  0.00000000000E+00 0.  1.
         12    1    6    6    0    0  0.31702242103E+01 -0.12724981704E+02 -0.99272842208E+00  0.13151463441E+02  0.00000000000E+00 0. -1.
         -5    1    3    3    0  503  0.98711838684E+01 -0.65708567147E+02  0.15895245711E+03  0.17234566919E+03  0.47000000000E+01 0.  1.
         11    1    4    4    0    0 -0.37313560768E+02  0.11735641339E+02  0.21851231823E+02  0.44805171878E+02  0.00000000000E+00 0. -1.
        -12    1    4    4    0    0  0.32593505676E+02 -0.14041629509E+02 -0.97464411391E+01  0.36803492856E+02  0.00000000000E+00 0.  1.
<mgrwt>
<rscale>  2 0.18748411E+03</rscale>
<asrwt>0</asrwt>
<pdfrwt beam="1">  1       21 0.10269992E+00 0.18770248E+03</pdfrwt>
<pdfrwt beam="2">  1       21 0.93270193E-02 0.18770248E+03</pdfrwt>
<totfact> 0.70844627E+04</totfact>
</mgrwt>
</event>
<event>
12    1  0.1026879E-001  0.2270819E+03  0.7546771E-02  0.1129642E+00
         21   -1    0    0  503  502  0.00000000000E+00  0.00000000000E+00  0.28283097009E+03  0.28283097009E+03  0.00000000000E+00 0. -1.
         21   -1    0    0  501  503 -0.00000000000E+00 -0.00000000000E+00 -0.76296510236E+03  0.76296510236E+03  0.00000000000E+00 0. -1.
          6    2    1    2  501    0  0.31805534701E+02  0.13590467633E+03 -0.69719003721E+03  0.73166322097E+03  0.17255563697E+03 0.  0.
         24    2    3    3    0    0  0.23899570520E+02 -0.21914908175E+01 -0.29192739408E+03  0.30341918357E+03  0.79155577455E+02 0.  0.
         -6    2    1    2    0  502 -0.31805534701E+02 -0.13590467633E+03  0.21705590494E+03  0.31413285148E+03  0.17912149346E+03 0.  0.
        -24    2    5    5    0    0 -0.72470169007E+02 -0.14619852833E+03  0.19558882955E+03  0.26677779686E+03  0.79306163505E+02 0.  0.
          5    1    3    3  501    0  0.79059641805E+01  0.13809616715E+03 -0.40526264313E+03  0.42824403740E+03  0.47000000000E+01 0. -1.
        -13    1    4    4    0    0  0.40436593444E+02  0.10580377541E+02 -0.78171657855E+02  0.88644630802E+02  0.00000000000E+00 0.  1.
         14    1    4    4    0    0 -0.16537022923E+02 -0.12771868359E+02 -0.21375573623E+03  0.21477455277E+03  0.00000000000E+00 0. -1.
         -5    1    5    5    0  502  0.40664634307E+02  0.10293851996E+02  0.21467075388E+02  0.47355054618E+02  0.47000000000E+01 0.  1.
         11    1    6    6    0    0  0.27156238135E+01 -0.17160352532E+02  0.68526584945E+02  0.70694732165E+02  0.00000000000E+00 0. -1.
        -12    1    6    6    0    0 -0.75185792821E+02 -0.12903817580E+03  0.12706224461E+03  0.19608306469E+03  0.00000000000E+00 0.  1.
<mgrwt>
<rscale>  2 0.22578521E+03</rscale>
<asrwt>0</asrwt>
<pdfrwt beam="1">  1       21 0.43512457E-01 0.22708189E+03</pdfrwt>
<pdfrwt beam="2">  1       21 0.11737925E+00 0.22708189E+03</pdfrwt>
<totfact> 0.27507654E+03</totfact>
</mgrwt>
</event>
<event>
12    1  0.1026879E-001  0.2133609E+03  0.7546771E-02  0.1139143E+00
         21   -1    0    0  503  502  0.00000000000E+00  0.00000000000E+00  0.49393519571E+03  0.49393519571E+03  0.00000000000E+00 0.  1.
         21   -1    0    0  501  503 -0.00000000000E+00 -0.00000000000E+00 -0.17053523290E+03  0.17053523290E+03  0.00000000000E+00 0.  1.
          6    2    1    2  501    0 -0.24684486329E+02 -0.12096911424E+03 -0.64418954246E+02  0.22183468828E+03  0.17267882554E+03 0.  0.
         24    2    3    3    0    0  0.22936724857E+02 -0.18018991928E+02 -0.65651776395E+02  0.10830003590E+03  0.81042980049E+02 0.  0.
         -6    2    1    2    0  502  0.24684486329E+02  0.12096911424E+03  0.38781891705E+03  0.44263574033E+03  0.17401159654E+03 0.  0.
        -24    2    5    5    0    0  0.53736171847E+02  0.59739745858E+02  0.34131291156E+03  0.36030752809E+03  0.82889069253E+02 0.  0.
          5    1    3    3  501    0 -0.47621211186E+02 -0.10295012232E+03  0.12328221498E+01  0.11353465238E+03  0.47000000000E+01 0. -1.
        -13    1    4    4    0    0  0.13446594379E+01 -0.43409266475E+02 -0.11861618904E+02  0.45020778846E+02  0.00000000000E+00 0.  1.
         14    1    4    4    0    0  0.21592065419E+02  0.25390274547E+02 -0.53790157491E+02  0.63279257056E+02  0.00000000000E+00 0. -1.
         -5    1    5    5    0  502 -0.29051685519E+02  0.61229368385E+02  0.46506005491E+02  0.82328212242E+02  0.47000000000E+01 0.  1.
         11    1    6    6    0    0  0.61874163180E+02  0.53398888427E+02  0.16940323587E+03  0.18808856870E+03  0.00000000000E+00 0. -1.
        -12    1    6    6    0    0 -0.81379913329E+01  0.63408574313E+01  0.17190967569E+03  0.17221895939E+03  0.00000000000E+00 0.  1.
<mgrwt>
<rscale>  2 0.21308902E+03</rscale>
<asrwt>0</asrwt>
<pdfrwt beam="1">  1       21 0.75990029E-01 0.21336093E+03</pdfrwt>
<pdfrwt beam="2">  1       21 0.26236190E-01 0.21336093E+03</pdfrwt>
<totfact> 0.21063685E+04</totfact>
</mgrwt>
</event>
<event>
12    1  0.1026879E-001  0.1990260E+03  0.7546771E-02  0.1150734E+00
         21   -1    0    0  503  502  0.00000000000E+00  0.00000000000E+00  0.15641431135E+03  0.15641431135E+03  0.00000000000E+00 0. -1.
         21   -1    0    0  501  503 -0.00000000000E+00 -0.00000000000E+00 -0.31995885688E+03  0.31995885688E+03  0.00000000000E+00 0. -1.
          6    2    1    2  501    0  0.89228514977E+02  0.41517729866E+02 -0.19123096597E+03  0.27543065799E+03  0.17206776351E+03 0.  0.
         24    2    3    3    0    0  0.41886939447E+02  0.90409798229E+02 -0.14336782259E+03  0.19209621364E+03  0.80113515880E+02 0.  0.
         -6    2    1    2    0  502 -0.89228514977E+02 -0.41517729866E+02  0.27686420436E+02  0.20094251024E+03  0.17299105401E+03 0.  0.
        -24    2    5    5    0    0 -0.12989483139E+03 -0.38802581725E+02  0.18664309267E+02  0.15893525123E+03  0.80831615559E+02 0.  0.
          5    1    3    3  501    0  0.47341575531E+02 -0.48892068363E+02 -0.47863143374E+02  0.83334444357E+02  0.47000000000E+01 0. -1.
        -11    1    4    4    0    0 -0.12551204331E+02  0.12464433747E+02  0.26177308528E+01  0.17881480744E+02  0.00000000000E+00 0.  1.
         12    1    4    4    0    0  0.54438143777E+02  0.77945364481E+02 -0.14598555344E+03  0.17421473289E+03  0.00000000000E+00 0. -1.
         -5    1    5    5    0  502  0.40666316409E+02 -0.27151481402E+01  0.90221111691E+01  0.42007259011E+02  0.47000000000E+01 0.  1.
         11    1    6    6    0    0 -0.37572123081E+02  0.19789835296E+02  0.25225434310E+02  0.49392555613E+02  0.00000000000E+00 0. -1.
        -12    1    6    6    0    0 -0.92322708305E+02 -0.58592417021E+02 -0.65611250435E+01  0.10954269562E+03  0.00000000000E+00 0.  1.
<mgrwt>
<rscale>  2 0.19882521E+03</rscale>
<asrwt>0</asrwt>
<pdfrwt beam="1">  1       21 0.24063741E-01 0.19902601E+03</pdfrwt>
<pdfrwt beam="2">  1       21 0.49224439E-01 0.19902601E+03</pdfrwt>
<totfact> 0.63936665E+04</totfact>
</mgrwt>
</event>
<event>
12    1  0.1026879E-001  0.1741928E+03  0.7546771E-02  0.1173601E+00
         21   -1    0    0  503  502  0.00000000000E+00  0.00000000000E+00  0.43849504603E+02  0.43849504603E+02  0.00000000000E+00 0. -1.
         21   -1    0    0  501  503 -0.00000000000E+00 -0.00000000000E+00 -0.18936519857E+04  0.18936519857E+04  0.00000000000E+00 0. -1.
          6    2    1    2  501    0 -0.19632447141E+02  0.62526325918E+01 -0.16966791821E+04  0.17055750514E+04  0.17274686844E+03 0.  0.
         24    2    3    3    0    0 -0.79288314191E+02  0.40753099892E+01 -0.12240213719E+04  0.12291392648E+04  0.79068125484E+02 0.  0.
         -6    2    1    2    0  502  0.19632447141E+02 -0.62526325918E+01 -0.15312329902E+03  0.23192643894E+03  0.17296993953E+03 0.  0.
        -24    2    5    5    0    0  0.49084661371E+02 -0.52659736614E+02 -0.13688940552E+03  0.17442268667E+03  0.80636297284E+02 0.  0.
          5    1    3    3  501    0  0.59655867050E+02  0.21773226026E+01 -0.47265781018E+03  0.47643578657E+03  0.47000000000E+01 0. -1.
        -11    1    4    4    0    0  0.10350272772E+02 -0.44303154567E+01 -0.36207390761E+02  0.37917423267E+02  0.00000000000E+00 0.  1.
         12    1    4    4    0    0 -0.89638586963E+02  0.85056254459E+01 -0.11878139811E+04  0.11912218415E+04  0.00000000000E+00 0. -1.
         -5    1    5    5    0  502 -0.29452214230E+02  0.46407104022E+02 -0.16233893505E+02  0.57503752270E+02  0.47000000000E+01 0.  1.
         13    1    6    6    0    0 -0.18101167419E+02  0.54371361046E-01 -0.79549995844E+01  0.19772132828E+02  0.00000000000E+00 0. -1.
        -14    1    6    6    0    0  0.67185828791E+02 -0.52714107975E+02 -0.12893440593E+03  0.15465055384E+03  0.00000000000E+00 0.  1.
<mgrwt>
<rscale>  2 0.17413739E+03</rscale>
<asrwt>0</asrwt>
<pdfrwt beam="1">  1       21 0.67460797E-02 0.17419279E+03</pdfrwt>
<pdfrwt beam="2">  1       21 0.29133099E+00 0.17419279E+03</pdfrwt>
<totfact> 0.63071957E+03</totfact>
</mgrwt>
</event>
<event>
12    1  0.1026879E-001  0.1935447E+03  0.7546771E-02  0.1155383E+00
         21   -1    0    0  503  502  0.00000000000E+00  0.00000000000E+00  0.92095778152E+03  0.92095778152E+03  0.00000000000E+00 0. -1.
         21   -1    0    0  501  503 -0.00000000000E+00 -0.00000000000E+00 -0.40708028536E+02  0.40708028536E+02  0.00000000000E+00 0.  1.
          6    2    1    2  501    0 -0.68747857954E+02  0.51913839363E+02  0.41468230216E+03  0.45747081303E+03  0.17290696444E+03 0.  0.
         24    2    3    3    0    0 -0.72671476965E+02 -0.28621218229E+02  0.24307594849E+03  0.26780763550E+03  0.80837461615E+02 0.  0.
         -6    2    1    2    0  502  0.68747857954E+02 -0.51913839363E+02  0.46556745082E+03  0.50419499703E+03  0.17331540346E+03 0.  0.
        -24    2    5    5    0    0  0.44909392669E+02  0.37785140829E+02  0.27276444609E+03  0.29016399902E+03  0.79687720900E+02 0.  0.
          5    1    3    3  501    0  0.39236190115E+01  0.80535057593E+02  0.17160635368E+03  0.18966317753E+03  0.47000000000E+01 0. -1.
        -11    1    4    4    0    0 -0.14862004721E+02  0.58875231669E+01  0.42673987659E+00  0.15991379562E+02  0.00000000000E+00 0.  1.
         12    1    4    4    0    0 -0.57809472244E+02 -0.34508741396E+02  0.24264920861E+03  0.25181625594E+03  0.00000000000E+00 0. -1.
         -5    1    5    5    0  502  0.23838465285E+02 -0.89698980193E+02  0.19280300473E+03  0.21403099801E+03  0.47000000000E+01 0.  1.
         13    1    6    6    0    0  0.39597600803E+02  0.40177768828E+02  0.27717484074E+03  0.28285705831E+03  0.00000000000E+00 0. -1.
        -14    1    6    6    0    0  0.53117918660E+01 -0.23926279992E+01 -0.44103946527E+01  0.73069407116E+01  0.00000000000E+00 0.  1.
<mgrwt>
<rscale>  2 0.19345320E+03</rscale>
<asrwt>0</asrwt>
<pdfrwt beam="1">  1       21 0.14168580E+00 0.19354468E+03</pdfrwt>
<pdfrwt beam="2">  1       21 0.62627743E-02 0.19354468E+03</pdfrwt>
<totfact> 0.63531692E+04</totfact>
</mgrwt>
</event>
<event>
12    1  0.1026879E-001  0.2204511E+03  0.7546771E-02  0.1134678E+00
         21   -1    0    0  501  502  0.00000000000E+00  0.00000000000E+00  0.44526137655E+03  0.44526137655E+03  0.00000000000E+00 0.  1.
         21   -1    0    0  502  503 -0.00000000000E+00 -0.00000000000E+00 -0.12772942827E+03  0.12772942827E+03  0.00000000000E+00 0. -1.
         -6    2    1    2    0  503 -0.68274090551E+02  0.10695537763E+03  0.42967781008E+02  0.22459949891E+03  0.18027174060E+03 0.  0.
        -24    2    3    3    0    0 -0.38391072584E+02  0.14552725424E+03  0.38520786115E+02  0.17537907438E+03  0.81375134940E+02 0.  0.
          6    2    1    2  501    0  0.68274090551E+02 -0.10695537763E+03  0.27456416727E+03  0.34839130592E+03  0.17288787073E+03 0.  0.
         24    2    5    5    0    0 -0.13660173479E+02 -0.46714287943E+02  0.20830513641E+03  0.22692294922E+03  0.75724302500E+02 0.  0.
          5    1    5    5  501    0  0.81934264031E+02 -0.60241089689E+02  0.66259030856E+02  0.12146835670E+03  0.47000000000E+01 0. -1.
        -13    1    6    6    0    0 -0.31329927188E+02 -0.13261522760E+02  0.32349253542E+02  0.46945782859E+02  0.00000000000E+00 0.  1.
         14    1    6    6    0    0  0.17669753708E+02 -0.33452765183E+02  0.17595588287E+03  0.17997716636E+03  0.00000000000E+00 0. -1.
         -5    1    3    3    0  503 -0.29883017968E+02 -0.38571876603E+02  0.44469948929E+01  0.49220424532E+02  0.47000000000E+01 0.  1.
         11    1    4    4    0    0 -0.22016204183E+02  0.66073391577E+01 -0.12884316223E+02  0.26351011023E+02  0.00000000000E+00 0. -1.
        -12    1    4    4    0    0 -0.16374868401E+02  0.13891991508E+03  0.51405102339E+02  0.14902806335E+03  0.00000000000E+00 0.  1.
<mgrwt>
<rscale>  2 0.21893661E+03</rscale>
<asrwt>0</asrwt>
<pdfrwt beam="1">  1       21 0.68501750E-01 0.22045114E+03</pdfrwt>
<pdfrwt beam="2">  1       21 0.19650681E-01 0.22045114E+03</pdfrwt>
<totfact> 0.45729355E+04</totfact>
</mgrwt>
</event>
<event>
12    1  0.1026879E-001  0.2006716E+03  0.7546771E-02  0.1149909E+00
         21   -1    0    0  503  502  0.00000000000E+00  0.00000000000E+00  0.18393451481E+03  0.18393451481E+03  0.00000000000E+00 0. -1.
         21   -1    0    0  501  503 -0.00000000000E+00 -0.00000000000E+00 -0.21521170022E+03  0.21521170022E+03  0.00000000000E+00 0. -1.
          6    2    1    2  501    0 -0.33891131793E+02 -0.94411150863E+02 -0.12574783786E+02  0.19760501340E+03  0.16978675423E+03 0.  0.
         24    2    3    3    0    0 -0.36009892290E+02 -0.77211356308E+02  0.53427918884E+02  0.12920348682E+03  0.81121468205E+02 0.  0.
         -6    2    1    2    0  502  0.33891131793E+02  0.94411150863E+02 -0.18702401619E+02  0.20154120163E+03  0.17380161652E+03 0.  0.
        -24    2    5    5    0    0 -0.40953155410E+01  0.10938045935E+03  0.29531559511E+02  0.13817200261E+03  0.78984383277E+02 0.  0.
          5    1    3    3  501    0  0.21187604969E+01 -0.17199794555E+02 -0.66002702670E+02  0.68401526580E+02  0.47000000000E+01 0. -1.
        -11    1    4    4    0    0  0.76923727219E+00  0.16403200019E+02  0.12400288392E+02  0.20577265344E+02  0.00000000000E+00 0.  1.
         12    1    4    4    0    0 -0.36779129562E+02 -0.93614556327E+02  0.41027630492E+02  0.10862622147E+03  0.00000000000E+00 0. -1.
         -5    1    5    5    0  502  0.37986447334E+02 -0.14969308489E+02 -0.48233961129E+02  0.63369199016E+02  0.47000000000E+01 0.  1.
         11    1    6    6    0    0  0.25659298349E+01  0.95602755904E+02  0.53612860561E+02  0.10963945344E+03  0.00000000000E+00 0. -1.
        -12    1    6    6    0    0 -0.66612453759E+01  0.13777703448E+02 -0.24081301050E+02  0.28532549177E+02  0.00000000000E+00 0.  1.
<mgrwt>
<rscale>  2 0.19979912E+03</rscale>
<asrwt>0</asrwt>
<pdfrwt beam="1">  1       21 0.28297618E-01 0.20067156E+03</pdfrwt>
<pdfrwt beam="2">  1       21 0.33109492E-01 0.20067156E+03</pdfrwt>
<totfact> 0.10450830E+05</totfact>
</mgrwt>
</event>
<event>
12    1  0.1026879E-001  0.2519965E+03  0.7546771E-02  0.1112071E+00
         21   -1    0    0  503  502  0.00000000000E+00  0.00000000000E+00  0.31200187270E+03  0.31200187270E+03  0.00000000000E+00 0. -1.
         21   -1    0    0  501  503 -0.00000000000E+00 -0.00000000000E+00 -0.27655953504E+03  0.27655953504E+03  0.00000000000E+00 0.  1.
          6    2    1    2  501    0 -0.17243616021E+03 -0.64691660725E+02 -0.13360948140E+03  0.28522572305E+03  0.17199703269E+03 0.  0.
         24    2    3    3    0    0 -0.13989747992E+03 -0.95667180587E+01 -0.33002503477E+02  0.16588847394E+03  0.82261738175E+02 0.  0.
         -6    2    1    2    0  502  0.17243616021E+03  0.64691660725E+02  0.16905181906E+03  0.30333568469E+03  0.17179866055E+03 0.  0.
        -24    2    5    5    0    0  0.17504424645E+03  0.39090423299E+02  0.18699035759E+03  0.27161650065E+03  0.81495890616E+02 0.  0.
          5    1    3    3  501    0 -0.32538680287E+02 -0.55124942667E+02 -0.10060697792E+03  0.11933724911E+03  0.47000000000E+01 0. -1.
        -11    1    4    4    0    0 -0.10337489637E+03  0.30940073573E+02 -0.24996782223E+02  0.11076324514E+03  0.00000000000E+00 0.  1.
         12    1    4    4    0    0 -0.36522583550E+02 -0.40506791632E+02 -0.80057212542E+01  0.55125228800E+02  0.00000000000E+00 0. -1.
         -5    1    5    5    0  502 -0.26080862447E+01  0.25601237426E+02 -0.17938538530E+02  0.31719184040E+02  0.47000000000E+01 0.  1.
         11    1    6    6    0    0  0.16173629570E+03  0.52319369642E+02  0.13733333716E+03  0.21853235752E+03  0.00000000000E+00 0. -1.
        -12    1    6    6    0    0  0.13307950746E+02 -0.13228946343E+02  0.49657020428E+02  0.53084143133E+02  0.00000000000E+00 0.  1.
<mgrwt>
<rscale>  2 0.25196262E+03</rscale>
<asrwt>0</asrwt>
<pdfrwt beam="1">  1       21 0.48000288E-01 0.25199647E+03</pdfrwt>
<pdfrwt beam="2">  1       21 0.42547621E-01 0.25199647E+03</pdfrwt>
<totfact> 0.21353540E+04</totfact>
</mgrwt>
</event>
<event>
12    1  0.1026879E-001  0.2385915E+03  0.7546771E-02  0.1120750E+00
         21   -1    0    0  501  502  0.00000000000E+00  0.00000000000E+00  0.60718561479E+03  0.60718561479E+03  0.00000000000E+00 0.  1.
         21   -1    0    0  502  503 -0.00000000000E+00 -0.00000000000E+00 -0.11690515956E+03  0.11690515956E+03  0.00000000000E+00 0. -1.
         -6    2    1    2    0  503  0.11510671949E+03  0.11513237815E+03  0.83865603678E+02  0.25281702990E+03  0.17429282761E+03 0.  0.
        -24    2    3    3    0    0  0.12271707849E+03  0.26033793370E+02  0.41155991928E+02  0.15360676677E+03  0.78511039835E+02 0.  0.
          6    2    1    2  501    0 -0.11510671949E+03 -0.11513237815E+03  0.40641485155E+03  0.47127374446E+03  0.17441585159E+03 0.  0.
         24    2    5    5    0    0 -0.14940147454E+03 -0.10513535767E+03  0.32686268671E+03  0.38394272148E+03  0.84844289081E+02 0.  0.
          5    1    5    5  501    0  0.34294755055E+02 -0.99970204796E+01  0.79552164844E+02  0.87331022976E+02  0.47000000000E+01 0. -1.
        -13    1    6    6    0    0 -0.39222172427E+02 -0.40375582021E+02  0.18323896016E+03  0.19169007005E+03  0.00000000000E+00 0.  1.
         14    1    6    6    0    0 -0.11017930212E+03 -0.64759775647E+02  0.14362372654E+03  0.19225265143E+03  0.00000000000E+00 0. -1.
         -5    1    3    3    0  503 -0.76103590025E+01  0.89098584778E+02  0.42709611749E+02  0.99210263125E+02  0.47000000000E+01 0.  1.
         11    1    4    4    0    0  0.45332661239E+02  0.36680652926E+02 -0.11454577824E+02  0.59428341953E+02  0.00000000000E+00 0. -1.
        -12    1    4    4    0    0  0.77384417253E+02 -0.10646859556E+02  0.52610569752E+02  0.94178424820E+02  0.00000000000E+00 0.  1.
<mgrwt>
<rscale>  2 0.23856903E+03</rscale>
<asrwt>0</asrwt>
<pdfrwt beam="1">  1       21 0.93413170E-01 0.23859151E+03</pdfrwt>
<pdfrwt beam="2">  1       21 0.17985410E-01 0.23859151E+03</pdfrwt>
<totfact> 0.26424250E+04</totfact>
</mgrwt>
</event>
<event>
12    1  0.1026879E-001  0.2257914E+03  0.7546771E-02  0.1130759E+00
         21   -1    0    0  503  502  0.00000000000E+00  0.00000000000E+00  0.14130453155E+04  0.14130453155E+04  0.00000000000E+00 0. -1.
         21   -1    0    0  501  503 -0.00000000000E+00 -0.00000000000E+00 -0.19368940413E+03  0.19368940413E+03  0.00000000000E+00 0. -1.
          6    2    1    2  501    0  0.12626135102E+03  0.70368076955E+02 -0.11571374282E+03  0.25371522991E+03  0.17345936871E+03 0.  0.
         24    2    3    3    0    0  0.13668214487E+03  0.76745797950E+01 -0.64099464791E+02  0.17170796665E+03  0.81449226656E+02 0.  0.
         -6    2    1    2    0  502 -0.12626135102E+03 -0.70368076955E+02  0.13350696542E+04  0.13530194897E+04  0.16540000910E+03 0.  0.
        -24    2    5    5    0    0 -0.77917737051E+02  0.67792139217E+01  0.98462200753E+03  0.99090838446E+03  0.79383859815E+02 0.  0.
          5    1    3    3  501    0 -0.10420793849E+02  0.62693497160E+02 -0.51614278025E+02  0.82007263255E+02  0.47000000000E+01 0. -1.
        -13    1    4    4    0    0  0.71543489661E+02  0.27175587850E+02  0.24431129323E+01  0.76569917648E+02  0.00000000000E+00 0.  1.
         14    1    4    4    0    0  0.65138655211E+02 -0.19501008055E+02 -0.66542577724E+02  0.95138049003E+02  0.00000000000E+00 0. -1.
         -5    1    5    5    0  502 -0.48343613972E+02 -0.77147290876E+02  0.35044764667E+03  0.36211110527E+03  0.47000000000E+01 0.  1.
         11    1    6    6    0    0 -0.72514606206E+02  0.93024829531E+00  0.97761658146E+03  0.98030271540E+03  0.00000000000E+00 0. -1.
        -12    1    6    6    0    0 -0.54031308449E+01  0.58489656264E+01  0.70054260650E+01  0.10605669058E+02  0.00000000000E+00 0.  1.
<mgrwt>
<rscale>  2 0.22424282E+03</rscale>
<asrwt>0</asrwt>
<pdfrwt beam="1">  1       21 0.21739158E+00 0.22579138E+03</pdfrwt>
<pdfrwt beam="2">  1       21 0.29798371E-01 0.22579138E+03</pdfrwt>
<totfact> 0.10873498E+03</totfact>
</mgrwt>
</event>
<event>
12    1  0.1026879E-001  0.1883746E+03  0.7546771E-02  0.1160003E+00
         21   -1    0    0  501  502  0.00000000000E+00  0.00000000000E+00  0.10432258787E+03  0.10432258787E+03  0.00000000000E+00 0.  1.
         21   -1    0    0  502  503 -0.00000000000E+00 -0.00000000000E+00 -0.34450743924E+03  0.34450743924E+03  0.00000000000E+00 0. -1.
         -6    2    1    2    0  503 -0.28460965430E+02  0.68680891192E+02 -0.14693824138E+03  0.23890547538E+03  0.17308347124E+03 0.  0.
        -24    2    3    3    0    0 -0.99956407599E+01  0.29662339470E+02 -0.16961035729E+03  0.18992047325E+03  0.79513179055E+02 0.  0.
          6    2    1    2  501    0  0.28460965430E+02 -0.68680891192E+02 -0.93246609986E+02  0.20992455173E+03  0.17276080510E+03 0.  0.
         24    2    5    5    0    0  0.13332629529E+02 -0.63962934533E+02  0.15947824241E+02  0.99486152033E+02  0.73308562557E+02 0.  0.
          5    1    5    5  501    0  0.15128335901E+02 -0.47179566593E+01 -0.10919443423E+03  0.11043839970E+03  0.47000000000E+01 0. -1.
        -13    1    6    6    0    0  0.23740880480E+02 -0.30634090125E+02 -0.24655607763E+02  0.45934473741E+02  0.00000000000E+00 0.  1.
         14    1    6    6    0    0 -0.10408250951E+02 -0.33328844408E+02  0.40603432004E+02  0.53551678292E+02  0.00000000000E+00 0. -1.
         -5    1    3    3    0  503 -0.18465324670E+02  0.39018551722E+02  0.22672115907E+02  0.48985002127E+02  0.47000000000E+01 0.  1.
         13    1    4    4    0    0 -0.32825636434E+02 -0.14323116469E+02 -0.75249790989E+02  0.83337897241E+02  0.00000000000E+00 0. -1.
        -14    1    4    4    0    0  0.22829995674E+02  0.43985455939E+02 -0.94360566298E+02  0.10658257601E+03  0.00000000000E+00 0.  1.
<mgrwt>
<rscale>  2 0.18830042E+03</rscale>
<asrwt>0</asrwt>
<pdfrwt beam="1">  1       21 0.16049629E-01 0.18837457E+03</pdfrwt>
<pdfrwt beam="2">  1       21 0.53001145E-01 0.18837457E+03</pdfrwt>
<totfact> 0.11710997E+05</totfact>
</mgrwt>
</event>
<event>
12    1  0.1026879E-001  0.1991120E+03  0.7546771E-02  0.1150607E+00
         21   -1    0    0  501  502  0.00000000000E+00  0.00000000000E+00  0.80500037089E+02  0.80500037089E+02  0.00000000000E+00 0. -1.
         21   -1    0    0  502  503 -0.00000000000E+00 -0.00000000000E+00 -0.50389540232E+03  0.50389540232E+03  0.00000000000E+00 0.  1.
         -6    2    1    2    0  503 -0.96886105209E+02  0.16166575208E+02 -0.25848019891E+03  0.32627840280E+03  0.17319730763E+03 0.  0.
        -24    2    3    3    0    0 -0.92101649330E+02 -0.45307179747E+02 -0.13213706295E+03  0.18561358286E+03  0.80353869794E+02 0.  0.
          6    2    1    2  501    0  0.96886105209E+02 -0.16166575208E+02 -0.16491516632E+03  0.25811703660E+03  0.17256626833E+03 0.  0.
         24    2    5    5    0    0  0.80256959001E+02 -0.74807563363E+02 -0.10279107103E+03  0.17095748629E+03  0.81382472502E+02 0.  0.
          5    1    5    5  501    0  0.16629146208E+02  0.58640988155E+02 -0.62124095289E+02  0.87159550314E+02  0.47000000000E+01 0. -1.
        -13    1    6    6    0    0  0.13189775189E+02 -0.25185866090E+02 -0.79363201493E+02  0.84301932193E+02  0.00000000000E+00 0.  1.
         14    1    6    6    0    0  0.67067183812E+02 -0.49621697274E+02 -0.23427869538E+02  0.86655554097E+02  0.00000000000E+00 0. -1.
         -5    1    3    3    0  503 -0.47844558796E+01  0.61473754955E+02 -0.12634313595E+03  0.14066481994E+03  0.47000000000E+01 0.  1.
         13    1    4    4    0    0 -0.66849453876E+02  0.62639266977E+00 -0.35542661695E+02  0.75713424514E+02  0.00000000000E+00 0. -1.
        -14    1    4    4    0    0 -0.25252195454E+02 -0.45933572417E+02 -0.96594401260E+02  0.10990015835E+03  0.00000000000E+00 0.  1.
<mgrwt>
<rscale>  2 0.19897468E+03</rscale>
<asrwt>0</asrwt>
<pdfrwt beam="1">  1       21 0.12384621E-01 0.19911199E+03</pdfrwt>
<pdfrwt beam="2">  1       21 0.77522371E-01 0.19911199E+03</pdfrwt>
<totfact> 0.81645367E+04</totfact>
</mgrwt>
</event>
<event>
12    1  0.1026879E-001  0.1768856E+03  0.7546771E-02  0.1170873E+00
         21   -1    0    0  503  502  0.00000000000E+00  0.00000000000E+00  0.58261645786E+02  0.58261645786E+02  0.00000000000E+00 0.  1.
         21   -1    0    0  501  503 -0.00000000000E+00 -0.00000000000E+00 -0.60554933187E+03  0.60554933187E+03  0.00000000000E+00 0.  1.
          6    2    1    2  501    0  0.34984975095E+02 -0.85135622237E+01 -0.38555382346E+03  0.42419366576E+03  0.17318223369E+03 0.  0.
         24    2    3    3    0    0  0.22000675773E+01  0.17250339420E+02 -0.37122671995E+03  0.37985423992E+03  0.78597401203E+02 0.  0.
         -6    2    1    2    0  502 -0.34984975095E+02  0.85135622237E+01 -0.16173386263E+03  0.23961731190E+03  0.17309588272E+03 0.  0.
        -24    2    5    5    0    0 -0.65897064661E+02  0.56041623854E+02 -0.12550697942E+03  0.17217140031E+03  0.80049375166E+02 0.  0.
          5    1    3    3  501    0  0.32784907518E+02 -0.25763901643E+02 -0.14327103511E+02  0.44339425840E+02  0.47000000000E+01 0. -1.
        -13    1    4    4    0    0  0.12257158644E+02 -0.29505778183E+02 -0.17422436593E+03  0.17712977888E+03  0.00000000000E+00 0.  1.
         14    1    4    4    0    0 -0.10057091066E+02  0.46756117603E+02 -0.19700235402E+03  0.20272446104E+03  0.00000000000E+00 0. -1.
         -5    1    5    5    0  502  0.30912089566E+02 -0.47528061630E+02 -0.36226883208E+02  0.67445911593E+02  0.47000000000E+01 0.  1.
         13    1    6    6    0    0 -0.49533944054E+02  0.74178901343E+02 -0.11510714101E+03  0.14562202763E+03  0.00000000000E+00 0. -1.
        -14    1    6    6    0    0 -0.16363120607E+02 -0.18137277489E+02 -0.10399838410E+02  0.26549372679E+02  0.00000000000E+00 0.  1.
<mgrwt>
<rscale>  2 0.17686446E+03</rscale>
<asrwt>0</asrwt>
<pdfrwt beam="1">  1       21 0.89633301E-02 0.17688560E+03</pdfrwt>
<pdfrwt beam="2">  1       21 0.93161436E-01 0.17688560E+03</pdfrwt>
<totfact> 0.96018065E+04</totfact>
</mgrwt>
</event>
<event>
12    1  0.1026879E-001  0.1832035E+03  0.7546771E-02  0.1165506E+00
         21   -1    0    0  503  502  0.00000000000E+00  0.00000000000E+00  0.29971016471E+02  0.29971016471E+02  0.00000000000E+00 0.  1.
         21   -1    0    0  501  503 -0.00000000000E+00 -0.00000000000E+00 -0.17766510680E+04  0.17766510680E+04  0.00000000000E+00 0.  1.
          6    2    1    2  501    0 -0.50000775306E+02  0.18960331112E+02 -0.14258834765E+04  0.14371982391E+04  0.17185900689E+03 0.  0.
         24    2    3    3    0    0 -0.46065433353E+01  0.40928925650E+02 -0.12727990255E+04  0.12759524808E+04  0.79630249799E+02 0.  0.
         -6    2    1    2    0  502  0.50000775306E+02 -0.18960331112E+02 -0.32079657504E+03  0.36942384538E+03  0.17522546415E+03 0.  0.
        -24    2    5    5    0    0  0.14825422822E+02 -0.17777454491E+01 -0.54637963061E+02  0.10036057512E+03  0.82849167101E+02 0.  0.
          5    1    3    3  501    0 -0.45394231971E+02 -0.21968594538E+02 -0.15308445099E+03  0.16124575832E+03  0.47000000000E+01 0. -1.
        -13    1    4    4    0    0 -0.37678727899E+02  0.68180274497E+01 -0.75771485144E+03  0.75868173046E+03  0.00000000000E+00 0.  1.
         14    1    4    4    0    0  0.33072184564E+02  0.34110898200E+02 -0.51508417409E+03  0.51727075035E+03  0.00000000000E+00 0. -1.
         -5    1    5    5    0  502  0.35175352484E+02 -0.17182585663E+02 -0.26615861198E+03  0.26906327026E+03  0.47000000000E+01 0.  1.
         11    1    6    6    0    0 -0.28743822488E+02 -0.72687934721E+01 -0.47320049563E+02  0.55841111920E+02  0.00000000000E+00 0. -1.
        -12    1    6    6    0    0  0.43569245310E+02  0.54910480230E+01 -0.73179134977E+01  0.44519463196E+02  0.00000000000E+00 0.  1.
<mgrwt>
<rscale>  2 0.18239389E+03</rscale>
<asrwt>0</asrwt>
<pdfrwt beam="1">  1       21 0.46109269E-02 0.18320353E+03</pdfrwt>
<pdfrwt beam="2">  1       21 0.27333086E+00 0.18320353E+03</pdfrwt>
<totfact> 0.15141913E+04</totfact>
</mgrwt>
</event>
<event>
12    1  0.1026879E-001  0.1860123E+03  0.7546771E-02  0.1162287E+00
         21   -1    0    0  501  502  0.00000000000E+00  0.00000000000E+00  0.23400041196E+04  0.23400041196E+04  0.00000000000E+00 0.  1.
         21   -1    0    0  502  503 -0.00000000000E+00 -0.00000000000E+00 -0.15030649522E+02  0.15030649522E+02  0.00000000000E+00 0.  1.
         -6    2    1    2    0  503 -0.35073929321E+02  0.59309696185E+02  0.13326643732E+04  0.13455834820E+04  0.17277949772E+03 0.  0.
        -24    2    3    3    0    0 -0.77520574743E+02  0.79580439866E+02  0.89630644054E+03  0.90667237920E+03  0.79668575583E+02 0.  0.
          6    2    1    2  501    0  0.35073929321E+02 -0.59309696185E+02  0.99230909692E+03  0.10094512872E+04  0.17194980886E+03 0.  0.
         24    2    5    5    0    0  0.59203718980E+02  0.10093981276E+01  0.34222477947E+03  0.35611190394E+03  0.78687922960E+02 0.  0.
          5    1    5    5  501    0 -0.24129789659E+02 -0.60319094313E+02  0.65008431746E+03  0.65333938324E+03  0.47000000000E+01 0. -1.
        -11    1    6    6    0    0  0.60251081329E+02  0.28018635200E+02  0.28746252975E+03  0.29504227279E+03  0.00000000000E+00 0.  1.
         12    1    6    6    0    0 -0.10473623489E+01 -0.27009237073E+02  0.54762249714E+02  0.61069631151E+02  0.00000000000E+00 0. -1.
         -5    1    3    3    0  503  0.42446645422E+02 -0.20270743682E+02  0.43635793265E+03  0.43891110278E+03  0.47000000000E+01 0.  1.
         13    1    4    4    0    0  0.13846928646E+02  0.21901817551E+02  0.25659507456E+03  0.25790009565E+03  0.00000000000E+00 0. -1.
        -14    1    4    4    0    0 -0.91367503389E+02  0.57678622316E+02  0.63971136597E+03  0.64877228355E+03  0.00000000000E+00 0.  1.
<mgrwt>
<rscale>  2 0.18581940E+03</rscale>
<asrwt>0</asrwt>
<pdfrwt beam="1">  1       21 0.36000034E+00 0.18601230E+03</pdfrwt>
<pdfrwt beam="2">  1       21 0.23124095E-02 0.18601230E+03</pdfrwt>
<totfact> 0.14934359E+04</totfact>
</mgrwt>
</event>
<event>
12    1  0.1026879E-001  0.1794157E+03  0.7546771E-02  0.1169493E+00
         21   -1    0    0  501  502  0.00000000000E+00  0.00000000000E+00  0.32563580043E+03  0.32563580043E+03  0.00000000000E+00 0.  1.
         21   -1    0    0  502  503 -0.00000000000E+00 -0.00000000000E+00 -0.11169682651E+03  0.11169682651E+03  0.00000000000E+00 0.  1.
         -6    2    1    2    0  503  0.43500124965E+02 -0.20333858911E+02  0.24752097191E+02  0.17659967545E+03  0.16813403095E+03 0.  0.
        -24    2    3    3    0    0  0.24029721198E+02  0.13422090289E+02  0.74642977403E+02  0.11311935837E+03  0.80416634802E+02 0.  0.
          6    2    1    2  501    0 -0.43500124965E+02  0.20333858911E+02  0.18918687672E+03  0.26073295149E+03  0.17287067703E+03 0.  0.
         24    2    5    5    0    0 -0.52009674232E+02  0.57774950169E+02  0.19119692861E+03  0.22199823770E+03  0.81755739573E+02 0.  0.
          5    1    5    5  501    0  0.85095492665E+01 -0.37441091258E+02 -0.20100518879E+01  0.38734713783E+02  0.47000000000E+01 0. -1.
        -13    1    6    6    0    0 -0.55584312376E+01  0.19224797852E+02  0.14397157052E+03  0.14535577776E+03  0.00000000000E+00 0.  1.
         14    1    6    6    0    0 -0.46451242994E+02  0.38550152317E+02  0.47225358087E+02  0.76642459941E+02  0.00000000000E+00 0. -1.
         -5    1    3    3    0  503  0.19470403768E+02 -0.33755949201E+02 -0.49890880212E+02  0.63480317088E+02  0.47000000000E+01 0.  1.
         11    1    4    4    0    0  0.11872704636E+02 -0.33663506102E+02  0.24676662180E+02  0.43395050579E+02  0.00000000000E+00 0. -1.
        -12    1    4    4    0    0  0.12157016562E+02  0.47085596391E+02  0.49966315224E+02  0.69724307786E+02  0.00000000000E+00 0.  1.
<mgrwt>
<rscale>  2 0.17826487E+03</rscale>
<asrwt>0</asrwt>
<pdfrwt beam="1">  1       21 0.50097815E-01 0.17941571E+03</pdfrwt>
<pdfrwt beam="2">  1       21 0.17184127E-01 0.17941571E+03</pdfrwt>
<totfact> 0.11661876E+05</totfact>
</mgrwt>
</event>
<event>
12    1  0.1026879E-001  0.4010564E+03  0.7546771E-02  0.1043443E+00
         21   -1    0    0  503  502  0.00000000000E+00  0.00000000000E+00  0.34574927600E+03  0.34574927600E+03  0.00000000000E+00 0. -1.
         21   -1    0    0  501  503 -0.00000000000E+00 -0.00000000000E+00 -0.46501697540E+03  0.46501697540E+03  0.00000000000E+00 0.  1.
          6    2    1    2  501    0  0.24309514474E+03 -0.26783635923E+03 -0.67846214393E+02  0.40642680117E+03  0.17247629163E+03 0.  0.
         24    2    3    3    0    0  0.19594181791E+03 -0.21841752157E+03  0.79871955710E+01  0.30425804951E+03  0.80060949705E+02 0.  0.
         -6    2    1    2    0  502 -0.24309514474E+03  0.26783635923E+03 -0.51421485005E+02  0.40433945023E+03  0.17324738720E+03 0.  0.
        -24    2    5    5    0    0 -0.16559606093E+03  0.10440477379E+03  0.13093617934E+02  0.21224499529E+03  0.80957291280E+02 0.  0.
          5    1    3    3  501    0  0.47153326835E+02 -0.49418837659E+02 -0.75833409964E+02  0.10216875165E+03  0.47000000000E+01 0. -1.
        -13    1    4    4    0    0  0.43719975212E+02 -0.64929964129E+02 -0.31738779981E+02  0.84467074230E+02  0.00000000000E+00 0.  1.
         14    1    4    4    0    0  0.15222184270E+03 -0.15348755744E+03  0.39725975552E+02  0.21979097528E+03  0.00000000000E+00 0. -1.
         -5    1    5    5    0  502 -0.77499083813E+02  0.16343158544E+03 -0.64515102939E+02  0.19209445494E+03  0.47000000000E+01 0.  1.
         13    1    6    6    0    0 -0.64511651875E+02  0.28402645216E+02 -0.32749363657E+02  0.77723769227E+02  0.00000000000E+00 0. -1.
        -14    1    6    6    0    0 -0.10108440906E+03  0.76002128573E+02  0.45842981591E+02  0.13452122607E+03  0.00000000000E+00 0.  1.
<mgrwt>
<rscale>  2 0.40097323E+03</rscale>
<asrwt>0</asrwt>
<pdfrwt beam="1">  1       21 0.53192197E-01 0.40105638E+03</pdfrwt>
<pdfrwt beam="2">  1       21 0.71541072E-01 0.40105638E+03</pdfrwt>
<totfact> 0.52942750E+03</totfact>
</mgrwt>
</event>
<event>
12    1  0.1026879E-001  0.2186910E+03  0.7546771E-02  0.1135230E+00
         21   -1    0    0  503  502  0.00000000000E+00  0.00000000000E+00  0.18557615379E+03  0.18557615379E+03  0.00000000000E+00 0.  1.
         21   -1    0    0  501  503 -0.00000000000E+00 -0.00000000000E+00 -0.27185604415E+03  0.27185604415E+03  0.00000000000E+00 0.  1.
          6    2    1    2  501    0  0.95535948360E+02 -0.93186540392E+02 -0.99541125200E+02  0.24027942563E+03  0.17324814006E+03 0.  0.
         24    2    3    3    0    0  0.53790232340E+02 -0.11954740572E+03 -0.10922251417E+03  0.18974805597E+03  0.83004794044E+02 0.  0.
         -6    2    1    2    0  502 -0.95535948360E+02  0.93186540392E+02  0.13261234839E+02  0.21715277231E+03  0.17078822394E+03 0.  0.
        -24    2    5    5    0    0 -0.34833969296E+02 -0.21653248588E+02  0.10231301284E+02  0.87136704490E+02  0.76196175443E+02 0.  0.
          5    1    3    3  501    0  0.41745716020E+02  0.26360865325E+02  0.96813889714E+01  0.50531369654E+02  0.47000000000E+01 0. -1.
        -13    1    4    4    0    0  0.10358447682E+02 -0.55363646045E+02 -0.61721064133E+00  0.56327716896E+02  0.00000000000E+00 0.  1.
         14    1    4    4    0    0  0.43431784658E+02 -0.64183759672E+02 -0.10860530353E+03  0.13342033908E+03  0.00000000000E+00 0. -1.
         -5    1    5    5    0  502 -0.60701979065E+02  0.11483978898E+03  0.30299335542E+01  0.13001606782E+03  0.47000000000E+01 0.  1.
         11    1    6    6    0    0  0.14930588877E+02 -0.21218692786E+02  0.24165854902E+02  0.35456225841E+02  0.00000000000E+00 0. -1.
        -12    1    6    6    0    0 -0.49764558173E+02 -0.43455580194E+00 -0.13934553617E+02  0.51680478649E+02  0.00000000000E+00 0.  1.
<mgrwt>
<rscale>  2 0.21820351E+03</rscale>
<asrwt>0</asrwt>
<pdfrwt beam="1">  1       21 0.28550177E-01 0.21869103E+03</pdfrwt>
<pdfrwt beam="2">  1       21 0.41824007E-01 0.21869103E+03</pdfrwt>
<totfact> 0.63822236E+04</totfact>
</mgrwt>
</event>
<event>
12    1  0.1026879E-001  0.2454854E+03  0.7546771E-02  0.1116222E+00
         21   -1    0    0  503  502  0.00000000000E+00  0.00000000000E+00  0.88687513474E+03  0.88687513474E+03  0.00000000000E+00 0. -1.
         21   -1    0    0  501  503 -0.00000000000E+00 -0.00000000000E+00 -0.72436996103E+02  0.72436996103E+02  0.00000000000E+00 0.  1.
          6    2    1    2  501    0 -0.14223305027E+03  0.10095345911E+03  0.52714397732E+03  0.58142191388E+03  0.17247848452E+03 0.  0.
         24    2    3    3    0    0 -0.17027924860E+03  0.81810337256E+02  0.39300314759E+03  0.44297011521E+03  0.77994199588E+02 0.  0.
         -6    2    1    2    0  502  0.14223305027E+03 -0.10095345911E+03  0.28729416132E+03  0.37789021696E+03  0.17274617058E+03 0.  0.
        -24    2    5    5    0    0  0.66091390706E+02  0.17413966053E+02  0.11521566504E+03  0.15553577346E+03  0.79027901510E+02 0.  0.
          5    1    3    3  501    0  0.28046198326E+02  0.19143121859E+02  0.13414082973E+03  0.13845179867E+03  0.47000000000E+01 0. -1.
        -13    1    4    4    0    0 -0.12880588879E+03  0.95866897748E+02  0.30603459853E+03  0.34559889261E+03  0.00000000000E+00 0.  1.
         14    1    4    4    0    0 -0.41473359807E+02 -0.14056560492E+02  0.86968549059E+02  0.97371222607E+02  0.00000000000E+00 0. -1.
         -5    1    5    5    0  502  0.76141659565E+02 -0.11836742517E+03  0.17207849629E+03  0.22235444350E+03  0.47000000000E+01 0.  1.
         13    1    6    6    0    0 -0.13871511859E+02  0.18466857750E+02  0.37382659469E+02  0.43942085810E+02  0.00000000000E+00 0. -1.
        -14    1    6    6    0    0  0.79962902566E+02 -0.10528916968E+01  0.77833005566E+02  0.11159368765E+03  0.00000000000E+00 0.  1.
<mgrwt>
<rscale>  2 0.24543831E+03</rscale>
<asrwt>0</asrwt>
<pdfrwt beam="1">  1       21 0.13644232E+00 0.24548540E+03</pdfrwt>
<pdfrwt beam="2">  1       21 0.11144154E-01 0.24548540E+03</pdfrwt>
<totfact> 0.24832537E+04</totfact>
</mgrwt>
</event>
<event>
12    1  0.1026879E-001  0.2131865E+03  0.7546771E-02  0.1141431E+00
         21   -1    0    0  501  502  0.00000000000E+00  0.00000000000E+00  0.12316710859E+04  0.12316710859E+04  0.00000000000E+00 0.  1.
         21   -1    0    0  502  503 -0.00000000000E+00 -0.00000000000E+00 -0.14119616976E+03  0.14119616976E+03  0.00000000000E+00 0.  1.
         -6    2    1    2    0  503  0.32240841110E+02 -0.96464981261E+02 -0.54172608530E+02  0.20853636338E+03  0.17380385177E+03 0.  0.
        -24    2    3    3    0    0 -0.12094816410E+02  0.10485187026E+02  0.25989048125E+01  0.79505034809E+02  0.77833620774E+02 0.  0.
          6    2    1    2  501    0 -0.32240841110E+02  0.96464981261E+02  0.11446475247E+04  0.11643308923E+04  0.18735929803E+03 0.  0.
         24    2    5    5    0    0  0.27046314418E+02  0.97146688037E+02  0.99350742347E+03  0.10019090596E+04  0.81214414701E+02 0.  0.
          5    1    5    5  501    0 -0.59287155528E+02 -0.68170677582E+00  0.15114010124E+03  0.16242183270E+03  0.47000000000E+01 0. -1.
        -11    1    6    6    0    0  0.11864809236E+02  0.98551004501E+02  0.60390506829E+03  0.61200850133E+03  0.00000000000E+00 0.  1.
         12    1    6    6    0    0  0.15181505182E+02 -0.14043164638E+01  0.38960235518E+03  0.38990055831E+03  0.00000000000E+00 0. -1.
         -5    1    3    3    0  503  0.44335657520E+02 -0.10695016829E+03 -0.56771513342E+02  0.12903132857E+03  0.47000000000E+01 0.  1.
         11    1    4    4    0    0  0.21776691299E+02 -0.90971741788E+01  0.25033619606E+02  0.34404432455E+02  0.00000000000E+00 0. -1.
        -12    1    4    4    0    0 -0.33871507709E+02  0.19582361204E+02 -0.22434714794E+02  0.45100602354E+02  0.00000000000E+00 0.  1.
<mgrwt>
<rscale>  2 0.21017074E+03</rscale>
<asrwt>0</asrwt>
<pdfrwt beam="1">  1       21 0.18948785E+00 0.21318647E+03</pdfrwt>
<pdfrwt beam="2">  1       21 0.21722488E-01 0.21318647E+03</pdfrwt>
<totfact> 0.30483160E+03</totfact>
</mgrwt>
</event>
<event>
12    1  0.1026879E-001  0.2660214E+03  0.7546771E-02  0.1103840E+00
         21   -1    0    0  503  502  0.00000000000E+00  0.00000000000E+00  0.32231218051E+03  0.32231218051E+03  0.00000000000E+00 0.  1.
         21   -1    0    0  501  503 -0.00000000000E+00 -0.00000000000E+00 -0.22104053585E+03  0.22104053585E+03  0.00000000000E+00 0. -1.
          6    2    1    2  501    0  0.16421150437E+03 -0.11770022673E+03  0.19073967867E+02  0.26492169502E+03  0.17029658452E+03 0.  0.
         24    2    3    3    0    0  0.40122976760E+02 -0.70548526107E+02 -0.36696836645E+02  0.12086018665E+03  0.81691976950E+02 0.  0.
         -6    2    1    2    0  502 -0.16421150437E+03  0.11770022673E+03  0.82197676791E+02  0.27843102134E+03  0.17305667869E+03 0.  0.
        -24    2    5    5    0    0 -0.36294067460E+02  0.40909866539E+02 -0.16033443789E+02  0.99738343447E+02  0.81852240781E+02 0.  0.
          5    1    3    3  501    0  0.12408852761E+03 -0.47151700618E+02  0.55770804512E+02  0.14406150836E+03  0.47000000000E+01 0. -1.
        -13    1    4    4    0    0  0.92268486801E+01 -0.77894103799E+02 -0.94305694098E+01  0.79003555507E+02  0.00000000000E+00 0.  1.
         14    1    4    4    0    0  0.30896128080E+02  0.73455776922E+01 -0.27266267235E+02  0.41856631146E+02  0.00000000000E+00 0. -1.
         -5    1    5    5    0  502 -0.12791743691E+03  0.76790360187E+02  0.98231120579E+02  0.17869267790E+03  0.47000000000E+01 0.  1.
         11    1    6    6    0    0  0.24212850869E+02 -0.70708863766E+00  0.13874629224E+01  0.24262876476E+02  0.00000000000E+00 0. -1.
        -12    1    6    6    0    0 -0.60506918329E+02  0.41616955176E+02 -0.17420906711E+02  0.75475466971E+02  0.00000000000E+00 0.  1.
<mgrwt>
<rscale>  2 0.26557344E+03</rscale>
<asrwt>0</asrwt>
<pdfrwt beam="1">  1       21 0.49586489E-01 0.26602138E+03</pdfrwt>
<pdfrwt beam="2">  1       21 0.34006236E-01 0.26602138E+03</pdfrwt>
<totfact> 0.31183541E+04</totfact>
</mgrwt>
</event>
<event>
12    1  0.1026879E-001  0.2383834E+03  0.7546771E-02  0.1121446E+00
         21   -1    0    0  501  502  0.00000000000E+00  0.00000000000E+00  0.53543737890E+03  0.53543737890E+03  0.00000000000E+00 0.  1.
         21   -1    0    0  502  503 -0.00000000000E+00 -0.00000000000E+00 -0.12445191798E+03  0.12445191798E+03  0.00000000000E+00 0.  1.
         -6    2    1    2    0  503 -0.88359281065E+02  0.13045236739E+03  0.33838665914E+03  0.41392290136E+03  0.17888950355E+03 0.  0.
        -24    2    3    3    0    0 -0.42914474777E+02  0.25785550696E+01  0.20219535164E+03  0.22160258383E+03  0.79852638311E+02 0.  0.
          6    2    1    2  501    0  0.88359281065E+02 -0.13045236739E+03  0.72598801790E+02  0.24596639552E+03  0.17436656502E+03 0.  0.
         24    2    5    5    0    0 -0.20807687800E+02 -0.56768517681E+02  0.28344022821E+02  0.10694369141E+03  0.83534095018E+02 0.  0.
          5    1    5    5  501    0  0.10916696887E+03 -0.73683849708E+02  0.44254778969E+02  0.13902270412E+03  0.47000000000E+01 0. -1.
        -11    1    6    6    0    0  0.18050281549E+02 -0.57067244751E+02  0.32073949419E+02  0.67905974102E+02  0.00000000000E+00 0.  1.
         12    1    6    6    0    0 -0.38857969349E+02  0.29872706993E+00 -0.37299265982E+01  0.39037717303E+02  0.00000000000E+00 0. -1.
         -5    1    3    3    0  503 -0.45444806288E+02  0.12787381232E+03  0.13619130750E+03  0.19232031753E+03  0.47000000000E+01 0.  1.
         11    1    4    4    0    0  0.13450609335E+02 -0.19689884631E+02  0.99864010844E+02  0.10267147174E+03  0.00000000000E+00 0. -1.
        -12    1    4    4    0    0 -0.56365084113E+02  0.22268439701E+02  0.10233134079E+03  0.11893111209E+03  0.00000000000E+00 0.  1.
<mgrwt>
<rscale>  2 0.23753508E+03</rscale>
<asrwt>0</asrwt>
<pdfrwt beam="1">  1       21 0.82374980E-01 0.23838338E+03</pdfrwt>
<pdfrwt beam="2">  1       21 0.19146449E-01 0.23838338E+03</pdfrwt>
<totfact> 0.31472007E+04</totfact>
</mgrwt>
</event>
<event>
12    1  0.1026879E-001  0.2071615E+03  0.7546771E-02  0.1143945E+00
         21   -1    0    0  501  502  0.00000000000E+00  0.00000000000E+00  0.48711057296E+02  0.48711057296E+02  0.00000000000E+00 0. -1.
         21   -1    0    0  502  503 -0.00000000000E+00 -0.00000000000E+00 -0.11873807906E+04  0.11873807906E+04  0.00000000000E+00 0.  1.
         -6    2    1    2    0  503  0.88833015100E+02 -0.68458542044E+02 -0.88390649201E+03  0.90773197317E+03  0.17351879420E+03 0.  0.
        -24    2    3    3    0    0  0.13697766217E+02 -0.89653088573E+02 -0.41029985246E+03  0.42771129293E+03  0.79785187117E+02 0.  0.
          6    2    1    2  501    0 -0.88833015100E+02  0.68458542044E+02 -0.25476324134E+03  0.32835987477E+03  0.17417813202E+03 0.  0.
         24    2    5    5    0    0 -0.27256550703E+01 -0.15368409334E+02 -0.13691533273E+03  0.15998037842E+03  0.81266819439E+02 0.  0.
          5    1    5    5  501    0 -0.86107360029E+02  0.83826951378E+02 -0.11784790861E+03  0.16837949635E+03  0.47000000000E+01 0. -1.
        -13    1    6    6    0    0  0.46537457280E+01  0.16871415350E+02 -0.12276604740E+03  0.12400727559E+03  0.00000000000E+00 0.  1.
         14    1    6    6    0    0 -0.73794007983E+01 -0.32239824684E+02 -0.14149285329E+02  0.35973102828E+02  0.00000000000E+00 0. -1.
         -5    1    3    3    0  503  0.75135248883E+02  0.21194546529E+02 -0.47360663955E+03  0.48002068023E+03  0.47000000000E+01 0.  1.
         13    1    4    4    0    0  0.34522375400E+02 -0.29657590662E+02 -0.86502114509E+02  0.97744477602E+02  0.00000000000E+00 0. -1.
        -14    1    4    4    0    0 -0.20824609183E+02 -0.59995497911E+02 -0.32379773795E+03  0.32996681533E+03  0.00000000000E+00 0.  1.
<mgrwt>
<rscale>  2 0.20702287E+03</rscale>
<asrwt>0</asrwt>
<pdfrwt beam="1">  1       21 0.74940093E-02 0.20716153E+03</pdfrwt>
<pdfrwt beam="2">  1       21 0.18267396E+00 0.20716153E+03</pdfrwt>
<totfact> 0.23223146E+04</totfact>
</mgrwt>
</event>
<event>
12    1  0.1026879E-001  0.1845972E+03  0.7546771E-02  0.1163881E+00
         21   -1    0    0  503  502  0.00000000000E+00  0.00000000000E+00  0.30794963543E+02  0.30794963543E+02  0.00000000000E+00 0.  1.
         21   -1    0    0  501  503 -0.00000000000E+00 -0.00000000000E+00 -0.13434441688E+04  0.13434441688E+04  0.00000000000E+00 0.  1.
          6    2    1    2  501    0  0.40273172856E+02  0.41976312841E+02 -0.94899244901E+03  0.96641276616E+03  0.17315607707E+03 0.  0.
         24    2    3    3    0    0  0.79594227126E+02 -0.82277427676E+01 -0.71230825912E+03  0.72124325694E+03  0.80036509950E+02 0.  0.
         -6    2    1    2    0  502 -0.40273172856E+02 -0.41976312841E+02 -0.36365675628E+03  0.40782636622E+03  0.17519180718E+03 0.  0.
        -24    2    5    5    0    0 -0.10002819376E+02 -0.48874422880E+02 -0.36444179228E+03  0.37641642347E+03  0.79892041460E+02 0.  0.
          5    1    3    3  501    0 -0.39321054270E+02  0.50204055608E+02 -0.23668418989E+03  0.24516950922E+03  0.47000000000E+01 0. -1.
        -11    1    4    4    0    0  0.41454171820E+02 -0.12588158679E+00 -0.10806508086E+03  0.11574336227E+03  0.00000000000E+00 0.  1.
         12    1    4    4    0    0  0.38140055306E+02 -0.81018611809E+01 -0.60424317826E+03  0.60549989467E+03  0.00000000000E+00 0. -1.
         -5    1    5    5    0  502 -0.30270353480E+02  0.68981100396E+01  0.78503599998E+00  0.31409942748E+02  0.47000000000E+01 0.  1.
         13    1    6    6    0    0 -0.86579507607E+01 -0.41795573588E+02 -0.36645707482E+03  0.36893443559E+03  0.00000000000E+00 0. -1.
        -14    1    6    6    0    0 -0.13448686151E+01 -0.70788492923E+01  0.20152825346E+01  0.74819878769E+01  0.00000000000E+00 0.  1.
<mgrwt>
<rscale>  2 0.18411253E+03</rscale>
<asrwt>0</asrwt>
<pdfrwt beam="1">  1       21 0.47376872E-02 0.18459715E+03</pdfrwt>
<pdfrwt beam="2">  1       21 0.20668370E+00 0.18459715E+03</pdfrwt>
<totfact> 0.36081878E+04</totfact>
</mgrwt>
</event>
<event>
12    1  0.1026879E-001  0.1939867E+03  0.7546771E-02  0.1156239E+00
         21   -1    0    0  503  502  0.00000000000E+00  0.00000000000E+00  0.57513156576E+02  0.57513156576E+02  0.00000000000E+00 0. -1.
         21   -1    0    0  501  503 -0.00000000000E+00 -0.00000000000E+00 -0.89373457406E+03  0.89373457406E+03  0.00000000000E+00 0.  1.
          6    2    1    2  501    0  0.39315567286E+01  0.77173191408E+02 -0.66966844388E+03  0.69557071977E+03  0.17143991034E+03 0.  0.
         24    2    3    3    0    0 -0.12791108428E+02  0.57855315093E+02 -0.18540063269E+03  0.21060656560E+03  0.80441785978E+02 0.  0.
         -6    2    1    2    0  502 -0.39315567286E+01 -0.77173191408E+02 -0.16655297360E+03  0.25567701087E+03  0.17793167863E+03 0.  0.
        -24    2    5    5    0    0  0.56349793939E+02 -0.88260196780E+02 -0.12548432790E+03  0.18174808157E+03  0.79504006157E+02 0.  0.
          5    1    3    3  501    0  0.16722665157E+02  0.19317876315E+02 -0.48426781119E+03  0.48496415417E+03  0.47000000000E+01 0. -1.
        -11    1    4    4    0    0 -0.33095881908E+02 -0.42171055602E+00 -0.35690903247E+02  0.48676029148E+02  0.00000000000E+00 0.  1.
         12    1    4    4    0    0  0.20304773480E+02  0.58277025649E+02 -0.14970972945E+03  0.16193053645E+03  0.00000000000E+00 0. -1.
         -5    1    5    5    0  502 -0.60281350668E+02  0.11087005371E+02 -0.41068645705E+02  0.73928929293E+02  0.47000000000E+01 0.  1.
         11    1    6    6    0    0  0.42166966314E+02 -0.42416731495E+02 -0.15552454774E+02  0.61798956370E+02  0.00000000000E+00 0. -1.
        -12    1    6    6    0    0  0.14182827625E+02 -0.45843465284E+02 -0.10993187312E+03  0.11994912520E+03  0.00000000000E+00 0.  1.
<mgrwt>
<rscale>  2 0.19248518E+03</rscale>
<asrwt>0</asrwt>
<pdfrwt beam="1">  1       21 0.88481788E-02 0.19398670E+03</pdfrwt>
<pdfrwt beam="2">  1       21 0.13749761E+00 0.19398670E+03</pdfrwt>
<totfact> 0.37698349E+04</totfact>
</mgrwt>
</event>
<event>
12    1  0.1026879E-001  0.1889646E+03  0.7546771E-02  0.1159663E+00
         21   -1    0    0  501  502  0.00000000000E+00  0.00000000000E+00  0.26682234042E+03  0.26682234042E+03  0.00000000000E+00 0.  1.
         21   -1    0    0  502  503 -0.00000000000E+00 -0.00000000000E+00 -0.13370144406E+03  0.13370144406E+03  0.00000000000E+00 0.  1.
         -6    2    1    2    0  503  0.59323839586E+02  0.45973555283E+02  0.51912643809E+02  0.19484828844E+03  0.17215704224E+03 0.  0.
        -24    2    3    3    0    0 -0.26605158624E+01  0.41337178536E+01  0.82795854906E+02  0.11380203594E+03  0.77920368496E+02 0.  0.
          6    2    1    2  501    0 -0.59323839586E+02 -0.45973555283E+02  0.81208252554E+02  0.20567549604E+03  0.17342071289E+03 0.  0.
         24    2    5    5    0    0 -0.39876376533E+02 -0.53650321525E+02  0.12152884685E+03  0.16001394894E+03  0.79791734122E+02 0.  0.
          5    1    5    5  501    0 -0.19447463054E+02  0.76767662417E+01 -0.40320594295E+02  0.45661547099E+02  0.47000000000E+01 0. -1.
        -13    1    6    6    0    0 -0.53875401768E+02 -0.58860249312E+02  0.69283950455E+02  0.10567570040E+03  0.00000000000E+00 0.  1.
         14    1    6    6    0    0  0.13999025236E+02  0.52099277870E+01  0.52244896394E+02  0.54338248540E+02  0.00000000000E+00 0. -1.
         -5    1    3    3    0  503  0.61984355449E+02  0.41839837429E+02 -0.30883211097E+02  0.81046252499E+02  0.47000000000E+01 0.  1.
         11    1    4    4    0    0  0.15165115514E+02 -0.25469901044E+02  0.69377054278E+01  0.30443855609E+02  0.00000000000E+00 0. -1.
        -12    1    4    4    0    0 -0.17825631377E+02  0.29603618897E+02  0.75858149478E+02  0.83358180331E+02  0.00000000000E+00 0.  1.
<mgrwt>
<rscale>  2 0.18867419E+03</rscale>
<asrwt>0</asrwt>
<pdfrwt beam="1">  1       21 0.41049591E-01 0.18896462E+03</pdfrwt>
<pdfrwt beam="2">  1       21 0.20569453E-01 0.18896462E+03</pdfrwt>
<totfact> 0.12535191E+05</totfact>
</mgrwt>
</event>
<event>
12    1  0.1026879E-001  0.2488583E+03  0.7546771E-02  0.1115321E+00
         21   -1    0    0  501  502  0.00000000000E+00  0.00000000000E+00  0.16032225993E+03  0.16032225993E+03  0.00000000000E+00 0.  1.
         21   -1    0    0  502  503 -0.00000000000E+00 -0.00000000000E+00 -0.39402054262E+03  0.39402054262E+03  0.00000000000E+00 0. -1.
         -6    2    1    2    0  503 -0.15812946578E+03  0.83915746202E+02 -0.18116364446E+03  0.30781607103E+03  0.17286898826E+03 0.  0.
        -24    2    3    3    0    0 -0.66789374506E+02 -0.23480177219E+02 -0.99247020646E+02  0.14469243725E+03  0.77934530348E+02 0.  0.
          6    2    1    2  501    0  0.15812946578E+03 -0.83915746202E+02 -0.52534638230E+02  0.24652673151E+03  0.16114825698E+03 0.  0.
         24    2    5    5    0    0  0.17426175993E+03 -0.92921130358E+02 -0.29036471768E+02  0.21626782067E+03  0.83229538784E+02 0.  0.
          5    1    5    5  501    0 -0.16132294143E+02  0.90053841557E+01 -0.23498166463E+02  0.30258910840E+02  0.47000000000E+01 0. -1.
        -11    1    6    6    0    0  0.86754791859E+01 -0.20799808515E+02  0.18889985322E+02  0.29406249656E+02  0.00000000000E+00 0.  1.
         12    1    6    6    0    0  0.16558628074E+03 -0.72121321842E+02 -0.47926457089E+02  0.18686157102E+03  0.00000000000E+00 0. -1.
         -5    1    3    3    0  503 -0.91340091277E+02  0.10739592342E+03 -0.81916623812E+02  0.16312363378E+03  0.47000000000E+01 0.  1.
         13    1    4    4    0    0 -0.62866893023E+02  0.93414301068E+01 -0.90341650789E+02  0.11045869102E+03  0.00000000000E+00 0. -1.
        -14    1    4    4    0    0 -0.39224814835E+01 -0.32821607326E+02 -0.89053698567E+01  0.34233746227E+02  0.00000000000E+00 0.  1.
<mgrwt>
<rscale>  2 0.24683525E+03</rscale>
<asrwt>0</asrwt>
<pdfrwt beam="1">  1       21 0.24664963E-01 0.24885833E+03</pdfrwt>
<pdfrwt beam="2">  1       21 0.60618544E-01 0.24885833E+03</pdfrwt>
<totfact> 0.38351397E+04</totfact>
</mgrwt>
</event>
<event>
12    1  0.1026879E-001  0.1930120E+03  0.7546771E-02  0.1156662E+00
         21   -1    0    0  503  502  0.00000000000E+00  0.00000000000E+00  0.54190703865E+03  0.54190703865E+03  0.00000000000E+00 0.  1.
         21   -1    0    0  501  503 -0.00000000000E+00 -0.00000000000E+00 -0.37202181271E+03  0.37202181271E+03  0.00000000000E+00 0. -1.
          6    2    1    2  501    0 -0.72761960214E+02 -0.22522325657E+02 -0.32844030681E+03  0.38095493906E+03  0.17734732151E+03 0.  0.
         24    2    3    3    0    0  0.18274264578E+02 -0.47420898257E+02 -0.14311049733E+03  0.17292426482E+03  0.82701248960E+02 0.  0.
         -6    2    1    2    0  502  0.72761960214E+02  0.22522325657E+02  0.49832553276E+03  0.53297391230E+03  0.17300663741E+03 0.  0.
        -24    2    5    5    0    0 -0.21517942656E+02  0.19580382377E+02  0.29147197056E+03  0.30558032992E+03  0.87046052067E+02 0.  0.
          5    1    3    3  501    0 -0.91036224792E+02  0.24898572600E+02 -0.18532980948E+03  0.20803067424E+03  0.47000000000E+01 0. -1.
        -11    1    4    4    0    0 -0.21685473858E+02 -0.49362759426E+02 -0.59871066587E+02  0.80569761132E+02  0.00000000000E+00 0.  1.
         12    1    4    4    0    0  0.39959738436E+02  0.19418611692E+01 -0.83239430747E+02  0.92354503689E+02  0.00000000000E+00 0. -1.
         -5    1    5    5    0  502  0.94279902870E+02  0.29419432803E+01  0.20685356220E+03  0.22739358238E+03  0.47000000000E+01 0.  1.
         11    1    6    6    0    0 -0.40895240932E+02  0.29039110107E+02  0.90622116621E+02  0.10357634222E+03  0.00000000000E+00 0. -1.
        -12    1    6    6    0    0  0.19377298276E+02 -0.94587277297E+01  0.20084985394E+03  0.20200398770E+03  0.00000000000E+00 0.  1.
<mgrwt>
<rscale>  2 0.19200905E+03</rscale>
<asrwt>0</asrwt>
<pdfrwt beam="1">  1       21 0.83370314E-01 0.19301200E+03</pdfrwt>
<pdfrwt beam="2">  1       21 0.57234125E-01 0.19301200E+03</pdfrwt>
<totfact> 0.35891179E+03</totfact>
</mgrwt>
</event>
<event>
12    1  0.1026879E-001  0.2244785E+03  0.7546771E-02  0.1130591E+00
         21   -1    0    0  501  502  0.00000000000E+00  0.00000000000E+00  0.48900482146E+02  0.48900482146E+02  0.00000000000E+00 0.  1.
         21   -1    0    0  502  503 -0.00000000000E+00 -0.00000000000E+00 -0.10308748529E+04  0.10308748529E+04  0.00000000000E+00 0.  1.
         -6    2    1    2    0  503 -0.13417830957E+03 -0.50307595195E+02 -0.50275575670E+03  0.55059418141E+03  0.17278868256E+03 0.  0.
        -24    2    3    3    0    0 -0.65453258867E+02 -0.77021920380E+02 -0.43403404598E+03  0.44969050810E+03  0.60162236407E+02 0.  0.
          6    2    1    2  501    0  0.13417830957E+03  0.50307595195E+02 -0.47921861403E+03  0.52918115360E+03  0.17276440723E+03 0.  0.
         24    2    5    5    0    0  0.37493866052E+02  0.83255406411E+02 -0.24413615355E+03  0.27282340922E+03  0.80578523558E+02 0.  0.
          5    1    5    5  501    0  0.96684443517E+02 -0.32947811216E+02 -0.23508246048E+03  0.25635774438E+03  0.47000000000E+01 0. -1.
        -11    1    6    6    0    0 -0.17289106356E+01  0.30616418196E+02 -0.14372898447E+02  0.33866420019E+02  0.00000000000E+00 0.  1.
         12    1    6    6    0    0  0.39222776687E+02  0.52638988215E+02 -0.22976325510E+03  0.23895698920E+03  0.00000000000E+00 0. -1.
         -5    1    3    3    0  503 -0.68725050702E+02  0.26714325185E+02 -0.68721710714E+02  0.10090367331E+03  0.47000000000E+01 0.  1.
         13    1    4    4    0    0  0.18709620869E+01 -0.65185619968E+01 -0.13494592133E+03  0.13511622342E+03  0.00000000000E+00 0. -1.
        -14    1    4    4    0    0 -0.67324220954E+02 -0.70503358383E+02 -0.29908812465E+03  0.31457428468E+03  0.00000000000E+00 0.  1.
<mgrwt>
<rscale>  2 0.22447384E+03</rscale>
<asrwt>0</asrwt>
<pdfrwt beam="1">  1       21 0.75231515E-02 0.22447851E+03</pdfrwt>
<pdfrwt beam="2">  1       21 0.15859612E+00 0.22447851E+03</pdfrwt>
<totfact> 0.33761958E+04</totfact>
</mgrwt>
</event>
<event>
12    1  0.1026879E-001  0.2275812E+03  0.7546771E-02  0.1128382E+00
         21   -1    0    0  501  502  0.00000000000E+00  0.00000000000E+00  0.39069993403E+03  0.39069993403E+03  0.00000000000E+00 0. -1.
         21   -1    0    0  502  503 -0.00000000000E+00 -0.00000000000E+00 -0.13479105796E+03  0.13479105796E+03  0.00000000000E+00 0.  1.
         -6    2    1    2    0  503  0.27363433945E+02 -0.14471424645E+03  0.16235358605E+03  0.27943045849E+03  0.17329663467E+03 0.  0.
        -24    2    3    3    0    0 -0.41591642488E+02 -0.10387064767E+03  0.13759956986E+03  0.19541942681E+03  0.82073957966E+02 0.  0.
          6    2    1    2  501    0 -0.27363433945E+02  0.14471424645E+03  0.93555290025E+02  0.24606053349E+03  0.17349992279E+03 0.  0.
         24    2    5    5    0    0  0.48635326190E+02  0.53864270321E+02  0.59176226455E+02  0.12263630687E+03  0.79190172466E+02 0.  0.
          5    1    5    5  501    0 -0.75998760134E+02  0.90849976126E+02  0.34379063570E+02  0.12342422662E+03  0.47000000000E+01 0. -1.
        -11    1    6    6    0    0  0.71333182051E+01  0.12884283296E+02 -0.19663791120E+02  0.24567329238E+02  0.00000000000E+00 0.  1.
         12    1    6    6    0    0  0.41502007984E+02  0.40979987025E+02  0.78840017575E+02  0.98068977635E+02  0.00000000000E+00 0. -1.
         -5    1    3    3    0  503  0.68955076433E+02 -0.40843598779E+02  0.24754016182E+02  0.84011031682E+02  0.47000000000E+01 0.  1.
         11    1    4    4    0    0 -0.13243018325E+02 -0.84993724148E+02  0.13650021104E+03  0.16134316934E+03  0.00000000000E+00 0. -1.
        -12    1    4    4    0    0 -0.28348624164E+02 -0.18876923520E+02  0.10993588285E+01  0.34076257473E+02  0.00000000000E+00 0.  1.
<mgrwt>
<rscale>  2 0.22754244E+03</rscale>
<asrwt>0</asrwt>
<pdfrwt beam="1">  1       21 0.60107681E-01 0.22758118E+03</pdfrwt>
<pdfrwt beam="2">  1       21 0.20737086E-01 0.22758118E+03</pdfrwt>
<totfact> 0.54795877E+04</totfact>
</mgrwt>
</event>
<event>
12    1  0.1026879E-001  0.5490361E+03  0.7546771E-02  0.1001779E+00
         21   -1    0    0  503  502  0.00000000000E+00  0.00000000000E+00  0.26195071351E+03  0.26195071351E+03  0.00000000000E+00 0.  1.
         21   -1    0    0  501  503 -0.00000000000E+00 -0.00000000000E+00 -0.12290130458E+04  0.12290130458E+04  0.00000000000E+00 0. -1.
          6    2    1    2  501    0 -0.13429483307E+03  0.50246172541E+03 -0.67473591288E+03  0.86989033646E+03  0.17589132338E+03 0.  0.
         24    2    3    3    0    0 -0.99899832780E+02  0.45302724429E+03 -0.50772401099E+03  0.69229008493E+03  0.79172152314E+02 0.  0.
         -6    2    1    2    0  502  0.13429483307E+03 -0.50246172541E+03 -0.29232641942E+03  0.62107342287E+03  0.17255310317E+03 0.  0.
        -24    2    5    5    0    0  0.13531898663E+03 -0.42684966490E+03 -0.30001090685E+03  0.54491980226E+03  0.80119798451E+02 0.  0.
          5    1    3    3  501    0 -0.34395000294E+02  0.49434481122E+02 -0.16701190190E+03  0.17760025153E+03  0.47000000000E+01 0. -1.
        -11    1    4    4    0    0 -0.51974353939E+02  0.32746734823E+03 -0.31506186454E+03  0.45738405756E+03  0.00000000000E+00 0.  1.
         12    1    4    4    0    0 -0.47925478841E+02  0.12555989606E+03 -0.19266214645E+03  0.23490602737E+03  0.00000000000E+00 0. -1.
         -5    1    5    5    0  502 -0.10241535549E+01 -0.75612060508E+02  0.76844874248E+01  0.76153620608E+02  0.47000000000E+01 0.  1.
         11    1    6    6    0    0  0.10163857852E+01 -0.11411984971E+03 -0.85677394432E+02  0.14270595312E+03  0.00000000000E+00 0. -1.
        -12    1    6    6    0    0  0.13430260084E+03 -0.31272981519E+03 -0.21433351242E+03  0.40221384915E+03  0.00000000000E+00 0.  1.
<mgrwt>
<rscale>  2 0.54877083E+03</rscale>
<asrwt>0</asrwt>
<pdfrwt beam="1">  1       21 0.40300109E-01 0.54903611E+03</pdfrwt>
<pdfrwt beam="2">  1       21 0.18907893E+00 0.54903611E+03</pdfrwt>
<totfact> 0.75018997E+02</totfact>
</mgrwt>
</event>
<event>
12    1  0.1026879E-001  0.1833363E+03  0.7546771E-02  0.1165092E+00
         21   -1    0    0  501  502  0.00000000000E+00  0.00000000000E+00  0.10445264671E+03  0.10445264671E+03  0.00000000000E+00 0.  1.
         21   -1    0    0  502  503 -0.00000000000E+00 -0.00000000000E+00 -0.57657485724E+03  0.57657485724E+03  0.00000000000E+00 0.  1.
         -6    2    1    2    0  503  0.58751804075E+02  0.30550863338E+01 -0.46325615970E+03  0.49747699250E+03  0.17151087586E+03 0.  0.
        -24    2    3    3    0    0  0.58803097463E+02 -0.61067398488E+02 -0.27948848883E+03  0.30278661640E+03  0.79867942588E+02 0.  0.
          6    2    1    2  501    0 -0.58751804075E+02 -0.30550863338E+01 -0.88660508316E+01  0.18355051145E+03  0.17364065008E+03 0.  0.
         24    2    5    5    0    0  0.26519944447E+02 -0.14177520659E+02  0.26938837200E+02  0.90281761866E+02  0.80751384077E+02 0.  0.
          5    1    5    5  501    0 -0.85271748522E+02  0.11122434325E+02 -0.35804888032E+02  0.93268749581E+02  0.47000000000E+01 0. -1.
        -13    1    6    6    0    0  0.14300446796E+02  0.33248767194E+02  0.47129598661E+01  0.36499250529E+02  0.00000000000E+00 0.  1.
         14    1    6    6    0    0  0.12219497652E+02 -0.47426287854E+02  0.22225877334E+02  0.53782511337E+02  0.00000000000E+00 0. -1.
         -5    1    3    3    0  503 -0.51293387907E-01  0.64122484822E+02 -0.18376767087E+03  0.19469037610E+03  0.47000000000E+01 0.  1.
         13    1    4    4    0    0 -0.13469228350E+02 -0.14257152852E+01 -0.83465060729E+01  0.15909649275E+02  0.00000000000E+00 0. -1.
        -14    1    4    4    0    0  0.72272325813E+02 -0.59641683203E+02 -0.27114198276E+03  0.28687696713E+03  0.00000000000E+00 0.  1.
<mgrwt>
<rscale>  2 0.18283020E+03</rscale>
<asrwt>0</asrwt>
<pdfrwt beam="1">  1       21 0.16069638E-01 0.18333626E+03</pdfrwt>
<pdfrwt beam="2">  1       21 0.88703824E-01 0.18333626E+03</pdfrwt>
<totfact> 0.37764724E+04</totfact>
</mgrwt>
</event>
<event>
12    1  0.1026879E-001  0.2005221E+03  0.7546771E-02  0.1149661E+00
         21   -1    0    0  501  502  0.00000000000E+00  0.00000000000E+00  0.23548276638E+03  0.23548276638E+03  0.00000000000E+00 0.  1.
         21   -1    0    0  502  503 -0.00000000000E+00 -0.00000000000E+00 -0.17018255781E+03  0.17018255781E+03  0.00000000000E+00 0. -1.
         -6    2    1    2    0  503 -0.86256573301E+02  0.53816910837E+02  0.17871515800E+02  0.19961046704E+03  0.17084639635E+03 0.  0.
        -24    2    3    3    0    0 -0.40126569451E+00  0.66166795318E+02 -0.17606487534E+02  0.10577853105E+03  0.80628180008E+02 0.  0.
          6    2    1    2  501    0  0.86256573301E+02 -0.53816910837E+02  0.47428692771E+02  0.20605485715E+03  0.17283711096E+03 0.  0.
         24    2    5    5    0    0  0.84960646596E+02 -0.87766712400E+02 -0.44547894023E-01  0.14748808302E+03  0.82652437187E+02 0.  0.
          5    1    5    5  501    0  0.12959267046E+01  0.33949801563E+02  0.47473240665E+02  0.58566774125E+02  0.47000000000E+01 0. -1.
        -13    1    6    6    0    0  0.61904828911E+02 -0.53028575954E+02  0.39005003689E+02  0.90363864586E+02  0.00000000000E+00 0.  1.
         14    1    6    6    0    0  0.23055817686E+02 -0.34738136446E+02 -0.39049551583E+02  0.57124218435E+02  0.00000000000E+00 0. -1.
         -5    1    3    3    0  503 -0.85855307606E+02 -0.12349884481E+02  0.35478003334E+02  0.93831935989E+02  0.47000000000E+01 0.  1.
         13    1    4    4    0    0 -0.29300288514E+02  0.69042969795E+02 -0.93338751130E+01  0.75581477954E+02  0.00000000000E+00 0. -1.
        -14    1    4    4    0    0  0.28899022819E+02 -0.28761744771E+01 -0.82726124208E+01  0.30197053098E+02  0.00000000000E+00 0.  1.
<mgrwt>
<rscale>  2 0.20009242E+03</rscale>
<asrwt>0</asrwt>
<pdfrwt beam="1">  1       21 0.36228118E-01 0.20052213E+03</pdfrwt>
<pdfrwt beam="2">  1       21 0.26181932E-01 0.20052213E+03</pdfrwt>
<totfact> 0.10155622E+05</totfact>
</mgrwt>
</event>
<event>
12    1  0.1026879E-001  0.2195115E+03  0.7546771E-02  0.1134918E+00
         21   -1    0    0  503  502  0.00000000000E+00  0.00000000000E+00  0.22768422999E+04  0.22768422999E+04  0.00000000000E+00 0. -1.
         21   -1    0    0  501  503 -0.00000000000E+00 -0.00000000000E+00 -0.46460277358E+02  0.46460277358E+02  0.00000000000E+00 0.  1.
          6    2    1    2  501    0 -0.12658170093E+03 -0.46165725781E+02  0.25634515008E+03  0.33748794719E+03  0.17329476992E+03 0.  0.
         24    2    3    3    0    0 -0.15500775541E+03 -0.61478864085E+02  0.19897286057E+03  0.27148641402E+03  0.79420518649E+02 0.  0.
         -6    2    1    2    0  502  0.12658170093E+03  0.46165725781E+02  0.19740368724E+04  0.19858146300E+04  0.16877194644E+03 0.  0.
        -24    2    5    5    0    0  0.48443833174E+02  0.72723993049E+02  0.14631455602E+04  0.14682792295E+04  0.86100994141E+02 0.  0.
          5    1    3    3  501    0  0.28426054484E+02  0.15313138304E+02  0.57372289510E+02  0.66001533178E+02  0.47000000000E+01 0. -1.
        -13    1    4    4    0    0 -0.15489390101E+03 -0.72047298368E+02  0.19696877328E+03  0.26072903832E+03  0.00000000000E+00 0.  1.
         14    1    4    4    0    0 -0.11385439998E+00  0.10568434283E+02  0.20040872896E+01  0.10757375697E+02  0.00000000000E+00 0. -1.
         -5    1    5    5    0  502  0.78137867754E+02 -0.26558267269E+02  0.51089131218E+03  0.51753540053E+03  0.47000000000E+01 0.  1.
         13    1    6    6    0    0  0.53135724162E+02  0.29448466069E+02  0.12017135763E+04  0.12032481609E+04  0.00000000000E+00 0. -1.
        -14    1    6    6    0    0 -0.46918909875E+01  0.43275526980E+02  0.26143198397E+03  0.26503106860E+03  0.00000000000E+00 0.  1.
<mgrwt>
<rscale>  2 0.21861783E+03</rscale>
<asrwt>0</asrwt>
<pdfrwt beam="1">  1       21 0.35028334E+00 0.21951145E+03</pdfrwt>
<pdfrwt beam="2">  1       21 0.71477367E-02 0.21951145E+03</pdfrwt>
<totfact> 0.24559290E+03</totfact>
</mgrwt>
</event>
<event>
12    1  0.1026879E-001  0.1782578E+03  0.7546771E-02  0.1169705E+00
         21   -1    0    0  503  502  0.00000000000E+00  0.00000000000E+00  0.39699853425E+02  0.39699853425E+02  0.00000000000E+00 0.  1.
         21   -1    0    0  501  503 -0.00000000000E+00 -0.00000000000E+00 -0.96796260479E+03  0.96796260479E+03  0.00000000000E+00 0.  1.
          6    2    1    2  501    0  0.13041728839E+02 -0.36265074263E+02 -0.67697482160E+03  0.70005052918E+03  0.17404192605E+03 0.  0.
         24    2    3    3    0    0  0.25543858260E+02 -0.74300959160E+02 -0.62153285334E+03  0.63150176096E+03  0.79487515290E+02 0.  0.
         -6    2    1    2    0  502 -0.13041728839E+02  0.36265074263E+02 -0.25128792977E+03  0.30761192904E+03  0.17318843188E+03 0.  0.
        -24    2    5    5    0    0 -0.69968357949E+02 -0.13895607060E+01 -0.17987595286E+03  0.20871666584E+03  0.79434162617E+02 0.  0.
          5    1    3    3  501    0 -0.12502129421E+02  0.38035884897E+02 -0.55441968258E+02  0.68548768218E+02  0.47000000000E+01 0. -1.
        -13    1    4    4    0    0 -0.14637349249E+02 -0.87316763316E+01 -0.31531283714E+03  0.31577314552E+03  0.00000000000E+00 0.  1.
         14    1    4    4    0    0  0.40181207509E+02 -0.65569282828E+02 -0.30622001620E+03  0.31572861544E+03  0.00000000000E+00 0. -1.
         -5    1    5    5    0  502  0.56926629110E+02  0.37654634970E+02 -0.71411976912E+02  0.98895263198E+02  0.47000000000E+01 0.  1.
         11    1    6    6    0    0 -0.27058742660E+02 -0.35935402724E+02 -0.11571706842E+03  0.12415300499E+03  0.00000000000E+00 0. -1.
        -12    1    6    6    0    0 -0.42909615289E+02  0.34545842018E+02 -0.64158884435E+02  0.84563660854E+02  0.00000000000E+00 0.  1.
<mgrwt>
<rscale>  2 0.17804911E+03</rscale>
<asrwt>0</asrwt>
<pdfrwt beam="1">  1       21 0.61076701E-02 0.17825777E+03</pdfrwt>
<pdfrwt beam="2">  1       21 0.14891731E+00 0.17825777E+03</pdfrwt>
<totfact> 0.58725059E+04</totfact>
</mgrwt>
</event>
<event>
12    1  0.1026879E-001  0.2176168E+03  0.7546771E-02  0.1135712E+00
         21   -1    0    0  503  502  0.00000000000E+00  0.00000000000E+00  0.88100093685E+03  0.88100093685E+03  0.00000000000E+00 0. -1.
         21   -1    0    0  501  503 -0.00000000000E+00 -0.00000000000E+00 -0.15222132798E+03  0.15222132798E+03  0.00000000000E+00 0.  1.
          6    2    1    2  501    0  0.10849228041E+03  0.74328735547E+02 -0.51159015175E+02  0.22354932554E+03  0.17338316031E+03 0.  0.
         24    2    3    3    0    0  0.12411218262E+03  0.35732558846E+02  0.60681676556E+01  0.15262199191E+03  0.81092540467E+02 0.  0.
         -6    2    1    2    0  502 -0.10849228041E+03 -0.74328735547E+02  0.77993862405E+03  0.80967293930E+03  0.17312040757E+03 0.  0.
        -24    2    5    5    0    0 -0.37065966440E+02 -0.30544280499E+02  0.64086450702E+03  0.64724604234E+03  0.76897880470E+02 0.  0.
          5    1    3    3  501    0 -0.15619902215E+02  0.38596176700E+02 -0.57227182830E+02  0.70927333629E+02  0.47000000000E+01 0. -1.
        -13    1    4    4    0    0  0.78759982173E+02 -0.16864024386E+02  0.16993851573E+02  0.82318412896E+02  0.00000000000E+00 0.  1.
         14    1    4    4    0    0  0.45352200448E+02  0.52596583233E+02 -0.10925683917E+02  0.70303579015E+02  0.00000000000E+00 0. -1.
         -5    1    5    5    0  502 -0.71426313966E+02 -0.43784455047E+02  0.13907411702E+03  0.16242689696E+03  0.47000000000E+01 0.  1.
         13    1    6    6    0    0 -0.42156288430E+00 -0.45660824483E+02  0.23105682755E+03  0.23552568048E+03  0.00000000000E+00 0. -1.
        -14    1    6    6    0    0 -0.36644403556E+02  0.15116543984E+02  0.40980767947E+03  0.41172036186E+03  0.00000000000E+00 0.  1.
<mgrwt>
<rscale>  2 0.21756442E+03</rscale>
<asrwt>0</asrwt>
<pdfrwt beam="1">  1       21 0.13553860E+00 0.21761676E+03</pdfrwt>
<pdfrwt beam="2">  1       21 0.23418666E-01 0.21761676E+03</pdfrwt>
<totfact> 0.65436667E+03</totfact>
</mgrwt>
</event>
<event>
12    1  0.1026879E-001  0.1979823E+03  0.7546771E-02  0.1151466E+00
         21   -1    0    0  501  502  0.00000000000E+00  0.00000000000E+00  0.84375282971E+02  0.84375282971E+02  0.00000000000E+00 0.  1.
         21   -1    0    0  502  503 -0.00000000000E+00 -0.00000000000E+00 -0.48467664330E+03  0.48467664330E+03  0.00000000000E+00 0.  1.
         -6    2    1    2    0  503  0.86412681479E+02  0.43029016143E+02 -0.25836909681E+03  0.32550204697E+03  0.17285353524E+03 0.  0.
        -24    2    3    3    0    0  0.58890202826E+02 -0.41697897255E+02 -0.11721917361E+03  0.15852442121E+03  0.78631334935E+02 0.  0.
          6    2    1    2  501    0 -0.86412681479E+02 -0.43029016143E+02 -0.14193226353E+03  0.24354987931E+03  0.17278057915E+03 0.  0.
         24    2    5    5    0    0  0.10422001654E+01 -0.65799500534E+02 -0.49956831741E+02  0.11452111765E+03  0.79301581944E+02 0.  0.
          5    1    5    5  501    0 -0.87454881644E+02  0.22770484391E+02 -0.91975431786E+02  0.12902876166E+03  0.47000000000E+01 0. -1.
        -13    1    6    6    0    0  0.62868513112E+01 -0.78890278809E+02 -0.58154094704E+02  0.98209466553E+02  0.00000000000E+00 0.  1.
         14    1    6    6    0    0 -0.52446511458E+01  0.13090778275E+02  0.81972629621E+01  0.16311651098E+02  0.00000000000E+00 0. -1.
         -5    1    3    3    0  503  0.27522478653E+02  0.84726913398E+02 -0.14114992319E+03  0.16697762576E+03  0.47000000000E+01 0.  1.
         11    1    4    4    0    0  0.13676471880E+02 -0.43208163687E+02 -0.10058582354E+03  0.11032451763E+03  0.00000000000E+00 0. -1.
        -12    1    4    4    0    0  0.45213730946E+02  0.15102664322E+01 -0.16633350068E+02  0.48199903581E+02  0.00000000000E+00 0.  1.
<mgrwt>
<rscale>  2 0.19796638E+03</rscale>
<asrwt>0</asrwt>
<pdfrwt beam="1">  1       21 0.12980813E-01 0.19798230E+03</pdfrwt>
<pdfrwt beam="2">  1       21 0.74565638E-01 0.19798230E+03</pdfrwt>
<totfact> 0.81898864E+04</totfact>
</mgrwt>
</event>
<event>
12    1  0.1026879E-001  0.1955540E+03  0.7546771E-02  0.1153875E+00
         21   -1    0    0  501  502  0.00000000000E+00  0.00000000000E+00  0.34437413796E+02  0.34437413796E+02  0.00000000000E+00 0. -1.
         21   -1    0    0  502  503 -0.00000000000E+00 -0.00000000000E+00 -0.11567393119E+04  0.11567393119E+04  0.00000000000E+00 0. -1.
         -6    2    1    2    0  503 -0.84740030705E+02 -0.29275747007E+02 -0.69291515654E+03  0.71998110542E+03  0.17379135721E+03 0.  0.
        -24    2    3    3    0    0 -0.11317868042E+03  0.74059849880E+01 -0.39629219327E+03  0.41971192852E+03  0.79033778731E+02 0.  0.
          6    2    1    2  501    0  0.84740030705E+02  0.29275747007E+02 -0.42938674154E+03  0.47119562025E+03  0.17208833941E+03 0.  0.
         24    2    5    5    0    0  0.75302683346E+02  0.60199970447E+02 -0.41836636642E+03  0.43671504908E+03  0.79969287733E+02 0.  0.
          5    1    5    5  501    0  0.94373473599E+01 -0.30924223439E+02 -0.11020375128E+02  0.34480571174E+02  0.47000000000E+01 0. -1.
        -13    1    6    6    0    0 -0.12562831382E+02 -0.70020990008E+01 -0.57749831233E+02  0.59513839821E+02  0.00000000000E+00 0.  1.
         14    1    6    6    0    0  0.87865514728E+02  0.67202069447E+02 -0.36061653518E+03  0.37720120926E+03  0.00000000000E+00 0. -1.
         -5    1    3    3    0  503  0.28438649715E+02 -0.36681731995E+02 -0.29662296327E+03  0.30026917691E+03  0.47000000000E+01 0.  1.
         13    1    4    4    0    0 -0.46728155534E+02 -0.13129941170E+01 -0.29216241566E+03  0.29587855887E+03  0.00000000000E+00 0. -1.
        -14    1    4    4    0    0 -0.66450524887E+02  0.87189791049E+01 -0.10412977760E+03  0.12383336965E+03  0.00000000000E+00 0.  1.
<mgrwt>
<rscale>  2 0.19517495E+03</rscale>
<asrwt>0</asrwt>
<pdfrwt beam="1">  1       21 0.52980651E-02 0.19555403E+03</pdfrwt>
<pdfrwt beam="2">  1       21 0.17795985E+00 0.19555403E+03</pdfrwt>
<totfact> 0.45726188E+04</totfact>
</mgrwt>
</event>
<event>
12    1  0.1026879E-001  0.2043931E+03  0.7546771E-02  0.1146357E+00
         21   -1    0    0  503  502  0.00000000000E+00  0.00000000000E+00  0.17011433843E+03  0.17011433843E+03  0.00000000000E+00 0. -1.
         21   -1    0    0  501  503 -0.00000000000E+00 -0.00000000000E+00 -0.25725758908E+03  0.25725758908E+03  0.00000000000E+00 0. -1.
          6    2    1    2  501    0 -0.79213755506E+02 -0.73341076459E+02 -0.92230324957E+02  0.22423866732E+03  0.17355925363E+03 0.  0.
         24    2    3    3    0    0 -0.75200889147E+02 -0.10259832288E+03 -0.29487884124E+02  0.15473475774E+03  0.83016386073E+02 0.  0.
         -6    2    1    2    0  502  0.79213755506E+02  0.73341076459E+02  0.50870743046E+01  0.20313326020E+03  0.17199857708E+03 0.  0.
        -24    2    5    5    0    0  0.10019371002E+03  0.99601710275E+02  0.25299390924E+02  0.16363127135E+03  0.78586599137E+02 0.  0.
          5    1    3    3  501    0 -0.40128663589E+01  0.29257246421E+02 -0.62742440834E+02  0.69503909576E+02  0.47000000000E+01 0. -1.
        -13    1    4    4    0    0  0.15936670863E+02 -0.32546877350E+02 -0.13534204429E+02  0.38683994015E+02  0.00000000000E+00 0.  1.
         14    1    4    4    0    0 -0.91137560010E+02 -0.70051445530E+02 -0.15953679695E+02  0.11605076373E+03  0.00000000000E+00 0. -1.
         -5    1    5    5    0  502 -0.20979954518E+02 -0.26260633817E+02 -0.20212316619E+02  0.39501988850E+02  0.47000000000E+01 0.  1.
         11    1    6    6    0    0  0.90296901418E+01  0.36159470843E+01  0.29625899599E+02  0.31181794438E+02  0.00000000000E+00 0. -1.
        -12    1    6    6    0    0  0.91164019882E+02  0.95985763191E+02 -0.43265086747E+01  0.13244947691E+03  0.00000000000E+00 0.  1.
<mgrwt>
<rscale>  2 0.20406142E+03</rscale>
<asrwt>0</asrwt>
<pdfrwt beam="1">  1       21 0.26171437E-01 0.20439312E+03</pdfrwt>
<pdfrwt beam="2">  1       21 0.39578091E-01 0.20439312E+03</pdfrwt>
<totfact> 0.84968365E+04</totfact>
</mgrwt>
</event>
<event>
12    1  0.1026879E-001  0.2299682E+03  0.7546771E-02  0.1127458E+00
         21   -1    0    0  501  502  0.00000000000E+00  0.00000000000E+00  0.28801143960E+03  0.28801143960E+03  0.00000000000E+00 0.  1.
         21   -1    0    0  502  503 -0.00000000000E+00 -0.00000000000E+00 -0.25625846528E+03  0.25625846528E+03  0.00000000000E+00 0. -1.
         -6    2    1    2    0  503  0.36864312512E+02  0.13998697265E+03 -0.13261534165E+03  0.26159988981E+03  0.17289402377E+03 0.  0.
        -24    2    3    3    0    0 -0.22064359687E+01  0.13711514425E+02 -0.10055857748E+02  0.81280917339E+02  0.79451829815E+02 0.  0.
          6    2    1    2  501    0 -0.36864312512E+02 -0.13998697265E+03  0.16436831596E+03  0.28267001507E+03  0.17868985444E+03 0.  0.
         24    2    5    5    0    0  0.48895225181E+02 -0.81236293733E+02  0.10418434156E+03  0.16245961056E+03  0.80923850452E+02 0.  0.
          5    1    5    5  501    0 -0.85759537693E+02 -0.58750678915E+02  0.60183974405E+02  0.12021040451E+03  0.47000000000E+01 0. -1.
        -11    1    6    6    0    0  0.47768595061E+02 -0.29178419754E+02  0.93998494320E+02  0.10940263154E+03  0.00000000000E+00 0.  1.
         12    1    6    6    0    0  0.11266301199E+01 -0.52057873979E+02  0.10185847239E+02  0.53056979019E+02  0.00000000000E+00 0. -1.
         -5    1    3    3    0  503  0.39070748481E+02  0.12627545822E+03 -0.12255948390E+03  0.18031897247E+03  0.47000000000E+01 0.  1.
         11    1    4    4    0    0 -0.23294633070E+02 -0.23294350282E+02 -0.18611674328E+02  0.37837297819E+02  0.00000000000E+00 0. -1.
        -12    1    4    4    0    0  0.21088197102E+02  0.37005864707E+02  0.85558165795E+01  0.43443619521E+02  0.00000000000E+00 0.  1.
<mgrwt>
<rscale>  2 0.22884150E+03</rscale>
<asrwt>0</asrwt>
<pdfrwt beam="1">  1       21 0.44309452E-01 0.22996825E+03</pdfrwt>
<pdfrwt beam="2">  1       21 0.39424380E-01 0.22996825E+03</pdfrwt>
<totfact> 0.29751381E+04</totfact>
</mgrwt>
</event>
<event>
12    1  0.1026879E-001  0.3465948E+03  0.7546771E-02  0.1064220E+00
         21   -1    0    0  503  502  0.00000000000E+00  0.00000000000E+00  0.33446185533E+03  0.33446185533E+03  0.00000000000E+00 0.  1.
         21   -1    0    0  501  503 -0.00000000000E+00 -0.00000000000E+00 -0.36754367548E+03  0.36754367548E+03  0.00000000000E+00 0.  1.
          6    2    1    2  501    0 -0.29436736775E+03  0.59041609569E+02  0.42386123478E+02  0.34728959051E+03  0.16933817454E+03 0.  0.
         24    2    3    3    0    0 -0.10929040182E+03 -0.19000650517E+02 -0.15632514518E+02  0.13816682745E+03  0.80871997913E+02 0.  0.
         -6    2    1    2    0  502  0.29436736775E+03 -0.59041609569E+02 -0.75467943627E+02  0.35471594031E+03  0.17317600566E+03 0.  0.
        -24    2    5    5    0    0  0.19013930119E+03 -0.15256895905E+02 -0.11328816545E+03  0.23541359252E+03  0.78737693525E+02 0.  0.
          5    1    3    3  501    0 -0.18507696592E+03  0.78042260087E+02  0.58018637996E+02  0.20912276306E+03  0.47000000000E+01 0. -1.
        -11    1    4    4    0    0 -0.49796102023E+02  0.30119029335E+02  0.46867594680E+01  0.58384701927E+02  0.00000000000E+00 0.  1.
         12    1    4    4    0    0 -0.59494299800E+02 -0.49119679853E+02 -0.20319273986E+02  0.79782125522E+02  0.00000000000E+00 0. -1.
         -5    1    5    5    0  502  0.10422806656E+03 -0.43784713664E+02  0.37820221822E+02  0.11930234779E+03  0.47000000000E+01 0.  1.
         11    1    6    6    0    0  0.58676927861E+02  0.29951802753E+02 -0.23622525250E+02  0.69986541924E+02  0.00000000000E+00 0. -1.
        -12    1    6    6    0    0  0.13146237333E+03 -0.45208698658E+02 -0.89665640199E+02  0.16542705059E+03  0.00000000000E+00 0.  1.
<mgrwt>
<rscale>  2 0.34611848E+03</rscale>
<asrwt>0</asrwt>
<pdfrwt beam="1">  1       21 0.51455670E-01 0.34659485E+03</pdfrwt>
<pdfrwt beam="2">  1       21 0.56545181E-01 0.34659485E+03</pdfrwt>
<totfact> 0.97441170E+03</totfact>
</mgrwt>
</event>
<event>
12    1  0.1026879E-001  0.1961259E+03  0.7546771E-02  0.1153374E+00
         21   -1    0    0  501  502  0.00000000000E+00  0.00000000000E+00  0.20023037570E+03  0.20023037570E+03  0.00000000000E+00 0. -1.
         21   -1    0    0  502  503 -0.00000000000E+00 -0.00000000000E+00 -0.19619593148E+03  0.19619593148E+03  0.00000000000E+00 0. -1.
         -6    2    1    2    0  503 -0.47886306776E+02  0.78458137045E+02 -0.31335676206E+02  0.19713657132E+03  0.17155793629E+03 0.  0.
        -24    2    3    3    0    0  0.32160695132E+02  0.13099031912E+02 -0.35587241832E+02  0.93601548509E+02  0.79302604962E+02 0.  0.
          6    2    1    2  501    0  0.47886306776E+02 -0.78458137045E+02  0.35370120430E+02  0.19928973586E+03  0.17325292423E+03 0.  0.
         24    2    5    5    0    0  0.36945500405E+02 -0.12136959052E+03  0.17062785920E+02  0.15114056577E+03  0.80354119082E+02 0.  0.
          5    1    5    5  501    0  0.10940806371E+02  0.42911453476E+02  0.18307334510E+02  0.48149170090E+02  0.47000000000E+01 0. -1.
        -13    1    6    6    0    0 -0.85799715076E+01  0.87331512069E+01 -0.62607033319E-01  0.12242865707E+02  0.00000000000E+00 0.  1.
         14    1    6    6    0    0  0.45525471913E+02 -0.13010274173E+03  0.17125392953E+02  0.13889770006E+03  0.00000000000E+00 0. -1.
         -5    1    3    3    0  503 -0.80047001908E+02  0.65359105133E+02  0.42515656256E+01  0.10353502281E+03  0.47000000000E+01 0.  1.
         11    1    4    4    0    0 -0.63274870464E+01  0.38758408109E+02 -0.23596473226E+02  0.45815334116E+02  0.00000000000E+00 0. -1.
        -12    1    4    4    0    0  0.38488182178E+02 -0.25659376198E+02 -0.11990768606E+02  0.47786214393E+02  0.00000000000E+00 0.  1.
<mgrwt>
<rscale>  2 0.19575086E+03</rscale>
<asrwt>0</asrwt>
<pdfrwt beam="1">  1       21 0.30804673E-01 0.19612586E+03</pdfrwt>
<pdfrwt beam="2">  1       21 0.30183989E-01 0.19612586E+03</pdfrwt>
<totfact> 0.10641663E+05</totfact>
</mgrwt>
</event>
<event>
12    1  0.1026879E-001  0.1945035E+03  0.7546771E-02  0.1155037E+00
         21   -1    0    0  501  502  0.00000000000E+00  0.00000000000E+00  0.49943179825E+03  0.49943179825E+03  0.00000000000E+00 0. -1.
         21   -1    0    0  502  503 -0.00000000000E+00 -0.00000000000E+00 -0.11276441343E+03  0.11276441343E+03  0.00000000000E+00 0. -1.
         -6    2    1    2    0  503  0.66367204074E+01  0.84147302724E+02  0.16441750559E+02  0.19519721263E+03  0.17523357567E+03 0.  0.
        -24    2    3    3    0    0 -0.38150486186E+02  0.56458249097E+01 -0.27965191867E+02  0.94388272402E+02  0.81484716823E+02 0.  0.
          6    2    1    2  501    0 -0.66367204074E+01 -0.84147302724E+02  0.37022563426E+03  0.41699899905E+03  0.17232623228E+03 0.  0.
         24    2    5    5    0    0 -0.37893518338E+02  0.94815177366E+01  0.10462631227E+03  0.13361157294E+03  0.73345547191E+02 0.  0.
          5    1    5    5  501    0  0.31256797931E+02 -0.93628820460E+02  0.26559932199E+03  0.28338742611E+03  0.47000000000E+01 0. -1.
        -13    1    6    6    0    0 -0.34403822851E+02  0.32769804028E+02  0.98374455891E+02  0.10924750182E+03  0.00000000000E+00 0.  1.
         14    1    6    6    0    0 -0.34896954874E+01 -0.23288286292E+02  0.62518563782E+01  0.24364071112E+02  0.00000000000E+00 0. -1.
         -5    1    3    3    0  503  0.44787206593E+02  0.78501477814E+02  0.44406942425E+02  0.10080894022E+03  0.47000000000E+01 0.  1.
         11    1    4    4    0    0 -0.57539319067E+02  0.24901636864E+02 -0.17150848445E+02  0.65000125843E+02  0.00000000000E+00 0. -1.
        -12    1    4    4    0    0  0.19388832881E+02 -0.19255811955E+02 -0.10814343422E+02  0.29388146559E+02  0.00000000000E+00 0.  1.
<mgrwt>
<rscale>  2 0.19384641E+03</rscale>
<asrwt>0</asrwt>
<pdfrwt beam="1">  1       21 0.76835660E-01 0.19450352E+03</pdfrwt>
<pdfrwt beam="2">  1       21 0.17348372E-01 0.19450352E+03</pdfrwt>
<totfact> 0.45224989E+04</totfact>
</mgrwt>
</event>
<event>
12    1  0.1026879E-001  0.1770810E+03  0.7546771E-02  0.1170906E+00
         21   -1    0    0  501  502  0.00000000000E+00  0.00000000000E+00  0.41235461994E+02  0.41235461994E+02  0.00000000000E+00 0.  1.
         21   -1    0    0  502  503 -0.00000000000E+00 -0.00000000000E+00 -0.78498794870E+03  0.78498794870E+03  0.00000000000E+00 0.  1.
         -6    2    1    2    0  503 -0.87568045650E+01  0.36050851220E+02 -0.29171393066E+03  0.34073753310E+03  0.17212990334E+03 0.  0.
        -24    2    3    3    0    0  0.53418136808E+02  0.93650452144E+01 -0.22710173601E+03  0.24706426437E+03  0.80773453690E+02 0.  0.
          6    2    1    2  501    0  0.87568045650E+01 -0.36050851220E+02 -0.45203855605E+03  0.48548587759E+03  0.17315119314E+03 0.  0.
         24    2    5    5    0    0  0.29235455673E+02 -0.86243929313E+02 -0.33547781303E+03  0.35684989097E+03  0.80645858177E+02 0.  0.
          5    1    5    5  501    0 -0.20478651108E+02  0.50193078093E+02 -0.11656074302E+03  0.12863598661E+03  0.47000000000E+01 0. -1.
        -11    1    6    6    0    0  0.26108902535E+02 -0.66523011037E+02 -0.32773195084E+03  0.33543288060E+03  0.00000000000E+00 0.  1.
         12    1    6    6    0    0  0.31265531381E+01 -0.19720918276E+02 -0.77458621925E+01  0.21417010372E+02  0.00000000000E+00 0. -1.
         -5    1    3    3    0  503 -0.62174941373E+02  0.26685806006E+02 -0.64612194650E+02  0.93673268729E+02  0.47000000000E+01 0.  1.
         13    1    4    4    0    0 -0.10076137856E+02  0.28393575325E+02 -0.56357909961E+02  0.63905693714E+02  0.00000000000E+00 0. -1.
        -14    1    4    4    0    0  0.63494274664E+02 -0.19028530111E+02 -0.17074382605E+03  0.18315857066E+03  0.00000000000E+00 0.  1.
<mgrwt>
<rscale>  2 0.17683085E+03</rscale>
<asrwt>0</asrwt>
<pdfrwt beam="1">  1       21 0.63439179E-02 0.17708100E+03</pdfrwt>
<pdfrwt beam="2">  1       21 0.12076736E+00 0.17708100E+03</pdfrwt>
<totfact> 0.93800166E+04</totfact>
</mgrwt>
</event>
<event>
12    1  0.1026879E-001  0.1906476E+03  0.7546771E-02  0.1160784E+00
         21   -1    0    0  503  502  0.00000000000E+00  0.00000000000E+00  0.35618049317E+03  0.35618049317E+03  0.00000000000E+00 0. -1.
         21   -1    0    0  501  503 -0.00000000000E+00 -0.00000000000E+00 -0.22547198785E+03  0.22547198785E+03  0.00000000000E+00 0. -1.
          6    2    1    2  501    0 -0.52177846094E+02  0.50435835073E+02 -0.15448416712E+03  0.24538104076E+03  0.17629576340E+03 0.  0.
         24    2    3    3    0    0 -0.28797290657E+02  0.53400252454E+02 -0.12734353597E+02  0.10160851983E+03  0.80506252107E+02 0.  0.
         -6    2    1    2    0  502  0.52177846094E+02 -0.50435835073E+02  0.28519267243E+03  0.33627144027E+03  0.16271853013E+03 0.  0.
        -24    2    5    5    0    0  0.53427378286E+02 -0.75898018753E+02  0.28515010683E+03  0.31034894154E+03  0.79943030296E+02 0.  0.
          5    1    3    3  501    0 -0.23380555437E+02 -0.29644173808E+01 -0.14174981352E+03  0.14377252093E+03  0.47000000000E+01 0. -1.
        -11    1    4    4    0    0 -0.43426276612E+02 -0.20304544297E+01 -0.59953619736E+01  0.43885175296E+02  0.00000000000E+00 0.  1.
         12    1    4    4    0    0  0.14628985954E+02  0.55430706884E+02 -0.67389916238E+01  0.57723344530E+02  0.00000000000E+00 0. -1.
         -5    1    5    5    0  502 -0.12495321922E+01  0.25462183679E+02  0.42565609122E-01  0.25922498727E+02  0.47000000000E+01 0.  1.
         13    1    6    6    0    0 -0.17235623303E+02 -0.19017603916E+02  0.11169582334E+03  0.11460668794E+03  0.00000000000E+00 0. -1.
        -14    1    6    6    0    0  0.70663001588E+02 -0.56880414836E+02  0.17345428349E+03  0.19574225360E+03  0.00000000000E+00 0.  1.
<mgrwt>
<rscale>  2 0.18744787E+03</rscale>
<asrwt>0</asrwt>
<pdfrwt beam="1">  1       21 0.54796999E-01 0.19064757E+03</pdfrwt>
<pdfrwt beam="2">  1       21 0.34687998E-01 0.19064757E+03</pdfrwt>
<totfact> 0.25211274E+04</totfact>
</mgrwt>
</event>
<event>
12    1  0.1026879E-001  0.1842667E+03  0.7546771E-02  0.1164604E+00
         21   -1    0    0  501  502  0.00000000000E+00  0.00000000000E+00  0.22535533976E+03  0.22535533976E+03  0.00000000000E+00 0. -1.
         21   -1    0    0  502  503 -0.00000000000E+00 -0.00000000000E+00 -0.18981007007E+03  0.18981007007E+03  0.00000000000E+00 0. -1.
         -6    2    1    2    0  503 -0.22283365452E+02 -0.49955751961E+02 -0.79865061412E+02  0.20082991848E+03  0.17596051430E+03 0.  0.
        -24    2    3    3    0    0 -0.38192186024E+02 -0.95260593819E+02 -0.79539040149E+02  0.15258247754E+03  0.80135695764E+02 0.  0.
          6    2    1    2  501    0  0.22283365452E+02  0.49955751961E+02  0.11541033111E+03  0.21433549134E+03  0.17212795471E+03 0.  0.
         24    2    5    5    0    0 -0.19162209596E+02 -0.27514256726E+02  0.84047080971E+02  0.12092734718E+03  0.80220239820E+02 0.  0.
          5    1    5    5  501    0  0.41445575048E+02  0.77470008687E+02  0.31363250136E+02  0.93408144163E+02  0.47000000000E+01 0. -1.
        -13    1    6    6    0    0 -0.19362187255E+02  0.25647692158E+02  0.20686246364E+02  0.38218048053E+02  0.00000000000E+00 0.  1.
         14    1    6    6    0    0  0.19997765878E+00 -0.53161948884E+02  0.63360834607E+02  0.82709299129E+02  0.00000000000E+00 0. -1.
         -5    1    3    3    0  503  0.15908820572E+02  0.45304841858E+02 -0.32602126338E+00  0.48247440944E+02  0.47000000000E+01 0.  1.
         11    1    4    4    0    0 -0.45969652581E+02 -0.30424028346E+02 -0.79694897599E+01  0.55698682446E+02  0.00000000000E+00 0. -1.
        -12    1    4    4    0    0  0.77774665572E+01 -0.64836565473E+02 -0.71569550389E+02  0.96883795091E+02  0.00000000000E+00 0.  1.
<mgrwt>
<rscale>  2 0.18334580E+03</rscale>
<asrwt>0</asrwt>
<pdfrwt beam="1">  1       21 0.34670052E-01 0.18426673E+03</pdfrwt>
<pdfrwt beam="2">  1       21 0.29201549E-01 0.18426673E+03</pdfrwt>
<totfact> 0.90346606E+04</totfact>
</mgrwt>
</event>
<event>
12    1  0.1026879E-001  0.2071105E+03  0.7546771E-02  0.1144125E+00
         21   -1    0    0  503  502  0.00000000000E+00  0.00000000000E+00  0.10881219775E+03  0.10881219775E+03  0.00000000000E+00 0. -1.
         21   -1    0    0  501  503 -0.00000000000E+00 -0.00000000000E+00 -0.46293445120E+03  0.46293445120E+03  0.00000000000E+00 0. -1.
          6    2    1    2  501    0  0.11153544214E+03 -0.37216268777E+01 -0.28952408963E+03  0.35597608798E+03  0.17447283852E+03 0.  0.
         24    2    3    3    0    0  0.76548841889E+02  0.63504901246E+02 -0.21227386903E+03  0.24765639973E+03  0.79880530660E+02 0.  0.
         -6    2    1    2    0  502 -0.11153544214E+03  0.37216268777E+01 -0.64598163818E+02  0.21577056097E+03  0.17300290996E+03 0.  0.
        -24    2    5    5    0    0 -0.12875281415E+03  0.81879150331E-01 -0.34238664864E+01  0.15194211655E+03  0.80606389724E+02 0.  0.
          5    1    3    3  501    0  0.34986600247E+02 -0.67226528123E+02 -0.77250220594E+02  0.10831968825E+03  0.47000000000E+01 0. -1.
        -13    1    4    4    0    0 -0.16537799739E+02  0.61989891411E+01 -0.38542831669E+02  0.42396652694E+02  0.00000000000E+00 0.  1.
         14    1    4    4    0    0  0.93086641628E+02  0.57305912105E+02 -0.17373103736E+03  0.20525974704E+03  0.00000000000E+00 0. -1.
         -5    1    5    5    0  502  0.17217372017E+02  0.36397477273E+01 -0.61174297332E+02  0.63828444417E+02  0.47000000000E+01 0.  1.
         11    1    6    6    0    0 -0.80767472688E+02 -0.39291631703E+02 -0.30525423770E+01  0.89869544236E+02  0.00000000000E+00 0. -1.
        -12    1    6    6    0    0 -0.47985341464E+02  0.39373510853E+02 -0.37132410947E+00  0.62072572316E+02  0.00000000000E+00 0.  1.
<mgrwt>
<rscale>  2 0.20680066E+03</rscale>
<asrwt>0</asrwt>
<pdfrwt beam="1">  1       21 0.16740338E-01 0.20711054E+03</pdfrwt>
<pdfrwt beam="2">  1       21 0.71220685E-01 0.20711054E+03</pdfrwt>
<totfact> 0.56842939E+04</totfact>
</mgrwt>
</event>
<event>
12    1  0.1026879E-001  0.2131893E+03  0.7546771E-02  0.1139213E+00
         21   -1    0    0  501  502  0.00000000000E+00  0.00000000000E+00  0.22979900169E+03  0.22979900169E+03  0.00000000000E+00 0. -1.
         21   -1    0    0  502  503 -0.00000000000E+00 -0.00000000000E+00 -0.26047966624E+03  0.26047966624E+03  0.00000000000E+00 0. -1.
         -6    2    1    2    0  503 -0.11322957805E+03 -0.50026751250E+02 -0.13630650124E+03  0.25303978422E+03  0.17356859432E+03 0.  0.
        -24    2    3    3    0    0 -0.12061769660E+03 -0.28857333405E+02 -0.16129789796E+03  0.21913715221E+03  0.81380004722E+02 0.  0.
          6    2    1    2  501    0  0.11322957805E+03  0.50026751250E+02  0.10562583669E+03  0.23723888370E+03  0.17263214467E+03 0.  0.
         24    2    5    5    0    0  0.51583382538E+02 -0.31121053246E+02  0.88533024016E+02  0.13380062269E+03  0.80219355396E+02 0.  0.
          5    1    5    5  501    0  0.61646195516E+02  0.81147804496E+02  0.17092812673E+02  0.10343826101E+03  0.47000000000E+01 0. -1.
        -11    1    6    6    0    0 -0.22665306032E+01  0.12544129867E+02  0.55609030786E+02  0.57051351080E+02  0.00000000000E+00 0.  1.
         12    1    6    6    0    0  0.53849913142E+02 -0.43665183113E+02  0.32923993230E+02  0.76749271605E+02  0.00000000000E+00 0. -1.
         -5    1    3    3    0  503  0.73881185408E+01 -0.21169417845E+02  0.24991396721E+02  0.33902632015E+02  0.47000000000E+01 0.  1.
         13    1    4    4    0    0 -0.63276290554E+02 -0.41990336295E+02 -0.43625780732E+02  0.87580169176E+02  0.00000000000E+00 0. -1.
        -14    1    4    4    0    0 -0.57341406042E+02  0.13133002889E+02 -0.11767211723E+03  0.13155698303E+03  0.00000000000E+00 0.  1.
<mgrwt>
<rscale>  2 0.21299860E+03</rscale>
<asrwt>0</asrwt>
<pdfrwt beam="1">  1       21 0.35353693E-01 0.21318928E+03</pdfrwt>
<pdfrwt beam="2">  1       21 0.40073795E-01 0.21318928E+03</pdfrwt>
<totfact> 0.45827957E+04</totfact>
</mgrwt>
</event>
<event>
12    1  0.1026879E-001  0.2103042E+03  0.7546771E-02  0.1141490E+00
         21   -1    0    0  501  502  0.00000000000E+00  0.00000000000E+00  0.50717046911E+03  0.50717046911E+03  0.00000000000E+00 0. -1.
         21   -1    0    0  502  503 -0.00000000000E+00 -0.00000000000E+00 -0.14092156897E+03  0.14092156897E+03  0.00000000000E+00 0. -1.
         -6    2    1    2    0  503 -0.20114873540E+02  0.11547176047E+03 -0.17805693396E+02  0.21022701946E+03  0.17360881714E+03 0.  0.
        -24    2    3    3    0    0 -0.64168755698E+01  0.15120955474E+03 -0.16879819118E+02  0.17165536755E+03  0.79215725591E+02 0.  0.
          6    2    1    2  501    0  0.20114873540E+02 -0.11547176047E+03  0.38405459354E+03  0.43786501862E+03  0.17461245119E+03 0.  0.
         24    2    5    5    0    0 -0.54297501889E+02 -0.44227691349E+02  0.17887599973E+03  0.20822777348E+03  0.80360904508E+02 0.  0.
          5    1    5    5  501    0  0.74412375429E+02 -0.71244069118E+02  0.20517859381E+03  0.22963724515E+03  0.47000000000E+01 0. -1.
        -11    1    6    6    0    0  0.15095995284E+02  0.11127739137E+01  0.55902920908E+01  0.16136254369E+02  0.00000000000E+00 0.  1.
         12    1    6    6    0    0 -0.69393497173E+02 -0.45340465263E+02  0.17328570764E+03  0.19209151911E+03  0.00000000000E+00 0. -1.
         -5    1    3    3    0  503 -0.13697997970E+02 -0.35737794268E+02 -0.92587427790E+00  0.38571651906E+02  0.47000000000E+01 0.  1.
         11    1    4    4    0    0 -0.19551141941E+02  0.74714688267E+02  0.27821448604E+02  0.82088761694E+02  0.00000000000E+00 0. -1.
        -12    1    4    4    0    0  0.13134266371E+02  0.76494866468E+02 -0.44701267722E+02  0.89566605858E+02  0.00000000000E+00 0.  1.
<mgrwt>
<rscale>  2 0.21009572E+03</rscale>
<asrwt>0</asrwt>
<pdfrwt beam="1">  1       21 0.78026225E-01 0.21030417E+03</pdfrwt>
<pdfrwt beam="2">  1       21 0.21680242E-01 0.21030417E+03</pdfrwt>
<totfact> 0.28588832E+04</totfact>
</mgrwt>
</event>
<event>
12    1  0.1026879E-001  0.2327738E+03  0.7546771E-02  0.1124714E+00
         21   -1    0    0  503  502  0.00000000000E+00  0.00000000000E+00  0.12664396085E+03  0.12664396085E+03  0.00000000000E+00 0.  1.
         21   -1    0    0  501  503 -0.00000000000E+00 -0.00000000000E+00 -0.63318053539E+03  0.63318053539E+03  0.00000000000E+00 0.  1.
          6    2    1    2  501    0  0.10384425269E+03 -0.11570781753E+03 -0.46965832897E+03  0.52414753956E+03  0.17314667018E+03 0.  0.
         24    2    3    3    0    0  0.76190809817E+02 -0.71001987427E+02 -0.44580869444E+03  0.46623191804E+03  0.88207072536E+02 0.  0.
         -6    2    1    2    0  502 -0.10384425269E+03  0.11570781753E+03 -0.36878245568E+02  0.23567695669E+03  0.17323883820E+03 0.  0.
        -24    2    5    5    0    0 -0.95397453983E+02  0.91529904786E+01 -0.29786672744E+02  0.12844981469E+03  0.80172673392E+02 0.  0.
          5    1    3    3  501    0  0.27653442877E+02 -0.44705830101E+02 -0.23849634535E+02  0.57915621515E+02  0.47000000000E+01 0. -1.
        -13    1    4    4    0    0  0.66856011317E+02 -0.47620198215E+01 -0.17817317016E+03  0.19036302595E+03  0.00000000000E+00 0.  1.
         14    1    4    4    0    0  0.93347985002E+01 -0.66239967606E+02 -0.26763552427E+03  0.27586889209E+03  0.00000000000E+00 0. -1.
         -5    1    5    5    0  502 -0.84467987108E+01  0.10655482705E+03 -0.70915728243E+01  0.10722714200E+03  0.47000000000E+01 0.  1.
         13    1    6    6    0    0  0.55806194446E+00  0.57024196713E+01  0.19639073290E+02  0.20457815693E+02  0.00000000000E+00 0. -1.
        -14    1    6    6    0    0 -0.95955515928E+02  0.34505708074E+01 -0.49425746033E+02  0.10799199899E+03  0.00000000000E+00 0.  1.
<mgrwt>
<rscale>  2 0.23275661E+03</rscale>
<asrwt>0</asrwt>
<pdfrwt beam="1">  1       21 0.19483686E-01 0.23277376E+03</pdfrwt>
<pdfrwt beam="2">  1       21 0.97412391E-01 0.23277376E+03</pdfrwt>
<totfact> 0.20680744E+04</totfact>
</mgrwt>
</event>
<event>
12    1  0.1026879E-001  0.1749500E+03  0.7546771E-02  0.1172841E+00
         21   -1    0    0  503  502  0.00000000000E+00  0.00000000000E+00  0.12436777073E+03  0.12436777073E+03  0.00000000000E+00 0. -1.
         21   -1    0    0  501  503 -0.00000000000E+00 -0.00000000000E+00 -0.24577308216E+03  0.24577308216E+03  0.00000000000E+00 0. -1.
          6    2    1    2  501    0 -0.24063675239E+02 -0.88272929010E+01 -0.60805282254E+02  0.18521551833E+03  0.17306219782E+03 0.  0.
         24    2    3    3    0    0 -0.70698493497E+02 -0.44402526503E+02 -0.38043195120E+02  0.12212347343E+03  0.80603949808E+02 0.  0.
         -6    2    1    2    0  502  0.24063675239E+02  0.88272929010E+01 -0.60600029175E+02  0.18492533455E+03  0.17282370861E+03 0.  0.
        -24    2    5    5    0    0  0.19310140087E+02  0.58646614304E+02  0.80609848542E+01  0.99831352809E+02  0.78032125739E+02 0.  0.
          5    1    3    3  501    0  0.46634818257E+02  0.35575233602E+02 -0.22762087134E+02  0.63092044906E+02  0.47000000000E+01 0. -1.
        -13    1    4    4    0    0 -0.31926150796E+02  0.19236440708E+02  0.23732490182E+01  0.37349057105E+02  0.00000000000E+00 0.  1.
         14    1    4    4    0    0 -0.38772342701E+02 -0.63638967210E+02 -0.40416444138E+02  0.84774416323E+02  0.00000000000E+00 0. -1.
         -5    1    5    5    0  502  0.47535351526E+01 -0.49819321403E+02 -0.68661014029E+02  0.85093981744E+02  0.47000000000E+01 0.  1.
         13    1    6    6    0    0  0.25705032317E+02 -0.92200681091E+01  0.15263321090E+02  0.31284617835E+02  0.00000000000E+00 0. -1.
        -14    1    6    6    0    0 -0.63948922304E+01  0.67866682413E+02 -0.72023362362E+01  0.68546734974E+02  0.00000000000E+00 0.  1.
<mgrwt>
<rscale>  2 0.17489100E+03</rscale>
<asrwt>0</asrwt>
<pdfrwt beam="1">  1       21 0.19133503E-01 0.17495001E+03</pdfrwt>
<pdfrwt beam="2">  1       21 0.37811243E-01 0.17495001E+03</pdfrwt>
<totfact> 0.17003486E+05</totfact>
</mgrwt>
</event>
<event>
12    1  0.1026879E-001  0.1765679E+03  0.7546771E-02  0.1172843E+00
         21   -1    0    0  503  502  0.00000000000E+00  0.00000000000E+00  0.23189564877E+03  0.23189564877E+03  0.00000000000E+00 0. -1.
         21   -1    0    0  501  503 -0.00000000000E+00 -0.00000000000E+00 -0.55309694384E+03  0.55309694384E+03  0.00000000000E+00 0. -1.
          6    2    1    2  501    0 -0.11004544265E+02 -0.26926749909E+02 -0.50337719670E+03  0.53129145753E+03  0.16743912576E+03 0.  0.
         24    2    3    3    0    0 -0.65086372691E+02 -0.45189067699E+02 -0.27311008175E+03  0.29400810235E+03  0.74654937860E+02 0.  0.
         -6    2    1    2    0  502  0.11004544265E+02  0.26926749909E+02  0.18217590163E+03  0.25370113507E+03  0.17415526677E+03 0.  0.
        -24    2    5    5    0    0 -0.30341060379E+00 -0.25838001802E+02  0.18039933607E+03  0.19950487089E+03  0.81182378987E+02 0.  0.
          5    1    3    3  501    0  0.54081828427E+02  0.18262317789E+02 -0.23026711495E+03  0.23728335518E+03  0.47000000000E+01 0. -1.
        -13    1    4    4    0    0 -0.23317196973E+02  0.17777633269E+02 -0.11634552916E+03  0.11998340750E+03  0.00000000000E+00 0.  1.
         14    1    4    4    0    0 -0.41769175719E+02 -0.62966700968E+02 -0.15676455259E+03  0.17402469486E+03  0.00000000000E+00 0. -1.
         -5    1    5    5    0  502  0.11307954868E+02  0.52764751711E+02  0.17765655669E+01  0.54196264185E+02  0.47000000000E+01 0.  1.
         11    1    6    6    0    0  0.27795507507E+02 -0.42751389886E+02  0.12677889946E+03  0.13664977469E+03  0.00000000000E+00 0. -1.
        -12    1    6    6    0    0 -0.28098918111E+02  0.16913388085E+02  0.53620436606E+02  0.62855096192E+02  0.00000000000E+00 0.  1.
<mgrwt>
<rscale>  2 0.17488886E+03</rscale>
<asrwt>0</asrwt>
<pdfrwt beam="1">  1       21 0.35676254E-01 0.17656785E+03</pdfrwt>
<pdfrwt beam="2">  1       21 0.85091836E-01 0.17656785E+03</pdfrwt>
<totfact> 0.91606626E+03</totfact>
</mgrwt>
</event>
<event>
12    1  0.1026879E-001  0.1957155E+03  0.7546771E-02  0.1154094E+00
         21   -1    0    0  503  502  0.00000000000E+00  0.00000000000E+00  0.21095742078E+03  0.21095742078E+03  0.00000000000E+00 0. -1.
         21   -1    0    0  501  503 -0.00000000000E+00 -0.00000000000E+00 -0.27106506609E+03  0.27106506609E+03  0.00000000000E+00 0. -1.
          6    2    1    2  501    0  0.78880001594E+02 -0.34028711330E+02 -0.17060315193E+03  0.25726967535E+03  0.17234338560E+03 0.  0.
         24    2    3    3    0    0  0.37688936085E+02  0.35254598277E+02 -0.41150737415E+02  0.10470199040E+03  0.81275955858E+02 0.  0.
         -6    2    1    2    0  502 -0.78880001594E+02  0.34028711330E+02  0.11049550662E+03  0.22475281152E+03  0.17585380705E+03 0.  0.
        -24    2    5    5    0    0 -0.57693944993E+02  0.76365493285E+02  0.12264748553E+03  0.17565074749E+03  0.81550594918E+02 0.  0.
          5    1    3    3  501    0  0.41191065509E+02 -0.69283309607E+02 -0.12945241452E+03  0.15256768495E+03  0.47000000000E+01 0. -1.
        -11    1    4    4    0    0  0.10634047424E+02 -0.10773564763E+01  0.23467821579E+02  0.25787250944E+02  0.00000000000E+00 0.  1.
         12    1    4    4    0    0  0.27054888661E+02  0.36331954753E+02 -0.64618558994E+02  0.78914739454E+02  0.00000000000E+00 0. -1.
         -5    1    5    5    0  502 -0.21186056601E+02 -0.42336781955E+02 -0.12151978911E+02  0.49102064031E+02  0.47000000000E+01 0.  1.
         11    1    6    6    0    0 -0.72109432528E+02  0.41576686695E+02  0.10520247581E+03  0.13414899200E+03  0.00000000000E+00 0. -1.
        -12    1    6    6    0    0  0.14415487534E+02  0.34788806590E+02  0.17445009721E+02  0.41501755493E+02  0.00000000000E+00 0.  1.
<mgrwt>
<rscale>  2 0.19492374E+03</rscale>
<asrwt>0</asrwt>
<pdfrwt beam="1">  1       21 0.32454988E-01 0.19571553E+03</pdfrwt>
<pdfrwt beam="2">  1       21 0.41702318E-01 0.19571553E+03</pdfrwt>
<totfact> 0.50496689E+04</totfact>
</mgrwt>
</event>
<event>
12    1  0.1026879E-001  0.1879246E+03  0.7546771E-02  0.1160386E+00
         21   -1    0    0  503  502  0.00000000000E+00  0.00000000000E+00  0.30319794074E+04  0.30319794074E+04  0.00000000000E+00 0.  1.
         21   -1    0    0  501  503 -0.00000000000E+00 -0.00000000000E+00 -0.32864228602E+02  0.32864228602E+02  0.00000000000E+00 0. -1.
          6    2    1    2  501    0 -0.69457992567E+02  0.20778343045E+02  0.26822039955E+03  0.32750240850E+03  0.17337673594E+03 0.  0.
         24    2    3    3    0    0 -0.18164264157E+02 -0.60275241841E+02  0.14487635446E+03  0.17118038940E+03  0.65958489676E+02 0.  0.
         -6    2    1    2    0  502  0.69457992567E+02 -0.20778343045E+02  0.27308947793E+04  0.27373412275E+04  0.17318934207E+03 0.  0.
        -24    2    5    5    0    0  0.79377131703E+02  0.96924352082E+01  0.26036136735E+04  0.26060041515E+04  0.77838323177E+02 0.  0.
          5    1    3    3  501    0 -0.51293728410E+02  0.81053584886E+02  0.12334404509E+03  0.15632201910E+03  0.47000000000E+01 0. -1.
        -11    1    4    4    0    0  0.41175347261E+01 -0.40152988153E+02  0.13283588682E+03  0.13883295494E+03  0.00000000000E+00 0.  1.
         12    1    4    4    0    0 -0.22281798883E+02 -0.20122253687E+02  0.12040467642E+02  0.32347434457E+02  0.00000000000E+00 0. -1.
         -5    1    5    5    0  502 -0.99191391360E+01 -0.30470778253E+02  0.12728110576E+03  0.13133707600E+03  0.47000000000E+01 0.  1.
         11    1    6    6    0    0  0.20404586333E+02 -0.25609512237E+02  0.40685919240E+03  0.40817471345E+03  0.00000000000E+00 0. -1.
        -12    1    6    6    0    0  0.58972545370E+02  0.35301947445E+02  0.21967544811E+04  0.21978294381E+04  0.00000000000E+00 0.  1.
<mgrwt>
<rscale>  2 0.18788134E+03</rscale>
<asrwt>0</asrwt>
<pdfrwt beam="1">  1       21 0.46645815E+00 0.18792457E+03</pdfrwt>
<pdfrwt beam="2">  1       21 0.50560375E-02 0.18792457E+03</pdfrwt>
<totfact> 0.85877794E+02</totfact>
</mgrwt>
</event>
<event>
12    1  0.1026879E-001  0.3389418E+03  0.7546771E-02  0.1067253E+00
         21   -1    0    0  501  502  0.00000000000E+00  0.00000000000E+00  0.59558631740E+03  0.59558631740E+03  0.00000000000E+00 0.  1.
         21   -1    0    0  502  503 -0.00000000000E+00 -0.00000000000E+00 -0.64440290434E+03  0.64440290434E+03  0.00000000000E+00 0. -1.
         -6    2    1    2    0  503 -0.22658790749E+03  0.18321844989E+03 -0.54339766548E+03  0.64043937678E+03  0.17311987837E+03 0.  0.
        -24    2    3    3    0    0 -0.14825905158E+03  0.37249864768E+02 -0.28413642067E+03  0.33273705217E+03  0.81315075706E+02 0.  0.
          6    2    1    2  501    0  0.22658790749E+03 -0.18321844989E+03  0.49458107854E+03  0.59954984496E+03  0.17302743465E+03 0.  0.
         24    2    5    5    0    0  0.98294348943E+02 -0.15650761448E+03  0.35410270725E+03  0.40738073014E+03  0.80086950105E+02 0.  0.
          5    1    5    5  501    0  0.12829355855E+03 -0.26710835409E+02  0.14047837128E+03  0.19216911482E+03  0.47000000000E+01 0. -1.
        -13    1    6    6    0    0  0.50730373602E+02 -0.74990706497E+02  0.25468740862E+03  0.27030141134E+03  0.00000000000E+00 0.  1.
         14    1    6    6    0    0  0.47563975341E+02 -0.81516907982E+02  0.99415298638E+02  0.13707931879E+03  0.00000000000E+00 0. -1.
         -5    1    3    3    0  503 -0.78328855908E+02  0.14596858512E+03 -0.25926124481E+03  0.30770232461E+03  0.47000000000E+01 0.  1.
         13    1    4    4    0    0 -0.12285474756E+03  0.45939325151E+02 -0.27447162309E+03  0.30420122037E+03  0.00000000000E+00 0. -1.
        -14    1    4    4    0    0 -0.25404304019E+02 -0.86894603835E+01 -0.96647975822E+01  0.28535831804E+02  0.00000000000E+00 0.  1.
<mgrwt>
<rscale>  2 0.33893004E+03</rscale>
<asrwt>0</asrwt>
<pdfrwt beam="1">  1       21 0.91628664E-01 0.33894184E+03</pdfrwt>
<pdfrwt beam="2">  1       21 0.99138908E-01 0.33894184E+03</pdfrwt>
<totfact> 0.75323173E+02</totfact>
</mgrwt>
</event>
<event>
12    1  0.1026879E-001  0.2467386E+03  0.7546771E-02  0.1115907E+00
         21   -1    0    0  501  502  0.00000000000E+00  0.00000000000E+00  0.52224284540E+03  0.52224284540E+03  0.00000000000E+00 0. -1.
         21   -1    0    0  502  503 -0.00000000000E+00 -0.00000000000E+00 -0.13204087442E+03  0.13204087442E+03  0.00000000000E+00 0.  1.
         -6    2    1    2    0  503  0.15796068114E+03  0.68007985971E+02  0.78873918730E+02  0.25903868730E+03  0.17692733966E+03 0.  0.
        -24    2    3    3    0    0  0.15481205353E+03  0.80915108814E+02  0.11264613304E+03  0.22244415034E+03  0.79235231948E+02 0.  0.
          6    2    1    2  501    0 -0.15796068114E+03 -0.68007985971E+02  0.31132805225E+03  0.39524503252E+03  0.17238566260E+03 0.  0.
         24    2    5    5    0    0 -0.16921584581E+03 -0.97668577330E+02  0.26382819665E+03  0.33793224430E+03  0.80123223352E+02 0.  0.
          5    1    5    5  501    0  0.11255164665E+02  0.29660591359E+02  0.47499855593E+02  0.57312788213E+02  0.47000000000E+01 0. -1.
        -13    1    6    6    0    0 -0.19438572333E+02  0.12711389334E+02  0.45461133470E+02  0.51050486477E+02  0.00000000000E+00 0.  1.
         14    1    6    6    0    0 -0.14977727348E+03 -0.11037996666E+03  0.21836706318E+03  0.28688175783E+03  0.00000000000E+00 0. -1.
         -5    1    3    3    0  503  0.31486276131E+01 -0.12907122844E+02 -0.33772214306E+02  0.36594536957E+02  0.47000000000E+01 0.  1.
         13    1    4    4    0    0  0.15719052891E+03  0.90799300272E+02  0.10487306806E+03  0.20964669259E+03  0.00000000000E+00 0. -1.
        -14    1    4    4    0    0 -0.23784753798E+01 -0.98841914574E+01  0.77730649766E+01  0.12797457756E+02  0.00000000000E+00 0.  1.
<mgrwt>
<rscale>  2 0.24592559E+03</rscale>
<asrwt>0</asrwt>
<pdfrwt beam="1">  1       21 0.80345052E-01 0.24673862E+03</pdfrwt>
<pdfrwt beam="2">  1       21 0.20313981E-01 0.24673862E+03</pdfrwt>
<totfact> 0.29700327E+04</totfact>
</mgrwt>
</event>
<event>
12    1  0.1026879E-001  0.2124314E+03  0.7546771E-02  0.1139797E+00
         21   -1    0    0  501  502  0.00000000000E+00  0.00000000000E+00  0.66960980547E+02  0.66960980547E+02  0.00000000000E+00 0. -1.
         21   -1    0    0  502  503 -0.00000000000E+00 -0.00000000000E+00 -0.67161894466E+03  0.67161894466E+03  0.00000000000E+00 0. -1.
         -6    2    1    2    0  503 -0.10419578387E+03  0.63289650886E+02 -0.30175185161E+03  0.36860804567E+03  0.17307619738E+03 0.  0.
        -24    2    3    3    0    0 -0.30663445581E+02 -0.97030523235E+01 -0.21995664655E+03  0.23651911704E+03  0.80783477561E+02 0.  0.
          6    2    1    2  501    0  0.10419578387E+03 -0.63289650886E+02 -0.30290611250E+03  0.36997187953E+03  0.17396763310E+03 0.  0.
         24    2    5    5    0    0  0.89230071326E+02  0.24013815157E+02 -0.15524621310E+03  0.19771798661E+03  0.80326499984E+02 0.  0.
          5    1    5    5  501    0  0.14965712544E+02 -0.87303466043E+02 -0.14765989941E+03  0.17225389293E+03  0.47000000000E+01 0. -1.
        -11    1    6    6    0    0 -0.82725302782E+01  0.21754571686E+02 -0.18374340710E+02  0.29653204599E+02  0.00000000000E+00 0.  1.
         12    1    6    6    0    0  0.97502601604E+02  0.22592434708E+01 -0.13687187239E+03  0.16806478201E+03  0.00000000000E+00 0. -1.
         -5    1    3    3    0  503 -0.73532338289E+02  0.72992703209E+02 -0.81795205061E+02  0.13208892863E+03  0.47000000000E+01 0.  1.
         13    1    4    4    0    0  0.98418773701E+01 -0.43467262268E+00 -0.17508969574E+03  0.17536662466E+03  0.00000000000E+00 0. -1.
        -14    1    4    4    0    0 -0.40505322951E+02 -0.92683797008E+01 -0.44866950802E+02  0.61152492377E+02  0.00000000000E+00 0.  1.
<mgrwt>
<rscale>  2 0.21224876E+03</rscale>
<asrwt>0</asrwt>
<pdfrwt beam="1">  1       21 0.10301689E-01 0.21243135E+03</pdfrwt>
<pdfrwt beam="2">  1       21 0.10332600E+00 0.21243135E+03</pdfrwt>
<totfact> 0.57893415E+04</totfact>
</mgrwt>
</event>
<event>
12    1  0.1026879E-001  0.2929486E+03  0.7546771E-02  0.1088825E+00
         21   -1    0    0  501  502  0.00000000000E+00  0.00000000000E+00  0.12658759633E+03  0.12658759633E+03  0.00000000000E+00 0. -1.
         21   -1    0    0  502  503 -0.00000000000E+00 -0.00000000000E+00 -0.18589825970E+04  0.18589825970E+04  0.00000000000E+00 0. -1.
         -6    2    1    2    0  503 -0.23669842084E+03  0.88828054137E+00 -0.16575686289E+04  0.16832565616E+04  0.17260347946E+03 0.  0.
        -24    2    3    3    0    0 -0.15773371098E+03 -0.64119834368E+01 -0.69029201807E+03  0.71272327977E+03  0.80934332608E+02 0.  0.
          6    2    1    2  501    0  0.23669842084E+03 -0.88828054137E+00 -0.74826371726E+02  0.30231363171E+03  0.17253293756E+03 0.  0.
         24    2    5    5    0    0  0.13410322024E+03  0.59185353128E+02 -0.11675893410E+02  0.16761140619E+03  0.80440520230E+02 0.  0.
          5    1    5    5  501    0  0.10259520060E+03 -0.60073633669E+02 -0.63150478317E+02  0.13470222552E+03  0.47000000000E+01 0. -1.
        -11    1    6    6    0    0  0.15629912591E+01  0.25972986712E+01  0.19856982415E+02  0.20087026975E+02  0.00000000000E+00 0.  1.
         12    1    6    6    0    0  0.13254022898E+03  0.56588054456E+02 -0.31532875824E+02  0.14752437922E+03  0.00000000000E+00 0. -1.
         -5    1    3    3    0  503 -0.78964709862E+02  0.73002639782E+01 -0.96727661084E+03  0.97053328183E+03  0.47000000000E+01 0.  1.
         13    1    4    4    0    0 -0.12021908923E+03  0.24708397155E+02 -0.56731154080E+03  0.58043562833E+03  0.00000000000E+00 0. -1.
        -14    1    4    4    0    0 -0.37514621755E+02 -0.31120380592E+02 -0.12298047727E+03  0.13228765144E+03  0.00000000000E+00 0.  1.
<mgrwt>
<rscale>  2 0.29293823E+03</rscale>
<asrwt>0</asrwt>
<pdfrwt beam="1">  1       21 0.19475016E-01 0.29294862E+03</pdfrwt>
<pdfrwt beam="2">  1       21 0.28599730E+00 0.29294862E+03</pdfrwt>
<totfact> 0.89551924E+02</totfact>
</mgrwt>
</event>
<event>
12    1  0.1026879E-001  0.1886561E+03  0.7546771E-02  0.1159960E+00
         21   -1    0    0  503  502  0.00000000000E+00  0.00000000000E+00  0.72084817758E+03  0.72084817758E+03  0.00000000000E+00 0.  1.
         21   -1    0    0  501  503 -0.00000000000E+00 -0.00000000000E+00 -0.52721572021E+02  0.52721572021E+02  0.00000000000E+00 0. -1.
          6    2    1    2  501    0 -0.72100223690E+02  0.65794038947E+01  0.43508603996E+03  0.47373807280E+03  0.17287616561E+03 0.  0.
         24    2    3    3    0    0 -0.11016015439E+03 -0.24575958981E+01  0.25079447421E+03  0.28528198534E+03  0.79665823762E+02 0.  0.
         -6    2    1    2    0  502  0.72100223690E+02 -0.65794038947E+01  0.23304056559E+03  0.29983167680E+03  0.17421078724E+03 0.  0.
        -24    2    5    5    0    0  0.83164858224E+02 -0.37414430821E+02  0.23797785554E+03  0.26636987986E+03  0.77480448445E+02 0.  0.
          5    1    3    3  501    0  0.38059930698E+02  0.90369997929E+01  0.18429156575E+03  0.18845608745E+03  0.47000000000E+01 0. -1.
        -13    1    4    4    0    0 -0.11789283323E+03 -0.14213449392E+02  0.23918566808E+03  0.26704030798E+03  0.00000000000E+00 0.  1.
         14    1    4    4    0    0  0.77326788381E+01  0.11755853494E+02  0.11608806125E+02  0.18241677363E+02  0.00000000000E+00 0. -1.
         -5    1    5    5    0  502 -0.11064634534E+02  0.30835026926E+02 -0.49372899421E+01  0.33461796946E+02  0.47000000000E+01 0.  1.
         11    1    6    6    0    0  0.47068127295E+02 -0.34742122494E+02  0.56545454784E+02  0.81362227964E+02  0.00000000000E+00 0. -1.
        -12    1    6    6    0    0  0.36096730928E+02 -0.26723083265E+01  0.18143240075E+03  0.18500765189E+03  0.00000000000E+00 0.  1.
<mgrwt>
<rscale>  2 0.18834742E+03</rscale>
<asrwt>0</asrwt>
<pdfrwt beam="1">  1       21 0.11089971E+00 0.18865611E+03</pdfrwt>
<pdfrwt beam="2">  1       21 0.81110116E-02 0.18865611E+03</pdfrwt>
<totfact> 0.75158272E+04</totfact>
</mgrwt>
</event>
<event>
12    1  0.1026879E-001  0.3322073E+03  0.7546771E-02  0.1070186E+00
         21   -1    0    0  501  502  0.00000000000E+00  0.00000000000E+00  0.12980215873E+03  0.12980215873E+03  0.00000000000E+00 0.  1.
         21   -1    0    0  502  503 -0.00000000000E+00 -0.00000000000E+00 -0.15952053051E+04  0.15952053051E+04  0.00000000000E+00 0. -1.
         -6    2    1    2    0  503 -0.24048885258E+03  0.15036789285E+03 -0.13224289204E+04  0.13635174896E+04  0.17296330107E+03 0.  0.
        -24    2    3    3    0    0 -0.15511932130E+03  0.28241606897E+02 -0.63834580125E+03  0.66337851018E+03  0.87898200205E+02 0.  0.
          6    2    1    2  501    0  0.24048885258E+03 -0.15036789285E+03 -0.14297422598E+03  0.36148997425E+03  0.17259194875E+03 0.  0.
         24    2    5    5    0    0  0.44042562449E+02 -0.66764435519E+02 -0.15355939389E+02  0.11271457342E+03  0.77920042546E+02 0.  0.
          5    1    5    5  501    0  0.19644629013E+03 -0.83603457330E+02 -0.12761828660E+03  0.24877540083E+03  0.47000000000E+01 0. -1.
        -13    1    6    6    0    0  0.54333191981E+02 -0.22841291351E+02  0.11730375470E+02  0.60095108371E+02  0.00000000000E+00 0.  1.
         14    1    6    6    0    0 -0.10290629532E+02 -0.43923144168E+02 -0.27086314859E+02  0.52619465053E+02  0.00000000000E+00 0. -1.
         -5    1    3    3    0  503 -0.85369531282E+02  0.12212628595E+03 -0.68408311917E+03  0.70013897943E+03  0.47000000000E+01 0.  1.
         13    1    4    4    0    0 -0.61181505266E+02 -0.31651618537E+02 -0.22802206473E+03  0.23819962961E+03  0.00000000000E+00 0. -1.
        -14    1    4    4    0    0 -0.93937816031E+02  0.59893225434E+02 -0.41032373652E+03  0.42517888058E+03  0.00000000000E+00 0.  1.
<mgrwt>
<rscale>  2 0.33215900E+03</rscale>
<asrwt>0</asrwt>
<pdfrwt beam="1">  1       21 0.19969564E-01 0.33220731E+03</pdfrwt>
<pdfrwt beam="2">  1       21 0.24541619E+00 0.33220731E+03</pdfrwt>
<totfact> 0.14481499E+03</totfact>
</mgrwt>
</event>
<event>
12    1  0.1026879E-001  0.2067194E+03  0.7546771E-02  0.1144353E+00
         21   -1    0    0  501  502  0.00000000000E+00  0.00000000000E+00  0.36291946806E+03  0.36291946806E+03  0.00000000000E+00 0.  1.
         21   -1    0    0  502  503 -0.00000000000E+00 -0.00000000000E+00 -0.17860751985E+03  0.17860751985E+03  0.00000000000E+00 0.  1.
         -6    2    1    2    0  503  0.70439692457E+00  0.11227521100E+03 -0.66606029821E+02  0.21642276300E+03  0.17261584503E+03 0.  0.
        -24    2    3    3    0    0  0.52668767409E+02  0.74129282660E+02 -0.85381723207E+02  0.14911730771E+03  0.81711585430E+02 0.  0.
          6    2    1    2  501    0 -0.70439692457E+00 -0.11227521100E+03  0.25091797803E+03  0.32510422491E+03  0.17357046458E+03 0.  0.
         24    2    5    5    0    0 -0.27219294424E+02 -0.24821284376E+02  0.20369309911E+03  0.22213088729E+03  0.80587010835E+02 0.  0.
          5    1    5    5  501    0  0.26514897499E+02 -0.87453926626E+02  0.47224878922E+02  0.10297333762E+03  0.47000000000E+01 0. -1.
        -11    1    6    6    0    0 -0.38267407558E+02 -0.36475283106E+02  0.19824568127E+03  0.20517356287E+03  0.00000000000E+00 0.  1.
         12    1    6    6    0    0  0.11048113134E+02  0.11653998731E+02  0.54474178388E+01  0.16957324416E+02  0.00000000000E+00 0. -1.
         -5    1    3    3    0  503 -0.51964370485E+02  0.38145928342E+02  0.18775693386E+02  0.67305455285E+02  0.47000000000E+01 0.  1.
         13    1    4    4    0    0  0.24087002957E+02  0.32204201711E+02 -0.89590137582E+02  0.98202276304E+02  0.00000000000E+00 0. -1.
        -14    1    4    4    0    0  0.28581764452E+02  0.41925080949E+02  0.42084143750E+01  0.50915031408E+02  0.00000000000E+00 0.  1.
<mgrwt>
<rscale>  2 0.20651892E+03</rscale>
<asrwt>0</asrwt>
<pdfrwt beam="1">  1       21 0.55833764E-01 0.20671944E+03</pdfrwt>
<pdfrwt beam="2">  1       21 0.27478080E-01 0.20671944E+03</pdfrwt>
<totfact> 0.37894502E+04</totfact>
</mgrwt>
</event>
<event>
11    1  0.1026879E-001  0.2151700E+03  0.7546771E-02  0.1138513E+00
         21   -1    0    0  503  502  0.00000000000E+00  0.00000000000E+00  0.35825339567E+03  0.35825339567E+03  0.00000000000E+00 0. -1.
         21   -1    0    0  501  503 -0.00000000000E+00 -0.00000000000E+00 -0.23622786262E+03  0.23622786262E+03  0.00000000000E+00 0.  1.
          6    2    1    2  501    0 -0.98720324649E+02  0.70668335003E+02 -0.14219726891E+03  0.25372939807E+03  0.17151917703E+03 0.  0.
         -6    2    1    2    0  502  0.98720324649E+02 -0.70668335003E+02  0.26422280196E+03  0.34075186022E+03  0.17764691132E+03 0.  0.
        -24    2    4    4    0    0 -0.16053137479E+02 -0.57715929637E+02  0.13154157665E+03  0.16477711782E+03  0.79116878186E+02 0.  0.
          5    1    3    3  501    0 -0.11333745813E+03  0.10915975761E+03 -0.12880769728E+03  0.20340782919E+03  0.47000000000E+01 0. -1.
        -11    1    3    3    0    0  0.29012248108E+01 -0.14249300699E+02 -0.17856739142E+02  0.23028738754E+02  0.00000000000E+00 0.  1.
         12    1    3    3    0    0  0.11715908675E+02 -0.24242121912E+02  0.44671675096E+01  0.27292830128E+02  0.00000000000E+00 0. -1.
         -5    1    4    4    0  502  0.11477346213E+03 -0.12952405366E+02  0.13268122531E+03  0.17597474240E+03  0.47000000000E+01 0.  1.
         13    1    5    5    0    0 -0.21385613506E+01 -0.59965725641E+02  0.39902114844E+02  0.72059978249E+02  0.00000000000E+00 0. -1.
        -14    1    5    5    0    0 -0.13914576129E+02  0.22497960040E+01  0.91639461801E+02  0.92717139571E+02  0.00000000000E+00 0.  1.
<mgrwt>
<rscale>  2 0.21390118E+03</rscale>
<asrwt>0</asrwt>
<pdfrwt beam="1">  1       21 0.55115907E-01 0.21517003E+03</pdfrwt>
<pdfrwt beam="2">  1       21 0.36342748E-01 0.21517003E+03</pdfrwt>
<totfact> 0.22381710E+04</totfact>
</mgrwt>
</event>
<event>
12    1  0.1026879E-001  0.1802780E+03  0.7546771E-02  0.1167883E+00
         21   -1    0    0  503  502  0.00000000000E+00  0.00000000000E+00  0.18687940020E+03  0.18687940020E+03  0.00000000000E+00 0. -1.
         21   -1    0    0  501  503 -0.00000000000E+00 -0.00000000000E+00 -0.21696631875E+03  0.21696631875E+03  0.00000000000E+00 0. -1.
          6    2    1    2  501    0  0.97340836372E+00 -0.47113892901E+02 -0.10647732752E+03  0.20937424406E+03  0.17401001803E+03 0.  0.
         24    2    3    3    0    0  0.31001850225E+02 -0.20417861297E+02  0.69630874125E+01  0.88936695251E+02  0.80518615230E+02 0.  0.
         -6    2    1    2    0  502 -0.97340836372E+00  0.47113892901E+02  0.76390408967E+02  0.19447147489E+03  0.17251954538E+03 0.  0.
        -24    2    5    5    0    0 -0.42646306020E+02 -0.24134404704E+02  0.53220189673E+02  0.10861170915E+03  0.81011961272E+02 0.  0.
          5    1    3    3  501    0 -0.30028441861E+02 -0.26696031604E+02 -0.11344041493E+03  0.12043754881E+03  0.47000000000E+01 0. -1.
        -11    1    4    4    0    0 -0.26154797817E+02 -0.38964393673E+01  0.12372441389E+02  0.29194742584E+02  0.00000000000E+00 0.  1.
         12    1    4    4    0    0  0.57156648042E+02 -0.16521421930E+02 -0.54093539765E+01  0.59741952667E+02  0.00000000000E+00 0. -1.
         -5    1    5    5    0  502  0.41672897656E+02  0.71248297605E+02  0.23170219294E+02  0.85859765739E+02  0.47000000000E+01 0.  1.
         13    1    6    6    0    0  0.18553211496E+02 -0.17320863011E+02 -0.25800258442E+01  0.25512555451E+02  0.00000000000E+00 0. -1.
        -14    1    6    6    0    0 -0.61199517516E+02 -0.68135416925E+01  0.55800215517E+02  0.83099153704E+02  0.00000000000E+00 0.  1.
<mgrwt>
<rscale>  2 0.17991735E+03</rscale>
<asrwt>0</asrwt>
<pdfrwt beam="1">  1       21 0.28750677E-01 0.18027799E+03</pdfrwt>
<pdfrwt beam="2">  1       21 0.33379434E-01 0.18027799E+03</pdfrwt>
<totfact> 0.10051288E+05</totfact>
</mgrwt>
</event>
<event>
12    1  0.1026879E-001  0.1747661E+03  0.7546771E-02  0.1173654E+00
         21   -1    0    0  501  502  0.00000000000E+00  0.00000000000E+00  0.10095365249E+04  0.10095365249E+04  0.00000000000E+00 0.  1.
         21   -1    0    0  502  503 -0.00000000000E+00 -0.00000000000E+00 -0.25558853800E+03  0.25558853800E+03  0.00000000000E+00 0.  1.
         -6    2    1    2    0  503 -0.22221773769E+02  0.98042551633E+01 -0.21792808997E+03  0.27766048244E+03  0.17033132553E+03 0.  0.
        -24    2    3    3    0    0 -0.78365181063E+02 -0.15317951132E+01 -0.16398130930E+03  0.19883831954E+03  0.80643409640E+02 0.  0.
          6    2    1    2  501    0  0.22221773769E+02 -0.98042551633E+01  0.97187607685E+03  0.98746458043E+03  0.17307009622E+03 0.  0.
         24    2    5    5    0    0  0.44022128345E+02  0.53541030681E+02  0.65172785777E+03  0.66034861800E+03  0.80662921776E+02 0.  0.
          5    1    5    5  501    0 -0.21800354576E+02 -0.63345285844E+02  0.32014821908E+03  0.32711596243E+03  0.47000000000E+01 0. -1.
        -13    1    6    6    0    0 -0.20880942352E+02  0.16974950888E+02  0.27587307534E+03  0.27718246050E+03  0.00000000000E+00 0.  1.
         14    1    6    6    0    0  0.64903070697E+02  0.36566079793E+02  0.37585478243E+03  0.38316615750E+03  0.00000000000E+00 0. -1.
         -5    1    3    3    0  503  0.56143407294E+02  0.11336050276E+02 -0.53946780669E+02  0.78822162892E+02  0.47000000000E+01 0.  1.
         13    1    4    4    0    0 -0.31963255215E+02  0.38420522416E+02 -0.59178151616E+02  0.77458633188E+02  0.00000000000E+00 0. -1.
        -14    1    4    4    0    0 -0.46401925848E+02 -0.39952317529E+02 -0.10480315769E+03  0.12137968636E+03  0.00000000000E+00 0.  1.
<mgrwt>
<rscale>  2 0.17408417E+03</rscale>
<asrwt>0</asrwt>
<pdfrwt beam="1">  1       21 0.15531331E+00 0.17476610E+03</pdfrwt>
<pdfrwt beam="2">  1       21 0.39321314E-01 0.17476610E+03</pdfrwt>
<totfact> 0.17311543E+03</totfact>
</mgrwt>
</event>
<event>
12    1  0.1026879E-001  0.2109442E+03  0.7546771E-02  0.1141098E+00
         21   -1    0    0  501  502  0.00000000000E+00  0.00000000000E+00  0.19401396946E+03  0.19401396946E+03  0.00000000000E+00 0.  1.
         21   -1    0    0  502  503 -0.00000000000E+00 -0.00000000000E+00 -0.10843398105E+04  0.10843398105E+04  0.00000000000E+00 0.  1.
         -6    2    1    2    0  503 -0.13701092099E+01 -0.11824513188E+03 -0.10135486506E+04  0.10352672739E+04  0.17468163238E+03 0.  0.
        -24    2    3    3    0    0 -0.58993933844E+02 -0.84750675171E+02 -0.47816140978E+03  0.49572675502E+03  0.80272789054E+02 0.  0.
          6    2    1    2  501    0  0.13701092099E+01  0.11824513188E+03  0.12322280962E+03  0.24308650609E+03  0.17298381490E+03 0.  0.
         24    2    5    5    0    0  0.51565696570E+02  0.93514721822E+02  0.13024302708E+03  0.18649530867E+03  0.80082643529E+02 0.  0.
          5    1    5    5  501    0 -0.50195587360E+02  0.24730410054E+02 -0.70202174529E+01  0.56591197415E+02  0.47000000000E+01 0. -1.
        -13    1    6    6    0    0  0.60667596995E+02  0.67955331610E+02  0.54768847404E+02  0.10629257295E+03  0.00000000000E+00 0.  1.
         14    1    6    6    0    0 -0.91019004246E+01  0.25559390212E+02  0.75474179673E+02  0.80202735718E+02  0.00000000000E+00 0. -1.
         -5    1    3    3    0  503  0.57623824634E+02 -0.33494456705E+02 -0.53538724087E+03  0.53954051885E+03  0.47000000000E+01 0.  1.
         13    1    4    4    0    0  0.29205944882E+01  0.12271678700E+02 -0.22924905572E+02  0.26166300193E+02  0.00000000000E+00 0. -1.
        -14    1    4    4    0    0 -0.61914528332E+02 -0.97022353871E+02 -0.45523650421E+03  0.46956045482E+03  0.00000000000E+00 0.  1.
<mgrwt>
<rscale>  2 0.21059239E+03</rscale>
<asrwt>0</asrwt>
<pdfrwt beam="1">  1       21 0.29848303E-01 0.21094421E+03</pdfrwt>
<pdfrwt beam="2">  1       21 0.16682151E+00 0.21094421E+03</pdfrwt>
<totfact> 0.23773099E+03</totfact>
</mgrwt>
</event>
<event>
12    1  0.1026879E-001  0.1909997E+03  0.7546771E-02  0.1157568E+00
         21   -1    0    0  503  502  0.00000000000E+00  0.00000000000E+00  0.32621242956E+03  0.32621242956E+03  0.00000000000E+00 0.  1.
         21   -1    0    0  501  503 -0.00000000000E+00 -0.00000000000E+00 -0.12224029294E+03  0.12224029294E+03  0.00000000000E+00 0.  1.
          6    2    1    2  501    0  0.49754970604E+02  0.62555915690E+02  0.16745222152E+03  0.25399297181E+03  0.17344562131E+03 0.  0.
         24    2    3    3    0    0  0.31436421610E+02 -0.33398571508E+02  0.93614018905E+02  0.13144908981E+03  0.80072251713E+02 0.  0.
         -6    2    1    2    0  502 -0.49754970604E+02 -0.62555915690E+02  0.36519915106E+02  0.19445975069E+03  0.17347072015E+03 0.  0.
        -24    2    5    5    0    0 -0.79339782473E+02 -0.19138935417E+02  0.67138826866E+02  0.13346874293E+03  0.81517993938E+02 0.  0.
          5    1    3    3  501    0  0.18318548994E+02  0.95954487198E+02  0.73838202615E+02  0.12254388200E+03  0.47000000000E+01 0. -1.
        -13    1    4    4    0    0  0.13892683311E+02  0.14896269896E+02 -0.43491036328E+01  0.20828351082E+02  0.00000000000E+00 0.  1.
         14    1    4    4    0    0  0.17543738299E+02 -0.48294841404E+02  0.97963122538E+02  0.11062073873E+03  0.00000000000E+00 0. -1.
         -5    1    5    5    0  502  0.29584811869E+02 -0.43416980273E+02 -0.30618911760E+02  0.60991007753E+02  0.47000000000E+01 0.  1.
         11    1    6    6    0    0 -0.10851242197E+02  0.26553495861E+02  0.24984672893E+01  0.28793748253E+02  0.00000000000E+00 0. -1.
        -12    1    6    6    0    0 -0.68488540275E+02 -0.45692431278E+02  0.64640359577E+02  0.10467499468E+03  0.00000000000E+00 0.  1.
<mgrwt>
<rscale>  2 0.19099401E+03</rscale>
<asrwt>0</asrwt>
<pdfrwt beam="1">  1       21 0.50186527E-01 0.19099971E+03</pdfrwt>
<pdfrwt beam="2">  1       21 0.18806199E-01 0.19099971E+03</pdfrwt>
<totfact> 0.97942055E+04</totfact>
</mgrwt>
</event>
<event>
12    1  0.1026879E-001  0.2152432E+03  0.7546771E-02  0.1137686E+00
         21   -1    0    0  503  502  0.00000000000E+00  0.00000000000E+00  0.93750800845E+03  0.93750800845E+03  0.00000000000E+00 0. -1.
         21   -1    0    0  501  503 -0.00000000000E+00 -0.00000000000E+00 -0.75739890460E+02  0.75739890460E+02  0.00000000000E+00 0. -1.
          6    2    1    2  501    0  0.12655234430E+03  0.15520333636E+02  0.13152853003E+03  0.25224863165E+03  0.17341638144E+03 0.  0.
         24    2    3    3    0    0  0.22278364334E+02 -0.44036826329E+02  0.14093662807E+02  0.84221383139E+02  0.66776061999E+02 0.  0.
         -6    2    1    2    0  502 -0.12655234430E+03 -0.15520333636E+02  0.73023958796E+03  0.76099926726E+03  0.17208617711E+03 0.  0.
        -24    2    5    5    0    0 -0.59874106392E+02  0.54927855665E+02  0.44727046141E+03  0.46182949712E+03  0.81447165818E+02 0.  0.
          5    1    3    3  501    0  0.10427397996E+03  0.59557159965E+02  0.11743486723E+03  0.16802724851E+03  0.47000000000E+01 0. -1.
        -13    1    4    4    0    0  0.12792415073E+02  0.99512577831E+01 -0.15070055818E+02  0.22130973707E+02  0.00000000000E+00 0.  1.
         14    1    4    4    0    0  0.94859492614E+01 -0.53988084112E+02  0.29163718624E+02  0.62090409433E+02  0.00000000000E+00 0. -1.
         -5    1    5    5    0  502 -0.66678237907E+02 -0.70448189300E+02  0.28296912655E+03  0.29916977014E+03  0.47000000000E+01 0.  1.
         13    1    6    6    0    0 -0.64979044464E+02  0.14267210033E+02  0.18987623129E+03  0.20119347085E+03  0.00000000000E+00 0. -1.
        -14    1    6    6    0    0  0.51049380715E+01  0.40660645631E+02  0.25739423011E+03  0.26063602627E+03  0.00000000000E+00 0.  1.
<mgrwt>
<rscale>  2 0.21497509E+03</rscale>
<asrwt>0</asrwt>
<pdfrwt beam="1">  1       21 0.14423199E+00 0.21524316E+03</pdfrwt>
<pdfrwt beam="2">  1       21 0.11652292E-01 0.21524316E+03</pdfrwt>
<totfact> 0.20186546E+04</totfact>
</mgrwt>
</event>
<event>
12    1  0.1026879E-001  0.2310516E+03  0.7546771E-02  0.1126040E+00
         21   -1    0    0  503  502  0.00000000000E+00  0.00000000000E+00  0.11738825751E+04  0.11738825751E+04  0.00000000000E+00 0.  1.
         21   -1    0    0  501  503 -0.00000000000E+00 -0.00000000000E+00 -0.79900162455E+02  0.79900162455E+02  0.00000000000E+00 0.  1.
          6    2    1    2  501    0  0.15209126938E+03 -0.10606123352E+02  0.13406612179E+03  0.26645092624E+03  0.17256339996E+03 0.  0.
         24    2    3    3    0    0  0.11412601418E+03  0.55429738080E+02  0.10984210342E+03  0.18638227654E+03  0.81091691007E+02 0.  0.
         -6    2    1    2    0  502 -0.15209126938E+03  0.10606123352E+02  0.95991629089E+03  0.98733181135E+03  0.17361041479E+03 0.  0.
        -24    2    5    5    0    0 -0.71479638801E+01  0.14275950213E+02  0.43213847183E+03  0.43998041990E+03  0.81143175409E+02 0.  0.
          5    1    3    3  501    0  0.37965255205E+02 -0.66035861432E+02  0.24224018375E+02  0.80068649695E+02  0.47000000000E+01 0. -1.
        -11    1    4    4    0    0  0.15550657700E+02 -0.20000953704E+02  0.27703726891E+02  0.37541411636E+02  0.00000000000E+00 0.  1.
         12    1    4    4    0    0  0.98575356476E+02  0.75430691784E+02  0.82138376525E+02  0.14884086490E+03  0.00000000000E+00 0. -1.
         -5    1    5    5    0  502 -0.14494330550E+03 -0.36698268610E+01  0.52777781906E+03  0.54735139146E+03  0.47000000000E+01 0.  1.
         13    1    6    6    0    0  0.18409321879E+02 -0.22033060832E+02  0.78889724352E+02  0.83952054829E+02  0.00000000000E+00 0. -1.
        -14    1    6    6    0    0 -0.25557285759E+02  0.36309011045E+02  0.35324874748E+03  0.35602836507E+03  0.00000000000E+00 0.  1.
<mgrwt>
<rscale>  2 0.23085488E+03</rscale>
<asrwt>0</asrwt>
<pdfrwt beam="1">  1       21 0.18059731E+00 0.23105155E+03</pdfrwt>
<pdfrwt beam="2">  1       21 0.12292334E-01 0.23105155E+03</pdfrwt>
<totfact> 0.98403520E+03</totfact>
</mgrwt>
</event>
<event>
12    1  0.1026879E-001  0.1812899E+03  0.7546771E-02  0.1166651E+00
         21   -1    0    0  501  502  0.00000000000E+00  0.00000000000E+00  0.10848317408E+04  0.10848317408E+04  0.00000000000E+00 0. -1.
         21   -1    0    0  502  503 -0.00000000000E+00 -0.00000000000E+00 -0.10022509841E+03  0.10022509841E+03  0.00000000000E+00 0. -1.
         -6    2    1    2    0  503  0.12152417447E+01  0.51966828784E+02 -0.30101802543E+01  0.18093881045E+03  0.17328520952E+03 0.  0.
        -24    2    3    3    0    0  0.33315712283E+02  0.39094548641E+02 -0.60499980478E+02  0.11368330559E+03  0.81396105025E+02 0.  0.
          6    2    1    2  501    0 -0.12152417447E+01 -0.51966828784E+02  0.98761682259E+03  0.10041180287E+04  0.17367786046E+03 0.  0.
         24    2    5    5    0    0  0.13817952112E+02  0.37546163698E+02  0.55271450779E+03  0.55982005870E+03  0.79401012512E+02 0.  0.
          5    1    5    5  501    0 -0.15033193857E+02 -0.89512992482E+02  0.43490231480E+03  0.44429797002E+03  0.47000000000E+01 0. -1.
        -11    1    6    6    0    0  0.17657826200E+02  0.19889167678E+01  0.23820226277E+02  0.29717970925E+02  0.00000000000E+00 0.  1.
         12    1    6    6    0    0 -0.38398740876E+01  0.35557246931E+02  0.52889428151E+03  0.53010208777E+03  0.00000000000E+00 0. -1.
         -5    1    3    3    0  503 -0.32100470538E+02  0.12872280142E+02  0.57489800224E+02  0.67255504865E+02  0.47000000000E+01 0.  1.
         11    1    4    4    0    0  0.12298680850E+02  0.31349171268E+02  0.13565523635E+02  0.36304979292E+02  0.00000000000E+00 0. -1.
        -12    1    4    4    0    0  0.21017031433E+02  0.77453773729E+01 -0.74065504114E+02  0.77378326297E+02  0.00000000000E+00 0.  1.
<mgrwt>
<rscale>  2 0.18119579E+03</rscale>
<asrwt>0</asrwt>
<pdfrwt beam="1">  1       21 0.16689718E+00 0.18128990E+03</pdfrwt>
<pdfrwt beam="2">  1       21 0.15419247E-01 0.18128990E+03</pdfrwt>
<totfact> 0.84507947E+03</totfact>
</mgrwt>
</event>
<event>
12    1  0.1026879E-001  0.2299406E+03  0.7546771E-02  0.1126717E+00
         21   -1    0    0  503  502  0.00000000000E+00  0.00000000000E+00  0.45690194405E+03  0.45690194405E+03  0.00000000000E+00 0.  1.
         21   -1    0    0  501  503 -0.00000000000E+00 -0.00000000000E+00 -0.11708426704E+03  0.11708426704E+03  0.00000000000E+00 0. -1.
          6    2    1    2  501    0 -0.10398494526E+03  0.11093271404E+03  0.20208464701E+03  0.30612236706E+03  0.17249279166E+03 0.  0.
         24    2    3    3    0    0 -0.11073112722E+03  0.48657491893E+02  0.19600185605E+03  0.24301290176E+03  0.77521666612E+02 0.  0.
         -6    2    1    2    0  502  0.10398494526E+03 -0.11093271404E+03  0.13773303000E+03  0.26786384402E+03  0.17222576897E+03 0.  0.
        -24    2    5    5    0    0  0.52450882353E+02 -0.10098658020E+03  0.21315374595E+02  0.14007555932E+03  0.78850698692E+02 0.  0.
          5    1    3    3  501    0  0.67461819664E+01  0.62275222144E+02  0.60827909575E+01  0.63109465297E+02  0.47000000000E+01 0. -1.
        -11    1    4    4    0    0 -0.11169827948E+03  0.63644431230E+02  0.17284374152E+03  0.21541141624E+03  0.00000000000E+00 0.  1.
         12    1    4    4    0    0  0.96715225942E+00 -0.14986939337E+02  0.23158114535E+02  0.27601485521E+02  0.00000000000E+00 0. -1.
         -5    1    5    5    0  502  0.51534062904E+02 -0.99461338393E+01  0.11641765541E+03  0.12778828471E+03  0.47000000000E+01 0.  1.
         13    1    6    6    0    0  0.70753663216E+02 -0.59379236799E+02  0.80211707040E+01  0.92716308170E+02  0.00000000000E+00 0. -1.
        -14    1    6    6    0    0 -0.18302780863E+02 -0.41607343399E+02  0.13294203891E+02  0.47359251147E+02  0.00000000000E+00 0.  1.
<mgrwt>
<rscale>  2 0.22989057E+03</rscale>
<asrwt>0</asrwt>
<pdfrwt beam="1">  1       21 0.70292606E-01 0.22994064E+03</pdfrwt>
<pdfrwt beam="2">  1       21 0.18012964E-01 0.22994064E+03</pdfrwt>
<totfact> 0.50583014E+04</totfact>
</mgrwt>
</event>
<event>
12    1  0.1026879E-001  0.1961925E+03  0.7546771E-02  0.1154376E+00
         21   -1    0    0  501  502  0.00000000000E+00  0.00000000000E+00  0.17299401526E+03  0.17299401526E+03  0.00000000000E+00 0. -1.
         21   -1    0    0  502  503 -0.00000000000E+00 -0.00000000000E+00 -0.25665960962E+03  0.25665960962E+03  0.00000000000E+00 0. -1.
         -6    2    1    2    0  503  0.54774671966E+02  0.74813924375E+02 -0.12735858377E+03  0.22865466062E+03  0.16572675401E+03 0.  0.
        -24    2    3    3    0    0  0.15820594727E+02  0.86184318224E+02 -0.27764175204E+02  0.12100782041E+03  0.78702066362E+02 0.  0.
          6    2    1    2  501    0 -0.54774671966E+02 -0.74813924375E+02  0.43692989416E+02  0.20099896427E+03  0.17289915657E+03 0.  0.
         24    2    5    5    0    0 -0.47356634061E+02 -0.22491895574E+00 -0.28053909721E+02  0.97132441498E+02  0.80031168695E+02 0.  0.
          5    1    5    5  501    0 -0.74180379053E+01 -0.74589005419E+02  0.71746899137E+02  0.10386652277E+03  0.47000000000E+01 0. -1.
        -13    1    6    6    0    0 -0.40820448149E+02  0.23900394153E+02  0.13010431499E+02  0.49059241286E+02  0.00000000000E+00 0.  1.
         14    1    6    6    0    0 -0.65361859122E+01 -0.24125313109E+02 -0.41064341220E+02  0.48073200213E+02  0.00000000000E+00 0. -1.
         -5    1    3    3    0  503  0.38954077240E+02 -0.11370393849E+02 -0.99594408570E+02  0.10764684021E+03  0.47000000000E+01 0.  1.
         11    1    4    4    0    0  0.45018140395E+02  0.52050778335E+02 -0.31993745136E+02  0.75891476581E+02  0.00000000000E+00 0. -1.
        -12    1    4    4    0    0 -0.29197545668E+02  0.34133539889E+02  0.42295699317E+01  0.45116343826E+02  0.00000000000E+00 0.  1.
<mgrwt>
<rscale>  2 0.19460061E+03</rscale>
<asrwt>0</asrwt>
<pdfrwt beam="1">  1       21 0.26614464E-01 0.19619252E+03</pdfrwt>
<pdfrwt beam="2">  1       21 0.39486094E-01 0.19619252E+03</pdfrwt>
<totfact> 0.82949282E+04</totfact>
</mgrwt>
</event>
<event>
12    1  0.1026879E-001  0.1799090E+03  0.7546771E-02  0.1167958E+00
         21   -1    0    0  503  502  0.00000000000E+00  0.00000000000E+00  0.27727785256E+02  0.27727785256E+02  0.00000000000E+00 0.  1.
         21   -1    0    0  501  503 -0.00000000000E+00 -0.00000000000E+00 -0.13260603385E+04  0.13260603385E+04  0.00000000000E+00 0.  1.
          6    2    1    2  501    0 -0.13554228842E+02 -0.47426509147E+02 -0.88510873960E+03  0.90320801346E+03  0.17301515475E+03 0.  0.
         24    2    3    3    0    0 -0.64281060078E+02 -0.56308635215E+02 -0.73224883843E+03  0.74183780878E+03  0.82657462327E+02 0.  0.
         -6    2    1    2    0  502  0.13554228842E+02  0.47426509147E+02 -0.41322381361E+03  0.45058011027E+03  0.17272962902E+03 0.  0.
        -24    2    5    5    0    0  0.29589008383E+02 -0.21169049097E+02 -0.12744708559E+03  0.15621147565E+03  0.82677853400E+02 0.  0.
          5    1    3    3  501    0  0.50726831236E+02  0.88821260679E+01 -0.15285990117E+03  0.16137020468E+03  0.47000000000E+01 0. -1.
        -11    1    4    4    0    0 -0.61376096397E+01 -0.31357255493E+02 -0.50312223706E+03  0.50413582808E+03  0.00000000000E+00 0.  1.
         12    1    4    4    0    0 -0.58143450438E+02 -0.24951379722E+02 -0.22912660136E+03  0.23770198070E+03  0.00000000000E+00 0. -1.
         -5    1    5    5    0  502 -0.16034779541E+02  0.68595558244E+02 -0.28577672802E+03  0.29436863462E+03  0.47000000000E+01 0.  1.
         13    1    6    6    0    0  0.80571073899E+01 -0.22527094003E+01 -0.12727533505E+03  0.12755000036E+03  0.00000000000E+00 0. -1.
        -14    1    6    6    0    0  0.21531900993E+02 -0.18916339697E+02 -0.17175054272E+00  0.28661475296E+02  0.00000000000E+00 0.  1.
<mgrwt>
<rscale>  2 0.17984028E+03</rscale>
<asrwt>0</asrwt>
<pdfrwt beam="1">  1       21 0.42658139E-02 0.17990896E+03</pdfrwt>
<pdfrwt beam="2">  1       21 0.20400925E+00 0.17990896E+03</pdfrwt>
<totfact> 0.44911539E+04</totfact>
</mgrwt>
</event>
<event>
12    1  0.1026879E-001  0.1798456E+03  0.7546771E-02  0.1168058E+00
         21   -1    0    0  501  502  0.00000000000E+00  0.00000000000E+00  0.44927316204E+02  0.44927316204E+02  0.00000000000E+00 0. -1.
         21   -1    0    0  502  503 -0.00000000000E+00 -0.00000000000E+00 -0.79803042318E+03  0.79803042318E+03  0.00000000000E+00 0. -1.
         -6    2    1    2    0  503 -0.18249816411E+02  0.46981987301E+02 -0.50945686103E+03  0.54012453752E+03  0.17218553903E+03 0.  0.
        -24    2    3    3    0    0 -0.25652137223E+01  0.52270251317E+02 -0.12795113452E+03  0.15823098971E+03  0.76985672602E+02 0.  0.
          6    2    1    2  501    0  0.18249816411E+02 -0.46981987301E+02 -0.24364624594E+03  0.30283320186E+03  0.17263861694E+03 0.  0.
         24    2    5    5    0    0  0.75037986540E+02 -0.37219732421E+02 -0.15549505479E+03  0.19741536471E+03  0.88193572644E+02 0.  0.
          5    1    5    5  501    0 -0.56788170130E+02 -0.97622548800E+01 -0.88151191155E+02  0.10541783715E+03  0.47000000000E+01 0. -1.
        -13    1    6    6    0    0  0.61267506740E+02  0.13493030613E+02 -0.11527601463E+03  0.13124149041E+03  0.00000000000E+00 0.  1.
         14    1    6    6    0    0  0.13770479801E+02 -0.50712763034E+02 -0.40219040159E+02  0.66173874299E+02  0.00000000000E+00 0. -1.
         -5    1    3    3    0  503 -0.15684602688E+02 -0.52882640160E+01 -0.38150572651E+03  0.38189354781E+03  0.47000000000E+01 0.  1.
         11    1    4    4    0    0 -0.31044424057E+02  0.28839852375E+02 -0.10862068857E+03  0.11659308443E+03  0.00000000000E+00 0. -1.
        -12    1    4    4    0    0  0.28479210335E+02  0.23430398942E+02 -0.19330445943E+02  0.41637905281E+02  0.00000000000E+00 0.  1.
<mgrwt>
<rscale>  2 0.17973682E+03</rscale>
<asrwt>0</asrwt>
<pdfrwt beam="1">  1       21 0.69118950E-02 0.17984564E+03</pdfrwt>
<pdfrwt beam="2">  1       21 0.12277391E+00 0.17984564E+03</pdfrwt>
<totfact> 0.77602817E+04</totfact>
</mgrwt>
</event>
<event>
12    1  0.1026879E-001  0.1994344E+03  0.7546771E-02  0.1150573E+00
         21   -1    0    0  503  502  0.00000000000E+00  0.00000000000E+00  0.16949885675E+02  0.16949885675E+02  0.00000000000E+00 0.  1.
         21   -1    0    0  501  503 -0.00000000000E+00 -0.00000000000E+00 -0.23680567037E+04  0.23680567037E+04  0.00000000000E+00 0.  1.
          6    2    1    2  501    0  0.52838170132E+02  0.82345971628E+02 -0.13278704114E+04  0.13425158984E+04  0.17186150449E+03 0.  0.
         24    2    3    3    0    0  0.93732203914E+02  0.57129168204E+02 -0.11534151460E+04  0.11615050181E+04  0.81718664118E+02 0.  0.
         -6    2    1    2    0  502 -0.52838170132E+02 -0.82345971628E+02 -0.10232364066E+04  0.10424906910E+04  0.17378540115E+03 0.  0.
        -24    2    5    5    0    0  0.56618684503E+01  0.81448393143E+01 -0.31911509397E+03  0.33015667219E+03  0.84086799381E+02 0.  0.
          5    1    3    3  501    0 -0.40894033782E+02  0.25216803424E+02 -0.17445526541E+03  0.18101088035E+03  0.47000000000E+01 0. -1.
        -11    1    4    4    0    0  0.76169622229E+02  0.69123240802E+02 -0.69226713054E+03  0.69986685433E+03  0.00000000000E+00 0.  1.
         12    1    4    4    0    0  0.17562581684E+02 -0.11994072598E+02 -0.46114801547E+03  0.46163816375E+03  0.00000000000E+00 0. -1.
         -5    1    5    5    0  502 -0.58500038582E+02 -0.90490810942E+02 -0.70412131264E+03  0.71233401876E+03  0.47000000000E+01 0.  1.
         13    1    6    6    0    0  0.40352544606E+02  0.17421890064E+02 -0.22843866083E+03  0.23262861361E+03  0.00000000000E+00 0. -1.
        -14    1    6    6    0    0 -0.34690676156E+02 -0.92770507494E+01 -0.90676433139E+02  0.97528058576E+02  0.00000000000E+00 0.  1.
<mgrwt>
<rscale>  2 0.19901457E+03</rscale>
<asrwt>0</asrwt>
<pdfrwt beam="1">  1       21 0.26076738E-02 0.19943444E+03</pdfrwt>
<pdfrwt beam="2">  1       21 0.36431654E+00 0.19943444E+03</pdfrwt>
<totfact> 0.11371629E+04</totfact>
</mgrwt>
</event>
<event>
12    1  0.1026879E-001  0.1759346E+03  0.7546771E-02  0.1172904E+00
         21   -1    0    0  501  502  0.00000000000E+00  0.00000000000E+00  0.19676710360E+03  0.19676710360E+03  0.00000000000E+00 0. -1.
         21   -1    0    0  502  503 -0.00000000000E+00 -0.00000000000E+00 -0.15637417256E+03  0.15637417256E+03  0.00000000000E+00 0. -1.
         -6    2    1    2    0  503 -0.29100849510E+02 -0.11214275710E+02  0.44235955564E+02  0.17716473082E+03  0.16869470252E+03 0.  0.
        -24    2    3    3    0    0 -0.35876749876E+02 -0.38660836546E+02  0.79211476998E+02  0.13194743737E+03  0.91399489471E+02 0.  0.
          6    2    1    2  501    0  0.29100849510E+02  0.11214275710E+02 -0.38430245283E+01  0.17597654534E+03  0.17314836485E+03 0.  0.
         24    2    5    5    0    0 -0.46817597695E+01 -0.70180169389E+01  0.60443235592E+02  0.10095325278E+03  0.80417678919E+02 0.  0.
          5    1    5    5  501    0  0.33782609279E+02  0.18232292648E+02 -0.64286260120E+02  0.75023292551E+02  0.47000000000E+01 0. -1.
        -11    1    6    6    0    0  0.34051414466E+02 -0.89672404611E+01  0.86676496010E+01  0.36263457891E+02  0.00000000000E+00 0.  1.
         12    1    6    6    0    0 -0.38733174235E+02  0.19492235222E+01  0.51775585991E+02  0.64689794894E+02  0.00000000000E+00 0. -1.
         -5    1    3    3    0  503  0.67759003666E+01  0.27446560836E+02 -0.34975521434E+02  0.45217293451E+02  0.47000000000E+01 0.  1.
         13    1    4    4    0    0 -0.45714975765E+02  0.62028877378E+01  0.71916564858E+02  0.85441951795E+02  0.00000000000E+00 0. -1.
        -14    1    4    4    0    0  0.98382258889E+01 -0.44863724283E+02  0.72949121394E+01  0.46505485573E+02  0.00000000000E+00 0.  1.
<mgrwt>
<rscale>  2 0.17482887E+03</rscale>
<asrwt>0</asrwt>
<pdfrwt beam="1">  1       21 0.30271862E-01 0.17593458E+03</pdfrwt>
<pdfrwt beam="2">  1       21 0.24057565E-01 0.17593458E+03</pdfrwt>
<totfact> 0.17151125E+05</totfact>
</mgrwt>
</event>
<event>
12    1  0.1026879E-001  0.1804615E+03  0.7546771E-02  0.1167433E+00
         21   -1    0    0  503  502  0.00000000000E+00  0.00000000000E+00  0.10659226813E+03  0.10659226813E+03  0.00000000000E+00 0. -1.
         21   -1    0    0  501  503 -0.00000000000E+00 -0.00000000000E+00 -0.33565153197E+03  0.33565153197E+03  0.00000000000E+00 0.  1.
          6    2    1    2  501    0 -0.34809194288E+02 -0.25104487703E+02 -0.18126789081E+03  0.25556127842E+03  0.17496172004E+03 0.  0.
         24    2    3    3    0    0 -0.89040641677E+02 -0.41426381364E+01 -0.13649147913E+03  0.18202580354E+03  0.80981923652E+02 0.  0.
         -6    2    1    2    0  502  0.34809194288E+02  0.25104487703E+02 -0.47791373027E+02  0.18668252168E+03  0.17528386479E+03 0.  0.
        -24    2    5    5    0    0  0.76428371991E+02  0.55786306569E+02 -0.14263295878E+02  0.12487838008E+03  0.80235653899E+02 0.  0.
          5    1    3    3  501    0  0.54231447389E+02 -0.20961849567E+02 -0.44776411677E+02  0.73535474880E+02  0.47000000000E+01 0. -1.
        -11    1    4    4    0    0 -0.29899195455E+02 -0.27571962391E+01 -0.11536582597E+03  0.11920921869E+03  0.00000000000E+00 0.  1.
         12    1    4    4    0    0 -0.59141446222E+02 -0.13854418974E+01 -0.21125653163E+02  0.62816584849E+02  0.00000000000E+00 0. -1.
         -5    1    5    5    0  502 -0.41619177702E+02 -0.30681818866E+02 -0.33528077149E+02  0.61804141599E+02  0.47000000000E+01 0.  1.
         11    1    6    6    0    0  0.51380099647E+02  0.61565407897E+02  0.19419810892E+02  0.82506624851E+02  0.00000000000E+00 0. -1.
        -12    1    6    6    0    0  0.25048272344E+02 -0.57791013284E+01 -0.33683106770E+02  0.42371755229E+02  0.00000000000E+00 0.  1.
<mgrwt>
<rscale>  2 0.18038322E+03</rscale>
<asrwt>0</asrwt>
<pdfrwt beam="1">  1       21 0.16398811E-01 0.18046149E+03</pdfrwt>
<pdfrwt beam="2">  1       21 0.51638697E-01 0.18046149E+03</pdfrwt>
<totfact> 0.11924009E+05</totfact>
</mgrwt>
</event>
<event>
12    1  0.1026879E-001  0.2158074E+03  0.7546771E-02  0.1137087E+00
         21   -1    0    0  501  502  0.00000000000E+00  0.00000000000E+00  0.89863825833E+03  0.89863825833E+03  0.00000000000E+00 0. -1.
         21   -1    0    0  502  503 -0.00000000000E+00 -0.00000000000E+00 -0.55899334015E+02  0.55899334015E+02  0.00000000000E+00 0. -1.
         -6    2    1    2    0  503 -0.86787044429E+02 -0.96391338792E+02  0.29158121622E+03  0.36263584950E+03  0.17222622453E+03 0.  0.
        -24    2    3    3    0    0 -0.40098865849E+02  0.69164253106E+01  0.18909958328E+03  0.20974093385E+03  0.81097786362E+02 0.  0.
          6    2    1    2  501    0  0.86787044429E+02  0.96391338792E+02  0.55115770810E+03  0.59190174285E+03  0.17248064446E+03 0.  0.
         24    2    5    5    0    0  0.96482925949E+02  0.44051865597E+02  0.50135924870E+03  0.51885787157E+03  0.81258062800E+02 0.  0.
          5    1    5    5  501    0 -0.96958815204E+01  0.52339473195E+02  0.49798459398E+02  0.73043871277E+02  0.47000000000E+01 0. -1.
        -11    1    6    6    0    0 -0.13834226428E+02  0.12393776869E+02  0.59142599732E+02  0.61990633397E+02  0.00000000000E+00 0.  1.
         12    1    6    6    0    0  0.11031715238E+03  0.31658088728E+02  0.44221664897E+03  0.45686723817E+03  0.00000000000E+00 0. -1.
         -5    1    3    3    0  503 -0.46688178580E+02 -0.10330776410E+03  0.10248163294E+03  0.15289491565E+03  0.47000000000E+01 0.  1.
         11    1    4    4    0    0 -0.55750976676E+01  0.32614442355E+01  0.16998936685E+03  0.17011203242E+03  0.00000000000E+00 0. -1.
        -12    1    4    4    0    0 -0.34523768182E+02  0.36549810751E+01  0.19110216429E+02  0.39628901424E+02  0.00000000000E+00 0.  1.
<mgrwt>
<rscale>  2 0.21575661E+03</rscale>
<asrwt>0</asrwt>
<pdfrwt beam="1">  1       21 0.13825203E+00 0.21580745E+03</pdfrwt>
<pdfrwt beam="2">  1       21 0.85998982E-02 0.21580745E+03</pdfrwt>
<totfact> 0.38586054E+04</totfact>
</mgrwt>
</event>
<event>
12    1  0.1026879E-001  0.2053723E+03  0.7546771E-02  0.1145863E+00
         21   -1    0    0  501  502  0.00000000000E+00  0.00000000000E+00  0.12054107918E+04  0.12054107918E+04  0.00000000000E+00 0.  1.
         21   -1    0    0  502  503 -0.00000000000E+00 -0.00000000000E+00 -0.60410004285E+02  0.60410004285E+02  0.00000000000E+00 0. -1.
         -6    2    1    2    0  503 -0.10137166141E+03 -0.48310621210E+02  0.16036251844E+03  0.26056460402E+03  0.17195245182E+03 0.  0.
        -24    2    3    3    0    0 -0.12096616571E+03  0.14921545444E+01  0.85854403033E+02  0.16870704944E+03  0.80349550329E+02 0.  0.
          6    2    1    2  501    0  0.10137166141E+03  0.48310621210E+02  0.98463826909E+03  0.10052561921E+04  0.16857449661E+03 0.  0.
         24    2    5    5    0    0  0.13606107064E+03  0.26713745460E+02  0.76097465438E+03  0.77784185063E+03  0.82032193900E+02 0.  0.
          5    1    5    5  501    0 -0.34689409234E+02  0.21596875750E+02  0.22366361471E+03  0.22741434145E+03  0.47000000000E+01 0. -1.
        -13    1    6    6    0    0  0.11655614482E+03 -0.11876445138E+02  0.58666196897E+03  0.59824631272E+03  0.00000000000E+00 0.  1.
         14    1    6    6    0    0  0.19504925819E+02  0.38590190598E+02  0.17431268541E+03  0.17959553791E+03  0.00000000000E+00 0. -1.
         -5    1    3    3    0  503  0.19594504301E+02 -0.49802775754E+02  0.74508115410E+02  0.91857554581E+02  0.47000000000E+01 0.  1.
         13    1    4    4    0    0 -0.10388212063E+03  0.68398334532E+01  0.10115539317E+03  0.14515747269E+03  0.00000000000E+00 0. -1.
        -14    1    4    4    0    0 -0.17084045076E+02 -0.53476789088E+01 -0.15300990139E+02  0.23549576750E+02  0.00000000000E+00 0.  1.
<mgrwt>
<rscale>  2 0.20466366E+03</rscale>
<asrwt>0</asrwt>
<pdfrwt beam="1">  1       21 0.18544780E+00 0.20537229E+03</pdfrwt>
<pdfrwt beam="2">  1       21 0.92938477E-02 0.20537229E+03</pdfrwt>
<totfact> 0.15288610E+04</totfact>
</mgrwt>
</event>
<event>
12    1  0.1026879E-001  0.2528193E+03  0.7546771E-02  0.1111621E+00
         21   -1    0    0  501  502  0.00000000000E+00  0.00000000000E+00  0.12636157356E+04  0.12636157356E+04  0.00000000000E+00 0.  1.
         21   -1    0    0  502  503 -0.00000000000E+00 -0.00000000000E+00 -0.12787420583E+03  0.12787420583E+03  0.00000000000E+00 0. -1.
         -6    2    1    2    0  503  0.39063894386E+02 -0.18032024843E+03  0.26339897668E+02  0.25364567701E+03  0.17204929357E+03 0.  0.
        -24    2    3    3    0    0  0.12745649252E+02 -0.17324529832E+03 -0.27937562899E+02  0.19272903174E+03  0.78661218445E+02 0.  0.
          6    2    1    2  501    0 -0.39063894386E+02  0.18032024843E+03  0.11094016321E+04  0.11378442644E+04  0.17284735732E+03 0.  0.
         24    2    5    5    0    0 -0.40656683243E+01  0.97467921636E+02  0.91051058241E+03  0.91951166601E+03  0.83400586558E+02 0.  0.
          5    1    5    5  501    0 -0.34998226062E+02  0.82852326799E+02  0.19889104970E+03  0.21833259843E+03  0.47000000000E+01 0. -1.
        -11    1    6    6    0    0  0.27439464704E+02  0.63551860840E+02  0.33131673211E+03  0.33847088533E+03  0.00000000000E+00 0.  1.
         12    1    6    6    0    0 -0.31505133028E+02  0.33916060796E+02  0.57919385030E+03  0.58104078068E+03  0.00000000000E+00 0. -1.
         -5    1    3    3    0  503  0.26318245135E+02 -0.70749501105E+01  0.54277460567E+02  0.60916645275E+02  0.47000000000E+01 0.  1.
         13    1    4    4    0    0 -0.93489609729E+01 -0.13448148247E+03  0.85701533436E+01  0.13507819856E+03  0.00000000000E+00 0. -1.
        -14    1    4    4    0    0  0.22094610225E+02 -0.38763815857E+02 -0.36507716242E+02  0.57650833177E+02  0.00000000000E+00 0.  1.
<mgrwt>
<rscale>  2 0.25268293E+03</rscale>
<asrwt>0</asrwt>
<pdfrwt beam="1">  1       21 0.19440241E+00 0.25281928E+03</pdfrwt>
<pdfrwt beam="2">  1       21 0.19672956E-01 0.25281928E+03</pdfrwt>
<totfact> 0.32993896E+03</totfact>
</mgrwt>
</event>
<event>
12    1  0.1026879E-001  0.1788595E+03  0.7546771E-02  0.1169490E+00
         21   -1    0    0  503  502  0.00000000000E+00  0.00000000000E+00  0.10430195285E+03  0.10430195285E+03  0.00000000000E+00 0. -1.
         21   -1    0    0  501  503 -0.00000000000E+00 -0.00000000000E+00 -0.15804597201E+04  0.15804597201E+04  0.00000000000E+00 0. -1.
          6    2    1    2  501    0  0.28484483989E+00 -0.48047745281E+02 -0.14964457752E+04  0.15070967753E+04  0.17228483675E+03 0.  0.
         24    2    3    3    0    0 -0.43751840343E+02 -0.50880884513E+02 -0.58050311427E+03  0.59007970650E+03  0.81896925472E+02 0.  0.
         -6    2    1    2    0  502 -0.28484483989E+00  0.48047745281E+02  0.20288007919E+02  0.17766489770E+03  0.16983682064E+03 0.  0.
        -24    2    5    5    0    0 -0.26352962142E+02  0.86250706426E+02 -0.12456784952E+01  0.12643207003E+03  0.88599399801E+02 0.  0.
          5    1    3    3  501    0  0.44036685183E+02  0.28331392322E+01 -0.91594266092E+03  0.91701706877E+03  0.47000000000E+01 0. -1.
        -11    1    4    4    0    0  0.15365001818E+02 -0.20925559669E+00 -0.26508441691E+02  0.30640243956E+02  0.00000000000E+00 0.  1.
         12    1    4    4    0    0 -0.59116842161E+02 -0.50671628916E+02 -0.55399467258E+03  0.55943946254E+03  0.00000000000E+00 0. -1.
         -5    1    5    5    0  502  0.26068117303E+02 -0.38202961145E+02  0.21533686414E+02  0.51232827665E+02  0.47000000000E+01 0.  1.
         11    1    6    6    0    0 -0.28966830227E+02  0.89783629413E+01  0.30353816492E+02  0.42907370347E+02  0.00000000000E+00 0. -1.
        -12    1    6    6    0    0  0.26138680850E+01  0.77272343485E+02 -0.31599494987E+02  0.83524699685E+02  0.00000000000E+00 0.  1.
<mgrwt>
<rscale>  2 0.17826740E+03</rscale>
<asrwt>0</asrwt>
<pdfrwt beam="1">  1       21 0.16046455E-01 0.17885953E+03</pdfrwt>
<pdfrwt beam="2">  1       21 0.24314764E+00 0.17885953E+03</pdfrwt>
<totfact> 0.25713681E+03</totfact>
</mgrwt>
</event>
<event>
12    1  0.1026879E-001  0.2148326E+03  0.7546771E-02  0.1137895E+00
         21   -1    0    0  501  502  0.00000000000E+00  0.00000000000E+00  0.62030006309E+03  0.62030006309E+03  0.00000000000E+00 0.  1.
         21   -1    0    0  502  503 -0.00000000000E+00 -0.00000000000E+00 -0.12240056960E+03  0.12240056960E+03  0.00000000000E+00 0. -1.
         -6    2    1    2    0  503 -0.12955637154E+03  0.86290971868E+01  0.15794281734E+02  0.21489529627E+03  0.17050282784E+03 0.  0.
        -24    2    3    3    0    0 -0.59118921097E+02 -0.49375023243E+02  0.47863450294E+02  0.11806330784E+03  0.75598247549E+02 0.  0.
          6    2    1    2  501    0  0.12955637154E+03 -0.86290971868E+01  0.48210521177E+03  0.52780533642E+03  0.17115409202E+03 0.  0.
         24    2    5    5    0    0  0.11257978724E+02  0.14462940435E+02  0.28551009890E+03  0.29715521102E+03  0.80307435089E+02 0.  0.
          5    1    5    5  501    0  0.11829839281E+03 -0.23092037622E+02  0.19659511287E+03  0.23065012540E+03  0.47000000000E+01 0. -1.
        -13    1    6    6    0    0  0.39964350187E+02  0.20273776632E+02  0.23068413407E+03  0.23499647873E+03  0.00000000000E+00 0.  1.
         14    1    6    6    0    0 -0.28706371464E+02 -0.58108361962E+01  0.54825964830E+02  0.62158732286E+02  0.00000000000E+00 0. -1.
         -5    1    3    3    0  503 -0.70437450441E+02  0.58004120430E+02 -0.32069168560E+02  0.96831988432E+02  0.47000000000E+01 0.  1.
         13    1    4    4    0    0 -0.39213406376E+02 -0.26667736971E+02 -0.13811703359E+02  0.49392535716E+02  0.00000000000E+00 0. -1.
        -14    1    4    4    0    0 -0.19905514721E+02 -0.22707286272E+02  0.61675153653E+02  0.68670772125E+02  0.00000000000E+00 0.  1.
<mgrwt>
<rscale>  2 0.21470284E+03</rscale>
<asrwt>0</asrwt>
<pdfrwt beam="1">  1       21 0.95430778E-01 0.21483258E+03</pdfrwt>
<pdfrwt beam="2">  1       21 0.18830857E-01 0.21483258E+03</pdfrwt>
<totfact> 0.23363320E+04</totfact>
</mgrwt>
</event>
<event>
12    1  0.1026879E-001  0.1838800E+03  0.7546771E-02  0.1164111E+00
         21   -1    0    0  501  502  0.00000000000E+00  0.00000000000E+00  0.40962905397E+02  0.40962905397E+02  0.00000000000E+00 0.  1.
         21   -1    0    0  502  503 -0.00000000000E+00 -0.00000000000E+00 -0.11250177132E+04  0.11250177132E+04  0.00000000000E+00 0.  1.
         -6    2    1    2    0  503 -0.20804131909E+02  0.58418425547E+02 -0.84302882284E+03  0.86284961841E+03  0.17310789557E+03 0.  0.
        -24    2    3    3    0    0  0.13966710234E+02  0.52738069944E+00 -0.69448463913E+03  0.69960792934E+03  0.83348627374E+02 0.  0.
          6    2    1    2  501    0  0.20804131909E+02 -0.58418425547E+02 -0.24102598498E+03  0.30313100020E+03  0.17305881515E+03 0.  0.
         24    2    5    5    0    0  0.71869644719E+02 -0.69188120326E+01 -0.11951573336E+03  0.16154453178E+03  0.81237364776E+02 0.  0.
          5    1    5    5  501    0 -0.51065512811E+02 -0.51499613515E+02 -0.12151025162E+03  0.14158646842E+03  0.47000000000E+01 0. -1.
        -13    1    6    6    0    0  0.12999467518E+02 -0.12580090501E+02  0.89027049191E+01  0.20161919245E+02  0.00000000000E+00 0.  1.
         14    1    6    6    0    0  0.58870177202E+02  0.56612784686E+01 -0.12841843828E+03  0.14138261253E+03  0.00000000000E+00 0. -1.
         -5    1    3    3    0  503 -0.34770842143E+02  0.57891044848E+02 -0.14854418371E+03  0.16324168907E+03  0.47000000000E+01 0.  1.
         13    1    4    4    0    0  0.38205360269E+02 -0.27660536207E+02 -0.41015760008E+03  0.41286076554E+03  0.00000000000E+00 0. -1.
        -14    1    4    4    0    0 -0.24238650035E+02  0.28187916906E+02 -0.28432703905E+03  0.28674716381E+03  0.00000000000E+00 0.  1.
<mgrwt>
<rscale>  2 0.18386848E+03</rscale>
<asrwt>0</asrwt>
<pdfrwt beam="1">  1       21 0.63019853E-02 0.18388004E+03</pdfrwt>
<pdfrwt beam="2">  1       21 0.17307965E+00 0.18388004E+03</pdfrwt>
<totfact> 0.37013249E+04</totfact>
</mgrwt>
</event>
<event>
12    1  0.1026879E-001  0.3060810E+03  0.7546771E-02  0.1082388E+00
         21   -1    0    0  501  502  0.00000000000E+00  0.00000000000E+00  0.93506765011E+02  0.93506765011E+02  0.00000000000E+00 0. -1.
         21   -1    0    0  502  503 -0.00000000000E+00 -0.00000000000E+00 -0.11039459842E+04  0.11039459842E+04  0.00000000000E+00 0. -1.
         -6    2    1    2    0  503 -0.86660747398E+02 -0.23742422307E+03 -0.69164675275E+03  0.75634702886E+03  0.17264197238E+03 0.  0.
        -24    2    3    3    0    0 -0.83332449862E+02 -0.16527804685E+03 -0.32472455633E+03  0.38235486780E+03  0.80548603175E+02 0.  0.
          6    2    1    2  501    0  0.86660747398E+02  0.23742422307E+03 -0.31879246643E+03  0.44110572035E+03  0.17048540416E+03 0.  0.
         24    2    5    5    0    0  0.81085986590E+02  0.14618847846E+03 -0.11721243226E+03  0.21971999536E+03  0.81191832280E+02 0.  0.
          5    1    5    5  501    0  0.55747608082E+01  0.91235744610E+02 -0.20158003417E+03  0.22138572499E+03  0.47000000000E+01 0.  1.
        -11    1    6    6    0    0  0.25404396867E+02  0.25515737330E+02  0.82670618090E+01  0.36942936302E+02  0.00000000000E+00 0.  1.
         12    1    6    6    0    0  0.55681589723E+02  0.12067274113E+03 -0.12547949407E+03  0.18277705906E+03  0.00000000000E+00 0. -1.
         -5    1    3    3    0  503 -0.33282975363E+01 -0.72146176218E+02 -0.36692219642E+03  0.37399216106E+03  0.47000000000E+01 0.  1.
         13    1    4    4    0    0 -0.58423906354E+01 -0.89408220416E+02 -0.18433108967E+03  0.20495344356E+03  0.00000000000E+00 0. -1.
        -14    1    4    4    0    0 -0.77490059226E+02 -0.75869826437E+02 -0.14039346666E+03  0.17740142425E+03  0.00000000000E+00 0.  1.
<mgrwt>
<rscale>  2 0.30577778E+03</rscale>
<asrwt>0</asrwt>
<pdfrwt beam="1">  1       21 0.14385657E-01 0.30608103E+03</pdfrwt>
<pdfrwt beam="2">  1       21 0.16983784E+00 0.30608103E+03</pdfrwt>
<totfact> 0.84126241E+03</totfact>
</mgrwt>
</event>
<event>
12    1  0.1026879E-001  0.1963321E+03  0.7546771E-02  0.1152942E+00
         21   -1    0    0  501  502  0.00000000000E+00  0.00000000000E+00  0.34391481429E+03  0.34391481429E+03  0.00000000000E+00 0. -1.
         21   -1    0    0  502  503 -0.00000000000E+00 -0.00000000000E+00 -0.11298582783E+03  0.11298582783E+03  0.00000000000E+00 0. -1.
         -6    2    1    2    0  503  0.47386393441E+02 -0.79067356985E+02  0.13800715797E+03  0.23998390657E+03  0.17334700037E+03 0.  0.
        -24    2    3    3    0    0 -0.14920435466E+02 -0.26522510161E+02 -0.69078336585E+00  0.79041958068E+02  0.72945808747E+02 0.  0.
          6    2    1    2  501    0 -0.47386393441E+02  0.79067356985E+02  0.92921828488E+02  0.21691673556E+03  0.17297770588E+03 0.  0.
         24    2    5    5    0    0 -0.90450489761E+02  0.18346438877E+02  0.14757107909E+02  0.10887341170E+03  0.55836946761E+02 0.  0.
          5    1    5    5  501    0  0.43064096320E+02  0.60720918108E+02  0.78164720579E+02  0.10804332386E+03  0.47000000000E+01 0. -1.
        -11    1    6    6    0    0 -0.21892664044E+01 -0.39668965985E+01  0.17215908062E+02  0.17802152859E+02  0.00000000000E+00 0.  1.
         12    1    6    6    0    0 -0.88261223357E+02  0.22313335476E+02 -0.24588001524E+01  0.91071258840E+02  0.00000000000E+00 0. -1.
         -5    1    3    3    0  503  0.62306828907E+02 -0.52544846824E+02  0.13869794134E+03  0.16094194850E+03  0.47000000000E+01 0.  1.
         11    1    4    4    0    0 -0.21666191137E+02 -0.49979546660E+02 -0.27830942631E+01  0.54544702185E+02  0.00000000000E+00 0. -1.
        -12    1    4    4    0    0  0.67457556706E+01  0.23457036499E+02  0.20923108972E+01  0.24497255883E+02  0.00000000000E+00 0.  1.
<mgrwt>
<rscale>  2 0.19625057E+03</rscale>
<asrwt>0</asrwt>
<pdfrwt beam="1">  1       21 0.52909971E-01 0.19633212E+03</pdfrwt>
<pdfrwt beam="2">  1       21 0.17382435E-01 0.19633212E+03</pdfrwt>
<totfact> 0.10120837E+05</totfact>
</mgrwt>
</event>
<event>
12    1  0.1026879E-001  0.2419244E+03  0.7546771E-02  0.1119700E+00
         21   -1    0    0  503  502  0.00000000000E+00  0.00000000000E+00  0.26299279314E+03  0.26299279314E+03  0.00000000000E+00 0. -1.
         21   -1    0    0  501  503 -0.00000000000E+00 -0.00000000000E+00 -0.21736328103E+03  0.21736328103E+03  0.00000000000E+00 0. -1.
          6    2    1    2  501    0  0.15704337902E+03  0.21402770832E+02  0.41474421629E+02  0.24545376400E+03  0.18277505606E+03 0.  0.
         24    2    3    3    0    0  0.69980612250E+02  0.82741729294E+02  0.15654076470E+02  0.13576705830E+03  0.80275551395E+02 0.  0.
         -6    2    1    2    0  502 -0.15704337902E+03 -0.21402770832E+02  0.41550904883E+01  0.23490231017E+03  0.17332376944E+03 0.  0.
        -24    2    5    5    0    0 -0.46914127313E+02  0.28058200815E+02  0.49965346562E+02  0.10569120632E+03  0.75404888839E+02 0.  0.
          5    1    3    3  501    0  0.87062766771E+02 -0.61338958462E+02  0.25820345159E+02  0.10968670570E+03  0.47000000000E+01 0. -1.
        -13    1    4    4    0    0 -0.17269145305E+02  0.49662289353E+01  0.26457026761E+01  0.18162779304E+02  0.00000000000E+00 0.  1.
         14    1    4    4    0    0  0.87249757554E+02  0.77775500359E+02  0.13008373794E+02  0.11760427900E+03  0.00000000000E+00 0. -1.
         -5    1    5    5    0  502 -0.11012925171E+03 -0.49460971647E+02 -0.45810256074E+02  0.12921110385E+03  0.47000000000E+01 0.  1.
         11    1    6    6    0    0 -0.39756231244E+02  0.42952951542E+02  0.61344118812E+01  0.58848491723E+02  0.00000000000E+00 0. -1.
        -12    1    6    6    0    0 -0.71578960691E+01 -0.14894750728E+02  0.43830934681E+02  0.46842714593E+02  0.00000000000E+00 0.  1.
<mgrwt>
<rscale>  2 0.24014006E+03</rscale>
<asrwt>0</asrwt>
<pdfrwt beam="1">  1       21 0.40460430E-01 0.24192442E+03</pdfrwt>
<pdfrwt beam="2">  1       21 0.33440505E-01 0.24192442E+03</pdfrwt>
<totfact> 0.49572793E+04</totfact>
</mgrwt>
</event>
<event>
12    1  0.1026879E-001  0.1829152E+03  0.7546771E-02  0.1165342E+00
         21   -1    0    0  501  502  0.00000000000E+00  0.00000000000E+00  0.12652317224E+03  0.12652317224E+03  0.00000000000E+00 0. -1.
         21   -1    0    0  502  503 -0.00000000000E+00 -0.00000000000E+00 -0.59001478547E+03  0.59001478547E+03  0.00000000000E+00 0. -1.
         -6    2    1    2    0  503  0.57237136972E+02  0.96557427759E+01 -0.49909126906E+03  0.53155438322E+03  0.17346078593E+03 0.  0.
        -24    2    3    3    0    0  0.35599840385E+02 -0.61761815142E+02 -0.33202610812E+03  0.34852023837E+03  0.78378247213E+02 0.  0.
          6    2    1    2  501    0 -0.57237136972E+02 -0.96557427759E+01  0.35599655829E+02  0.18498357449E+03  0.17199495376E+03 0.  0.
         24    2    5    5    0    0 -0.19649944317E+02 -0.64122925334E+02  0.51205321151E+02  0.11682862003E+03  0.80802671233E+02 0.  0.
          5    1    5    5  501    0 -0.37587192655E+02  0.54467182558E+02 -0.15605665322E+02  0.68154954462E+02  0.47000000000E+01 0. -1.
        -11    1    6    6    0    0 -0.56394857318E+01 -0.53439009398E+02 -0.86557313244E+01  0.54428422809E+02  0.00000000000E+00 0.  1.
         12    1    6    6    0    0 -0.14010458585E+02 -0.10683915937E+02  0.59861052476E+02  0.62400197219E+02  0.00000000000E+00 0. -1.
         -5    1    3    3    0  503  0.21637296587E+02  0.71417557918E+02 -0.16706516094E+03  0.18303414485E+03  0.47000000000E+01 0.  1.
         11    1    4    4    0    0  0.51361287192E+02 -0.62098770235E+02 -0.20106145662E+03  0.21661013001E+03  0.00000000000E+00 0. -1.
        -12    1    4    4    0    0 -0.15761446808E+02  0.33695509265E+00 -0.13096465150E+03  0.13191010836E+03  0.00000000000E+00 0.  1.
<mgrwt>
<rscale>  2 0.18256683E+03</rscale>
<asrwt>0</asrwt>
<pdfrwt beam="1">  1       21 0.19465103E-01 0.18291519E+03</pdfrwt>
<pdfrwt beam="2">  1       21 0.90771506E-01 0.18291519E+03</pdfrwt>
<totfact> 0.25150603E+04</totfact>
</mgrwt>
</event>
<event>
12    1  0.1026879E-001  0.2603149E+03  0.7546771E-02  0.1107722E+00
         21   -1    0    0  503  502  0.00000000000E+00  0.00000000000E+00  0.29592162469E+03  0.29592162469E+03  0.00000000000E+00 0. -1.
         21   -1    0    0  501  503 -0.00000000000E+00 -0.00000000000E+00 -0.35140087502E+03  0.35140087502E+03  0.00000000000E+00 0.  1.
          6    2    1    2  501    0 -0.17138235459E+03 -0.77358948819E+02  0.16653783823E+03  0.30902860326E+03  0.18002085335E+03 0.  0.
         24    2    3    3    0    0 -0.55317398670E+02  0.15583021858E+01  0.12246871266E+03  0.16184441821E+03  0.90180858415E+02 0.  0.
         -6    2    1    2    0  502  0.17138235459E+03  0.77358948819E+02 -0.22201708855E+03  0.33829389646E+03  0.17261186038E+03 0.  0.
        -24    2    5    5    0    0  0.28938691114E+02  0.30606237260E+02 -0.27750677899E+02  0.92860521362E+02  0.77966574256E+02 0.  0.
          5    1    3    3  501    0 -0.11606495592E+03 -0.78917251005E+02  0.44069125570E+02  0.14718418504E+03  0.47000000000E+01 0. -1.
        -11    1    4    4    0    0 -0.45126679442E+02  0.40179871511E+02  0.47345277563E+02  0.76762064717E+02  0.00000000000E+00 0.  1.
         12    1    4    4    0    0 -0.10190719228E+02 -0.38621569325E+02  0.75123435096E+02  0.85082353494E+02  0.00000000000E+00 0. -1.
         -5    1    5    5    0  502  0.14244366348E+03  0.46752711559E+02 -0.19426641065E+03  0.24543337510E+03  0.47000000000E+01 0.  1.
         11    1    6    6    0    0  0.55640419563E+02  0.14825500545E+02 -0.18950533944E+02  0.60619918280E+02  0.00000000000E+00 0. -1.
        -12    1    6    6    0    0 -0.26701728449E+02  0.15780736715E+02 -0.88001439547E+01  0.32240603081E+02  0.00000000000E+00 0.  1.
<mgrwt>
<rscale>  2 0.25903861E+03</rscale>
<asrwt>0</asrwt>
<pdfrwt beam="1">  1       21 0.45526404E-01 0.26031486E+03</pdfrwt>
<pdfrwt beam="2">  1       21 0.54061673E-01 0.26031486E+03</pdfrwt>
<totfact> 0.14400847E+04</totfact>
</mgrwt>
</event>
<event>
12    1  0.1026879E-001  0.3663680E+03  0.7546771E-02  0.1056213E+00
         21   -1    0    0  501  502  0.00000000000E+00  0.00000000000E+00  0.15618881389E+03  0.15618881389E+03  0.00000000000E+00 0. -1.
         21   -1    0    0  502  503 -0.00000000000E+00 -0.00000000000E+00 -0.86856391247E+03  0.86856391247E+03  0.00000000000E+00 0.  1.
         -6    2    1    2    0  503 -0.20062273062E+03 -0.25152758271E+03 -0.41737278251E+03  0.55536074431E+03  0.17524243732E+03 0.  0.
        -24    2    3    3    0    0 -0.19022091773E+03 -0.13002706319E+03 -0.28728365902E+03  0.37699078046E+03  0.80617077041E+02 0.  0.
          6    2    1    2  501    0  0.20062273062E+03  0.25152758271E+03 -0.29500231607E+03  0.46939198204E+03  0.17258870594E+03 0.  0.
         24    2    5    5    0    0  0.16932132938E+03  0.26711673128E+03 -0.28185566971E+03  0.43173931171E+03  0.83277572109E+02 0.  0.
          5    1    5    5  501    0  0.31301401240E+02 -0.15589148574E+02 -0.13146646360E+02  0.37652670335E+02  0.47000000000E+01 0. -1.
        -11    1    6    6    0    0  0.26956605886E+02  0.97634321433E+02 -0.57017381203E+02  0.11623296039E+03  0.00000000000E+00 0.  1.
         12    1    6    6    0    0  0.14236472349E+03  0.16948240985E+03 -0.22483828850E+03  0.31550635132E+03  0.00000000000E+00 0. -1.
         -5    1    3    3    0  503 -0.10401812895E+02 -0.12150051951E+03 -0.13008912349E+03  0.17836996385E+03  0.47000000000E+01 0.  1.
         11    1    4    4    0    0 -0.12550892437E+03 -0.12812087291E+03 -0.21309999694E+03  0.27853017227E+03  0.00000000000E+00 0. -1.
        -12    1    4    4    0    0 -0.64711993352E+02 -0.19061902866E+01 -0.74183662085E+02  0.98460608191E+02  0.00000000000E+00 0.  1.
<mgrwt>
<rscale>  2 0.36605212E+03</rscale>
<asrwt>0</asrwt>
<pdfrwt beam="1">  1       21 0.24029048E-01 0.36636801E+03</pdfrwt>
<pdfrwt beam="2">  1       21 0.13362522E+00 0.36636801E+03</pdfrwt>
<totfact> 0.59565801E+03</totfact>
</mgrwt>
</event>
<event>
12    1  0.1026879E-001  0.2665788E+03  0.7546771E-02  0.1103318E+00
         21   -1    0    0  503  502  0.00000000000E+00  0.00000000000E+00  0.81821903790E+02  0.81821903790E+02  0.00000000000E+00 0. -1.
         21   -1    0    0  501  503 -0.00000000000E+00 -0.00000000000E+00 -0.10849355653E+04  0.10849355653E+04  0.00000000000E+00 0.  1.
          6    2    1    2  501    0  0.65861626239E+02  0.19233554251E+03 -0.76329206987E+03  0.80850419256E+03  0.17243413451E+03 0.  0.
         24    2    3    3    0    0  0.42128221070E+02  0.45372990450E+02 -0.45448634988E+03  0.46565680826E+03  0.80280293812E+02 0.  0.
         -6    2    1    2    0  502 -0.65861626239E+02 -0.19233554251E+03 -0.23982159162E+03  0.35825327651E+03  0.17175651253E+03 0.  0.
        -24    2    5    5    0    0 -0.69832727969E+02 -0.19961066767E+03 -0.15919183643E+03  0.27706248567E+03  0.81856897290E+02 0.  0.
          5    1    3    3  501    0  0.23733405170E+02  0.14696255206E+03 -0.30880571999E+03  0.34284738431E+03  0.47000000000E+01 0. -1.
        -13    1    4    4    0    0  0.24986221886E+02  0.68029915920E+02 -0.30475765028E+03  0.31325645428E+03  0.00000000000E+00 0.  1.
         14    1    4    4    0    0  0.17141999184E+02 -0.22656925470E+02 -0.14972869960E+03  0.15240035397E+03  0.00000000000E+00 0. -1.
         -5    1    5    5    0  502  0.39711017297E+01  0.72751251635E+01 -0.80629755191E+02  0.81190790840E+02  0.47000000000E+01 0.  1.
         13    1    6    6    0    0 -0.19659530613E+02 -0.12898336431E+03 -0.13356770773E+03  0.18671780301E+03  0.00000000000E+00 0. -1.
        -14    1    6    6    0    0 -0.50173197356E+02 -0.70627303358E+02 -0.25624128704E+02  0.90344682657E+02  0.00000000000E+00 0.  1.
<mgrwt>
<rscale>  2 0.26646926E+03</rscale>
<asrwt>0</asrwt>
<pdfrwt beam="1">  1       21 0.12587985E-01 0.26657878E+03</pdfrwt>
<pdfrwt beam="2">  1       21 0.16691317E+00 0.26657878E+03</pdfrwt>
<totfact> 0.11503753E+04</totfact>
</mgrwt>
</event>
<event>
12    1  0.1026879E-001  0.2318122E+03  0.7546771E-02  0.1125372E+00
         21   -1    0    0  503  502  0.00000000000E+00  0.00000000000E+00  0.16053768721E+03  0.16053768721E+03  0.00000000000E+00 0. -1.
         21   -1    0    0  501  503 -0.00000000000E+00 -0.00000000000E+00 -0.10451440275E+04  0.10451440275E+04  0.00000000000E+00 0.  1.
          6    2    1    2  501    0  0.15233701062E+03  0.18607804496E+02 -0.93932424905E+03  0.96750553597E+03  0.17373572488E+03 0.  0.
         24    2    3    3    0    0  0.62356778224E+01  0.20158707485E+02 -0.41566118407E+03  0.42382079243E+03  0.80028663523E+02 0.  0.
         -6    2    1    2    0  502 -0.15233701062E+03 -0.18607804496E+02  0.54717908718E+02  0.23817617877E+03  0.17372687589E+03 0.  0.
        -24    2    5    5    0    0 -0.99429976742E+02  0.26443836340E+02  0.84941594166E+02  0.16225275855E+03  0.92332477941E+02 0.  0.
          5    1    3    3  501    0  0.14610133280E+03 -0.15509029893E+01 -0.52366306498E+03  0.54368474355E+03  0.47000000000E+01 0. -1.
        -11    1    4    4    0    0  0.86872250388E-01  0.48621588681E+02 -0.32448209422E+03  0.32810470265E+03  0.00000000000E+00 0.  1.
         12    1    4    4    0    0  0.61488055721E+01 -0.28462881196E+02 -0.91179089845E+02  0.95716089771E+02  0.00000000000E+00 0. -1.
         -5    1    5    5    0  502 -0.52907033878E+02 -0.45051640836E+02 -0.30223685448E+02  0.75923420219E+02  0.47000000000E+01 0.  1.
         11    1    6    6    0    0 -0.65135496968E+02 -0.26229618068E+02  0.66596020838E+02  0.96776318491E+02  0.00000000000E+00 0. -1.
        -12    1    6    6    0    0 -0.34294479774E+02  0.52673454408E+02  0.18345573328E+02  0.65476440060E+02  0.00000000000E+00 0.  1.
<mgrwt>
<rscale>  2 0.23181059E+03</rscale>
<asrwt>0</asrwt>
<pdfrwt beam="1">  1       21 0.24698106E-01 0.23181225E+03</pdfrwt>
<pdfrwt beam="2">  1       21 0.16079139E+00 0.23181225E+03</pdfrwt>
<totfact> 0.37257830E+03</totfact>
</mgrwt>
</event>
<event>
12    1  0.1026879E-001  0.1808475E+03  0.7546771E-02  0.1167216E+00
         21   -1    0    0  503  502  0.00000000000E+00  0.00000000000E+00  0.81314921327E+02  0.81314921327E+02  0.00000000000E+00 0.  1.
         21   -1    0    0  501  503 -0.00000000000E+00 -0.00000000000E+00 -0.41046813020E+03  0.41046813020E+03  0.00000000000E+00 0.  1.
          6    2    1    2  501    0  0.25426951186E+02 -0.41857587150E+02 -0.20411352043E+03  0.27270520827E+03  0.17408967214E+03 0.  0.
         24    2    3    3    0    0  0.17289207594E+02 -0.24504944910E+02 -0.22698257760E+03  0.24249890363E+03  0.79907563495E+02 0.  0.
         -6    2    1    2    0  502 -0.25426951186E+02  0.41857587150E+02 -0.12503968844E+03  0.21907784326E+03  0.17309416591E+03 0.  0.
        -24    2    5    5    0    0 -0.51878250151E+02 -0.22375987867E+02 -0.11679867544E+03  0.14896630589E+03  0.73191475151E+02 0.  0.
          5    1    3    3  501    0  0.81377435926E+01 -0.17352642241E+02  0.22869057175E+02  0.30206304633E+02  0.47000000000E+01 0. -1.
        -11    1    4    4    0    0 -0.12684395935E+01 -0.51883306991E+02 -0.14950193453E+03  0.15825395701E+03  0.00000000000E+00 0.  1.
         12    1    4    4    0    0  0.18557647187E+02  0.27378362081E+02 -0.77480643078E+02  0.84244946620E+02  0.00000000000E+00 0. -1.
         -5    1    5    5    0  502  0.26451298965E+02  0.64233575017E+02 -0.82410130024E+01  0.70111537365E+02  0.47000000000E+01 0.  1.
         13    1    6    6    0    0 -0.26605695632E+02 -0.40616071952E+02 -0.30812973833E+02  0.57506240507E+02  0.00000000000E+00 0. -1.
        -14    1    6    6    0    0 -0.25272554518E+02  0.18240084084E+02 -0.85985701605E+02  0.91460065383E+02  0.00000000000E+00 0.  1.
<mgrwt>
<rscale>  2 0.18060745E+03</rscale>
<asrwt>0</asrwt>
<pdfrwt beam="1">  1       21 0.12509988E-01 0.18084745E+03</pdfrwt>
<pdfrwt beam="2">  1       21 0.63148943E-01 0.18084745E+03</pdfrwt>
<totfact> 0.12691801E+05</totfact>
</mgrwt>
</event>
<event>
12    1  0.1026879E-001  0.1838955E+03  0.7546771E-02  0.1165780E+00
         21   -1    0    0  501  502  0.00000000000E+00  0.00000000000E+00  0.36670945090E+03  0.36670945090E+03  0.00000000000E+00 0.  1.
         21   -1    0    0  502  503 -0.00000000000E+00 -0.00000000000E+00 -0.19686891249E+03  0.19686891249E+03  0.00000000000E+00 0.  1.
         -6    2    1    2    0  503  0.24751667005E+02  0.34486300694E+02 -0.12317369189E+03  0.22133533018E+03  0.17892909226E+03 0.  0.
        -24    2    3    3    0    0 -0.74710689640E+00  0.57815578025E+02 -0.49592955514E+01  0.98082840742E+02  0.79072433911E+02 0.  0.
          6    2    1    2  501    0 -0.24751667005E+02 -0.34486300694E+02  0.29301423030E+03  0.34224303321E+03  0.17167121094E+03 0.  0.
         24    2    5    5    0    0 -0.34464815658E+02 -0.64767073792E+02  0.28960587892E+03  0.30991692402E+03  0.82427770327E+02 0.  0.
          5    1    5    5  501    0  0.97131486533E+01  0.30280773098E+02  0.34083513812E+01  0.32326109189E+02  0.47000000000E+01 0. -1.
        -11    1    6    6    0    0 -0.57556535119E+02 -0.42651943916E+02  0.14391769529E+03  0.16076145705E+03  0.00000000000E+00 0.  1.
         12    1    6    6    0    0  0.23091719461E+02 -0.22115129876E+02  0.14568818363E+03  0.14915546697E+03  0.00000000000E+00 0. -1.
         -5    1    3    3    0  503  0.25498773901E+02 -0.23329277331E+02 -0.11821439634E+03  0.12325248944E+03  0.47000000000E+01 0.  1.
         13    1    4    4    0    0  0.14259763108E+02  0.19213201861E+02  0.33764628689E+02  0.41382823975E+02  0.00000000000E+00 0. -1.
        -14    1    4    4    0    0 -0.15006870004E+02  0.38602376164E+02 -0.38723924241E+02  0.56700016767E+02  0.00000000000E+00 0.  1.
<mgrwt>
<rscale>  2 0.18210611E+03</rscale>
<asrwt>0</asrwt>
<pdfrwt beam="1">  1       21 0.56416839E-01 0.18389554E+03</pdfrwt>
<pdfrwt beam="2">  1       21 0.30287525E-01 0.18389554E+03</pdfrwt>
<totfact> 0.31058381E+04</totfact>
</mgrwt>
</event>
<event>
12    1  0.1026879E-001  0.1969733E+03  0.7546771E-02  0.1152605E+00
         21   -1    0    0  503  502  0.00000000000E+00  0.00000000000E+00  0.59305123801E+03  0.59305123801E+03  0.00000000000E+00 0.  1.
         21   -1    0    0  501  503 -0.00000000000E+00 -0.00000000000E+00 -0.65014568609E+02  0.65014568609E+02  0.00000000000E+00 0.  1.
          6    2    1    2  501    0 -0.91279331304E+02  0.17681923036E+02  0.25753141311E+03  0.32422355965E+03  0.17364884441E+03 0.  0.
         24    2    3    3    0    0 -0.43639080066E+01 -0.37890240735E+01  0.20557876885E+03  0.22060667095E+03  0.79820252255E+02 0.  0.
         -6    2    1    2    0  502  0.91279331304E+02 -0.17681923036E+02  0.27050525629E+03  0.33384224698E+03  0.17214234069E+03 0.  0.
        -24    2    5    5    0    0 -0.17998915577E+02 -0.24000150328E+02  0.10707566403E+03  0.13708611146E+03  0.80171291304E+02 0.  0.
          5    1    3    3  501    0 -0.86915423297E+02  0.21470947109E+02  0.51952644260E+02  0.10361688869E+03  0.47000000000E+01 0. -1.
        -13    1    4    4    0    0 -0.39098324018E+02 -0.27403753100E+01  0.65940885256E+02  0.76709770865E+02  0.00000000000E+00 0.  1.
         14    1    4    4    0    0  0.34734416011E+02 -0.10486487636E+01  0.13963788360E+03  0.14389690009E+03  0.00000000000E+00 0. -1.
         -5    1    5    5    0  502  0.10927824688E+03  0.63182272925E+01  0.16342959226E+03  0.19675613552E+03  0.47000000000E+01 0.  1.
         13    1    6    6    0    0  0.43533016858E+01 -0.12057298196E+02  0.11074031333E+03  0.11147980388E+03  0.00000000000E+00 0. -1.
        -14    1    6    6    0    0 -0.22352217263E+02 -0.11942852132E+02 -0.36646492987E+01  0.25606307584E+02  0.00000000000E+00 0.  1.
<mgrwt>
<rscale>  2 0.19664077E+03</rscale>
<asrwt>0</asrwt>
<pdfrwt beam="1">  1       21 0.91238648E-01 0.19697332E+03</pdfrwt>
<pdfrwt beam="2">  1       21 0.10002242E-01 0.19697332E+03</pdfrwt>
<totfact> 0.82400105E+04</totfact>
</mgrwt>
</event>
<event>
12    1  0.1026879E-001  0.1798568E+03  0.7546771E-02  0.1168284E+00
         21   -1    0    0  501  502  0.00000000000E+00  0.00000000000E+00  0.22313297237E+04  0.22313297237E+04  0.00000000000E+00 0.  1.
         21   -1    0    0  502  503 -0.00000000000E+00 -0.00000000000E+00 -0.17197338375E+02  0.17197338375E+02  0.00000000000E+00 0.  1.
         -6    2    1    2    0  503  0.43137279243E+02  0.29539996182E+02  0.65598898595E+03  0.68019851889E+03  0.17209020649E+03 0.  0.
        -24    2    3    3    0    0  0.17762746488E+02  0.49154480748E+02  0.18560194574E+03  0.20869597115E+03  0.79838887602E+02 0.  0.
          6    2    1    2  501    0 -0.43137279243E+02 -0.29539996182E+02  0.15581433993E+04  0.15683285432E+04  0.17061691046E+03 0.  0.
         24    2    5    5    0    0 -0.63907943928E+02 -0.54779215883E+02  0.70469102189E+03  0.71423751212E+03  0.80379099243E+02 0.  0.
          5    1    5    5  501    0  0.20770664685E+02  0.25239219701E+02  0.85345237745E+03  0.85409103104E+03  0.47000000000E+01 0. -1.
        -11    1    6    6    0    0  0.70663081062E+01 -0.12699433458E+02  0.34077825202E+03  0.34108800239E+03  0.00000000000E+00 0.  1.
         12    1    6    6    0    0 -0.70974252034E+02 -0.42079782425E+02  0.36391276987E+03  0.37314950973E+03  0.00000000000E+00 0. -1.
         -5    1    3    3    0  503  0.25374532755E+02 -0.19614484567E+02  0.47038704022E+03  0.47150254774E+03  0.47000000000E+01 0.  1.
         11    1    4    4    0    0 -0.19095022440E+02  0.48784220545E+01  0.11906214114E+03  0.12068227847E+03  0.00000000000E+00 0. -1.
        -12    1    4    4    0    0  0.36857768928E+02  0.44276058694E+02  0.66539804594E+02  0.88013692681E+02  0.00000000000E+00 0.  1.
<mgrwt>
<rscale>  2 0.17950349E+03</rscale>
<asrwt>0</asrwt>
<pdfrwt beam="1">  1       21 0.34328127E+00 0.17985682E+03</pdfrwt>
<pdfrwt beam="2">  1       21 0.26457461E-02 0.17985682E+03</pdfrwt>
<totfact> 0.15138465E+04</totfact>
</mgrwt>
</event>
<event>
12    1  0.1026879E-001  0.1889263E+03  0.7546771E-02  0.1159566E+00
         21   -1    0    0  501  502  0.00000000000E+00  0.00000000000E+00  0.19055617715E+03  0.19055617715E+03  0.00000000000E+00 0.  1.
         21   -1    0    0  502  503 -0.00000000000E+00 -0.00000000000E+00 -0.34149979985E+03  0.34149979985E+03  0.00000000000E+00 0.  1.
         -6    2    1    2    0  503 -0.74084792637E+02 -0.44368745306E+01 -0.25462562130E+03  0.31706048378E+03  0.17373802403E+03 0.  0.
        -24    2    3    3    0    0  0.46279413710E+01  0.45801231853E+02 -0.12247465604E+03  0.15517926359E+03  0.83434955490E+02 0.  0.
          6    2    1    2  501    0  0.74084792637E+02  0.44368745306E+01  0.10368199860E+03  0.21499549323E+03  0.17310361902E+03 0.  0.
         24    2    5    5    0    0  0.41718633690E+02  0.36141922408E+02  0.12908498495E+03  0.16284014814E+03  0.82506348570E+02 0.  0.
          5    1    5    5  501    0  0.32366158947E+02 -0.31705047877E+02 -0.25402986347E+02  0.52155345088E+02  0.47000000000E+01 0. -1.
        -13    1    6    6    0    0  0.64289538679E+02  0.11851291195E+02  0.94693637208E+02  0.11506729689E+03  0.00000000000E+00 0.  1.
         14    1    6    6    0    0 -0.22570904989E+02  0.24290631213E+02  0.34391347741E+02  0.47772851246E+02  0.00000000000E+00 0. -1.
         -5    1    3    3    0  503 -0.78712734008E+02 -0.50238106383E+02 -0.13215096526E+03  0.16188122018E+03  0.47000000000E+01 0.  1.
         13    1    4    4    0    0 -0.23854186732E+02  0.48141044090E+02 -0.11291357622E+03  0.12504422435E+03  0.00000000000E+00 0. -1.
        -14    1    4    4    0    0  0.28482128103E+02 -0.23398122368E+01 -0.95610798205E+01  0.30135039239E+02  0.00000000000E+00 0.  1.
<mgrwt>
<rscale>  2 0.18878031E+03</rscale>
<asrwt>0</asrwt>
<pdfrwt beam="1">  1       21 0.29316335E-01 0.18892629E+03</pdfrwt>
<pdfrwt beam="2">  1       21 0.52538430E-01 0.18892629E+03</pdfrwt>
<totfact> 0.38359502E+04</totfact>
</mgrwt>
</event>
<event>
12    1  0.1026879E-001  0.2708779E+03  0.7546771E-02  0.1100907E+00
         21   -1    0    0  501  502  0.00000000000E+00  0.00000000000E+00  0.99524850937E+03  0.99524850937E+03  0.00000000000E+00 0. -1.
         21   -1    0    0  502  503 -0.00000000000E+00 -0.00000000000E+00 -0.91326146859E+02  0.91326146859E+02  0.00000000000E+00 0. -1.
         -6    2    1    2    0  503 -0.20546688635E+03  0.31536999881E+02  0.69151650443E+03  0.74234935196E+03  0.17226799098E+03 0.  0.
        -24    2    3    3    0    0 -0.14937967385E+03  0.48844300287E+02  0.64024876579E+03  0.66427381752E+03  0.81493373489E+02 0.  0.
          6    2    1    2  501    0  0.20546688635E+03 -0.31536999881E+02  0.21240585809E+03  0.34422530427E+03  0.17367667604E+03 0.  0.
         24    2    5    5    0    0  0.20639964560E+03 -0.10846780176E+02  0.12752039742E+03  0.25672338049E+03  0.83228456626E+02 0.  0.
          5    1    5    5  501    0 -0.93275924602E+00 -0.20690219705E+02  0.84885460669E+02  0.87501923774E+02  0.47000000000E+01 0. -1.
        -11    1    6    6    0    0  0.12592915698E+03  0.33385062348E+02  0.64661292654E+02  0.14544345201E+03  0.00000000000E+00 0.  1.
         12    1    6    6    0    0  0.80470488616E+02 -0.44231842524E+02  0.62859104764E+02  0.11127992848E+03  0.00000000000E+00 0. -1.
         -5    1    3    3    0  503 -0.56087212498E+02 -0.17307300406E+02  0.51267738643E+02  0.78075534444E+02  0.47000000000E+01 0.  1.
         11    1    4    4    0    0 -0.12290241803E+03  0.17928659429E+01  0.45636296414E+03  0.47262604008E+03  0.00000000000E+00 0. -1.
        -12    1    4    4    0    0 -0.26477255818E+02  0.47051434344E+02  0.18388580165E+03  0.19164777744E+03  0.00000000000E+00 0.  1.
<mgrwt>
<rscale>  2 0.27065231E+03</rscale>
<asrwt>0</asrwt>
<pdfrwt beam="1">  1       21 0.15311515E+00 0.27087785E+03</pdfrwt>
<pdfrwt beam="2">  1       21 0.14050177E-01 0.27087785E+03</pdfrwt>
<totfact> 0.11895930E+04</totfact>
</mgrwt>
</event>
<event>
12    1  0.1026879E-001  0.1889591E+03  0.7546771E-02  0.1161165E+00
         21   -1    0    0  503  502  0.00000000000E+00  0.00000000000E+00  0.17471419847E+03  0.17471419847E+03  0.00000000000E+00 0. -1.
         21   -1    0    0  501  503 -0.00000000000E+00 -0.00000000000E+00 -0.20725984848E+03  0.20725984848E+03  0.00000000000E+00 0. -1.
          6    2    1    2  501    0 -0.74641998907E+02 -0.18467743847E+02 -0.59981397297E+02  0.19103362493E+03  0.16426683253E+03 0.  0.
         24    2    3    3    0    0 -0.57567821029E+02  0.43227497145E+02 -0.52135447104E+01  0.10665686279E+03  0.78522829835E+02 0.  0.
         -6    2    1    2    0  502  0.74641998907E+02  0.18467743847E+02  0.27435747278E+02  0.19094042202E+03  0.17260660175E+03 0.  0.
        -24    2    5    5    0    0  0.84419267637E+02 -0.87821621929E+01  0.72374929092E+02  0.13727691091E+03  0.80019252595E+02 0.  0.
          5    1    3    3  501    0 -0.17074177878E+02 -0.61695240992E+02 -0.54767852587E+02  0.84376762134E+02  0.47000000000E+01 0. -1.
        -13    1    4    4    0    0  0.14410847643E+02  0.30045790401E+02 -0.44564343683E+00  0.33325975585E+02  0.00000000000E+00 0.  1.
         14    1    4    4    0    0 -0.71978668672E+02  0.13181706744E+02 -0.47679012735E+01  0.73330887210E+02  0.00000000000E+00 0. -1.
         -5    1    5    5    0  502 -0.97772687294E+01  0.27249906040E+02 -0.44939181814E+02  0.53663511114E+02  0.47000000000E+01 0.  1.
         13    1    6    6    0    0  0.10951645465E+02  0.13080587547E+02 -0.13801259491E+02  0.21943451700E+02  0.00000000000E+00 0. -1.
        -14    1    6    6    0    0  0.73467622172E+02 -0.21862749740E+02  0.86176188583E+02  0.11533345921E+03  0.00000000000E+00 0.  1.
<mgrwt>
<rscale>  2 0.18703324E+03</rscale>
<asrwt>0</asrwt>
<pdfrwt beam="1">  1       21 0.26879107E-01 0.18895906E+03</pdfrwt>
<pdfrwt beam="2">  1       21 0.31886131E-01 0.18895906E+03</pdfrwt>
<totfact> 0.12484539E+05</totfact>
</mgrwt>
</event>
<event>
12    1  0.1026879E-001  0.1916952E+03  0.7546771E-02  0.1157768E+00
         21   -1    0    0  501  502  0.00000000000E+00  0.00000000000E+00  0.48723623967E+03  0.48723623967E+03  0.00000000000E+00 0. -1.
         21   -1    0    0  502  503 -0.00000000000E+00 -0.00000000000E+00 -0.12168229318E+03  0.12168229318E+03  0.00000000000E+00 0. -1.
         -6    2    1    2    0  503 -0.69578062607E+02  0.47850329595E+02 -0.89160029406E+01  0.18823482662E+03  0.16799432730E+03 0.  0.
        -24    2    3    3    0    0 -0.27478504897E+02  0.91761257228E+02 -0.18136006951E+02  0.12652874265E+03  0.80656130637E+02 0.  0.
          6    2    1    2  501    0  0.69578062607E+02 -0.47850329595E+02  0.37446994943E+03  0.42068370623E+03  0.17209380239E+03 0.  0.
         24    2    5    5    0    0  0.85284433564E+02 -0.36309645908E+02  0.18531332079E+03  0.23046751967E+03  0.10090800646E+03 0.  0.
          5    1    5    5  501    0 -0.15706370957E+02 -0.11540683687E+02  0.18915662864E+03  0.19021618656E+03  0.47000000000E+01 0. -1.
        -13    1    6    6    0    0  0.22460357967E+02  0.34058507944E+02  0.39399400620E+02  0.56716509171E+02  0.00000000000E+00 0.  1.
         14    1    6    6    0    0  0.62824075597E+02 -0.70368153852E+02  0.14591392017E+03  0.17375101050E+03  0.00000000000E+00 0. -1.
         -5    1    3    3    0  503 -0.42099557710E+02 -0.43910927633E+02  0.92200040100E+01  0.61706083970E+02  0.47000000000E+01 0.  1.
         13    1    4    4    0    0  0.13587177877E+02  0.48725595193E+02 -0.38591810404E+02  0.63624860391E+02  0.00000000000E+00 0. -1.
        -14    1    4    4    0    0 -0.41065682774E+02  0.43035662035E+02  0.20455803453E+02  0.62903882260E+02  0.00000000000E+00 0.  1.
<mgrwt>
<rscale>  2 0.19077060E+03</rscale>
<asrwt>0</asrwt>
<pdfrwt beam="1">  1       21 0.74959420E-01 0.19169517E+03</pdfrwt>
<pdfrwt beam="2">  1       21 0.18720353E-01 0.19169517E+03</pdfrwt>
<totfact> 0.41581260E+04</totfact>
</mgrwt>
</event>
<event>
12    1  0.1026879E-001  0.2199732E+03  0.7546771E-02  0.1133924E+00
         21   -1    0    0  501  502  0.00000000000E+00  0.00000000000E+00  0.75229818153E+02  0.75229818153E+02  0.00000000000E+00 0.  1.
         21   -1    0    0  502  503 -0.00000000000E+00 -0.00000000000E+00 -0.90619916205E+03  0.90619916205E+03  0.00000000000E+00 0. -1.
         -6    2    1    2    0  503 -0.55155190862E+02 -0.12515388852E+03 -0.68008627038E+03  0.71477658363E+03  0.17228650107E+03 0.  0.
        -24    2    3    3    0    0 -0.90647984111E+02 -0.11281064156E+03 -0.63529727657E+03  0.65612304081E+03  0.77146077015E+02 0.  0.
          6    2    1    2  501    0  0.55155190862E+02  0.12515388852E+03 -0.15088307351E+03  0.26665239657E+03  0.17214008201E+03 0.  0.
         24    2    5    5    0    0  0.26208808413E+02  0.42712364369E+02 -0.15147377256E+03  0.17914847159E+03  0.81477747816E+02 0.  0.
          5    1    5    5  501    0  0.28946382449E+02  0.82441524153E+02  0.59069905503E+00  0.87503924980E+02  0.47000000000E+01 0. -1.
        -13    1    6    6    0    0  0.25157819859E+02 -0.19887179701E+02 -0.39698263541E+02  0.51033008383E+02  0.00000000000E+00 0.  1.
         14    1    6    6    0    0  0.10509885548E+01  0.62599544070E+02 -0.11177550902E+03  0.12811546321E+03  0.00000000000E+00 0. -1.
         -5    1    3    3    0  503  0.35492793249E+02 -0.12343246957E+02 -0.44788993817E+02  0.58653542819E+02  0.47000000000E+01 0.  1.
         13    1    4    4    0    0 -0.32572809354E+02 -0.36261341334E+02 -0.38402107007E+03  0.38710212482E+03  0.00000000000E+00 0. -1.
        -14    1    4    4    0    0 -0.58075174757E+02 -0.76549300231E+02 -0.25127620650E+03  0.26902091599E+03  0.00000000000E+00 0.  1.
<mgrwt>
<rscale>  2 0.21994458E+03</rscale>
<asrwt>0</asrwt>
<pdfrwt beam="1">  1       21 0.11573818E-01 0.21997325E+03</pdfrwt>
<pdfrwt beam="2">  1       21 0.13941526E+00 0.21997325E+03</pdfrwt>
<totfact> 0.22258247E+04</totfact>
</mgrwt>
</event>
<event>
12    1  0.1026879E-001  0.2178093E+03  0.7546771E-02  0.1136074E+00
         21   -1    0    0  501  502  0.00000000000E+00  0.00000000000E+00  0.17892981749E+04  0.17892981749E+04  0.00000000000E+00 0.  1.
         21   -1    0    0  502  503 -0.00000000000E+00 -0.00000000000E+00 -0.10025823919E+03  0.10025823919E+03  0.00000000000E+00 0.  1.
         -6    2    1    2    0  503  0.11255632319E+03 -0.61276959571E+02  0.30862121145E+02  0.21713464878E+03  0.17254330909E+03 0.  0.
        -24    2    3    3    0    0  0.10742082725E+03  0.13607804096E+02  0.37870787966E+02  0.14160112934E+03  0.83019737347E+02 0.  0.
          6    2    1    2  501    0 -0.11255632319E+03  0.61276959571E+02  0.16581778146E+04  0.16724217653E+04  0.17611673607E+03 0.  0.
         24    2    5    5    0    0 -0.51924117015E+01  0.26859840789E+02  0.10614483712E+04  0.10651165158E+04  0.83976992346E+02 0.  0.
          5    1    5    5  501    0 -0.10736391149E+03  0.34417118783E+02  0.59672944338E+03  0.60730524956E+03  0.47000000000E+01 0. -1.
        -13    1    6    6    0    0 -0.31389582460E+02  0.39404261528E+02  0.87204112273E+03  0.87349511816E+03  0.00000000000E+00 0.  1.
         14    1    6    6    0    0  0.26197170759E+02 -0.12544420739E+02  0.18940724846E+03  0.19162139760E+03  0.00000000000E+00 0. -1.
         -5    1    3    3    0  503  0.51354959432E+01 -0.74884763668E+02 -0.70086668215E+01  0.75533519438E+02  0.47000000000E+01 0.  1.
         13    1    4    4    0    0  0.13287303294E+02 -0.38637616707E+01  0.43546137976E+02  0.45691872534E+02  0.00000000000E+00 0. -1.
        -14    1    4    4    0    0  0.94133523958E+02  0.17471565767E+02 -0.56753500100E+01  0.95909256804E+02  0.00000000000E+00 0.  1.
<mgrwt>
<rscale>  2 0.21708593E+03</rscale>
<asrwt>0</asrwt>
<pdfrwt beam="1">  1       21 0.27527662E+00 0.21780931E+03</pdfrwt>
<pdfrwt beam="2">  1       21 0.15424346E-01 0.21780931E+03</pdfrwt>
<totfact> 0.17155372E+03</totfact>
</mgrwt>
</event>
<event>
12    1  0.1026879E-001  0.1857984E+03  0.7546771E-02  0.1162462E+00
         21   -1    0    0  503  502  0.00000000000E+00  0.00000000000E+00  0.55408460070E+03  0.55408460070E+03  0.00000000000E+00 0.  1.
         21   -1    0    0  501  503 -0.00000000000E+00 -0.00000000000E+00 -0.14159069838E+03  0.14159069838E+03  0.00000000000E+00 0. -1.
          6    2    1    2  501    0 -0.32812592797E+02 -0.57938655014E+02  0.46674490509E+03  0.50211856101E+03  0.17273878805E+03 0.  0.
         24    2    3    3    0    0 -0.38583889273E+02 -0.95063654136E+02  0.24729285330E+03  0.27942400235E+03  0.79988767635E+02 0.  0.
         -6    2    1    2    0  502  0.32812592797E+02  0.57938655014E+02 -0.54251002773E+02  0.19355673806E+03  0.17345744595E+03 0.  0.
        -24    2    5    5    0    0  0.63848217830E+02 -0.59910253410E+01  0.24889569509E+01  0.10249781713E+03  0.79919461367E+02 0.  0.
          5    1    3    3  501    0  0.57712964759E+01  0.37124999122E+02  0.21945205179E+03  0.22269455866E+03  0.47000000000E+01 0. -1.
        -13    1    4    4    0    0  0.14863859932E+02 -0.68149730859E+02  0.14521748786E+03  0.16110071052E+03  0.00000000000E+00 0.  1.
         14    1    4    4    0    0 -0.53447749205E+02 -0.26913923277E+02  0.10207536544E+03  0.11832329184E+03  0.00000000000E+00 0. -1.
         -5    1    5    5    0  502 -0.31035625033E+02  0.63929680355E+02 -0.56739959724E+02  0.91058920930E+02  0.47000000000E+01 0.  1.
         13    1    6    6    0    0  0.46865024879E+02  0.34727276502E+02  0.24224615239E+01  0.58379642085E+02  0.00000000000E+00 0. -1.
        -14    1    6    6    0    0  0.16983192952E+02 -0.40718301843E+02  0.66495427019E-01  0.44118175046E+02  0.00000000000E+00 0.  1.
<mgrwt>
<rscale>  2 0.18563047E+03</rscale>
<asrwt>0</asrwt>
<pdfrwt beam="1">  1       21 0.85243784E-01 0.18579838E+03</pdfrwt>
<pdfrwt beam="2">  1       21 0.21783185E-01 0.18579838E+03</pdfrwt>
<totfact> 0.23505399E+04</totfact>
</mgrwt>
</event>
<event>
12    1  0.1026879E-001  0.2008306E+03  0.7546771E-02  0.1149126E+00
         21   -1    0    0  501  502  0.00000000000E+00  0.00000000000E+00  0.14425494233E+03  0.14425494233E+03  0.00000000000E+00 0. -1.
         21   -1    0    0  502  503 -0.00000000000E+00 -0.00000000000E+00 -0.98092147773E+03  0.98092147773E+03  0.00000000000E+00 0. -1.
         -6    2    1    2    0  503 -0.89892855746E+02 -0.45962412259E+02 -0.89434670793E+03  0.91661821950E+03  0.17360776909E+03 0.  0.
        -24    2    3    3    0    0 -0.82130690370E+02 -0.59755207240E+02 -0.89005485559E+03  0.89955942701E+03  0.81813089925E+02 0.  0.
          6    2    1    2  501    0  0.89892855746E+02  0.45962412259E+02  0.57680172525E+02  0.20855820055E+03  0.17313651221E+03 0.  0.
         24    2    5    5    0    0  0.13005945281E+03  0.27486555496E+02  0.54681404896E+02  0.16399593614E+03  0.78953397840E+02 0.  0.
          5    1    5    5  501    0 -0.40166597060E+02  0.18475856763E+02  0.29987676291E+01  0.44562264415E+02  0.47000000000E+01 0. -1.
        -13    1    6    6    0    0  0.82446868561E+02  0.44592450592E+02  0.62222461469E+01  0.93939816545E+02  0.00000000000E+00 0.  1.
         14    1    6    6    0    0  0.47612584245E+02 -0.17105895096E+02  0.48459158749E+02  0.70056119591E+02  0.00000000000E+00 0. -1.
         -5    1    3    3    0  503 -0.77621653758E+01  0.13792794981E+02 -0.42918523417E+01  0.17058792490E+02  0.47000000000E+01 0.  1.
         11    1    4    4    0    0 -0.66040658811E+02 -0.10248527579E+02 -0.67472453542E+03  0.67802625291E+03  0.00000000000E+00 0. -1.
        -12    1    4    4    0    0 -0.16090031559E+02 -0.49506679660E+02 -0.21533032016E+03  0.22153317410E+03  0.00000000000E+00 0.  1.
<mgrwt>
<rscale>  2 0.20072870E+03</rscale>
<asrwt>0</asrwt>
<pdfrwt beam="1">  1       21 0.22193069E-01 0.20083059E+03</pdfrwt>
<pdfrwt beam="2">  1       21 0.15091099E+00 0.20083059E+03</pdfrwt>
<totfact> 0.55478936E+03</totfact>
</mgrwt>
</event>
<event>
12    1  0.1026879E-001  0.2420623E+03  0.7546771E-02  0.1118533E+00
         21   -1    0    0  501  502  0.00000000000E+00  0.00000000000E+00  0.32741232185E+03  0.32741232185E+03  0.00000000000E+00 0.  1.
         21   -1    0    0  502  503 -0.00000000000E+00 -0.00000000000E+00 -0.30895223943E+03  0.30895223943E+03  0.00000000000E+00 0.  1.
         -6    2    1    2    0  503  0.39245529249E+02  0.16491469352E+03 -0.19754525549E+03  0.31193819883E+03  0.17188439201E+03 0.  0.
        -24    2    3    3    0    0 -0.28409339149E+02  0.48814457234E+02 -0.12591538958E+03  0.15959196890E+03  0.80155906948E+02 0.  0.
          6    2    1    2  501    0 -0.39245529249E+02 -0.16491469352E+03  0.21600533791E+03  0.32442636245E+03  0.17279204537E+03 0.  0.
         24    2    5    5    0    0 -0.54834984948E+02 -0.19011431783E+03  0.19003351549E+03  0.28474415291E+03  0.76263793403E+02 0.  0.
          5    1    5    5  501    0  0.15589455700E+02  0.25199624314E+02  0.25971822414E+02  0.39682209541E+02  0.47000000000E+01 0. -1.
        -13    1    6    6    0    0 -0.73837798837E+01 -0.14670062868E+03  0.12012249075E+03  0.18974985493E+03  0.00000000000E+00 0.  1.
         14    1    6    6    0    0 -0.47451205065E+02 -0.43413689149E+02  0.69911024740E+02  0.94994297976E+02  0.00000000000E+00 0. -1.
         -5    1    3    3    0  503  0.67654868398E+02  0.11610023628E+03 -0.71629865917E+02  0.15234622993E+03  0.47000000000E+01 0.  1.
         11    1    4    4    0    0  0.18356479691E+02  0.84675434455E+01 -0.99920623112E+00  0.20240011160E+02  0.00000000000E+00 0. -1.
        -12    1    4    4    0    0 -0.46765818840E+02  0.40346913788E+02 -0.12491618335E+03  0.13935195774E+03  0.00000000000E+00 0.  1.
<mgrwt>
<rscale>  2 0.24190037E+03</rscale>
<asrwt>0</asrwt>
<pdfrwt beam="1">  1       21 0.50371127E-01 0.24206230E+03</pdfrwt>
<pdfrwt beam="2">  1       21 0.47531114E-01 0.24206230E+03</pdfrwt>
<totfact> 0.15431145E+04</totfact>
</mgrwt>
</event>
<event>
12    1  0.1026879E-001  0.1960004E+03  0.7546771E-02  0.1153436E+00
         21   -1    0    0  501  502  0.00000000000E+00  0.00000000000E+00  0.32489732160E+03  0.32489732160E+03  0.00000000000E+00 0. -1.
         21   -1    0    0  502  503 -0.00000000000E+00 -0.00000000000E+00 -0.17744741869E+03  0.17744741869E+03  0.00000000000E+00 0. -1.
         -6    2    1    2    0  503  0.11914642465E+01  0.88653377945E+02 -0.72141689747E+02  0.20885539260E+03  0.17480077406E+03 0.  0.
        -24    2    3    3    0    0  0.57943292072E+02  0.92335332521E+02 -0.18624125641E+02  0.13062147145E+03  0.69511668227E+02 0.  0.
          6    2    1    2  501    0 -0.11914642465E+01 -0.88653377945E+02  0.21959159266E+03  0.29348934769E+03  0.17336288136E+03 0.  0.
         24    2    5    5    0    0  0.54592325217E+02 -0.10937021327E+02  0.10022305572E+03  0.14044490688E+03  0.81118250484E+02 0.  0.
          5    1    5    5  501    0 -0.55783789463E+02 -0.77716356619E+02  0.11936853694E+03  0.15304444082E+03  0.47000000000E+01 0. -1.
        -11    1    6    6    0    0  0.54379704395E+02 -0.21346430975E+02  0.23419437799E+02  0.62938799101E+02  0.00000000000E+00 0.  1.
         12    1    6    6    0    0  0.21262082212E+00  0.10409409648E+02  0.76803617920E+02  0.77506107775E+02  0.00000000000E+00 0. -1.
         -5    1    3    3    0  503 -0.56751827825E+02 -0.36819545763E+01 -0.53517564106E+02  0.78233921152E+02  0.47000000000E+01 0.  1.
         13    1    4    4    0    0  0.27525055531E+02  0.72910219543E+02 -0.41097183959E+02  0.88105092504E+02  0.00000000000E+00 0. -1.
        -14    1    4    4    0    0  0.30418236540E+02  0.19425112978E+02  0.22473058318E+02  0.42516378945E+02  0.00000000000E+00 0.  1.
<mgrwt>
<rscale>  2 0.19567928E+03</rscale>
<asrwt>0</asrwt>
<pdfrwt beam="1">  1       21 0.49984203E-01 0.19600039E+03</pdfrwt>
<pdfrwt beam="2">  1       21 0.27299603E-01 0.19600039E+03</pdfrwt>
<totfact> 0.48705335E+04</totfact>
</mgrwt>
</event>
<event>
12    1  0.1026879E-001  0.2023389E+03  0.7546771E-02  0.1148024E+00
         21   -1    0    0  501  502  0.00000000000E+00  0.00000000000E+00  0.93095538607E+03  0.93095538607E+03  0.00000000000E+00 0.  1.
         21   -1    0    0  502  503 -0.00000000000E+00 -0.00000000000E+00 -0.99902438327E+02  0.99902438327E+02  0.00000000000E+00 0.  1.
         -6    2    1    2    0  503  0.10322078168E+03 -0.42354878400E+01  0.29539648472E+02  0.20448383241E+03  0.17397867041E+03 0.  0.
        -24    2    3    3    0    0  0.31058024464E+02 -0.58810055879E+02  0.44451282170E+02  0.11266720088E+03  0.79339511665E+02 0.  0.
          6    2    1    2  501    0 -0.10322078168E+03  0.42354878400E+01  0.80151329927E+03  0.82637399199E+03  0.17262078844E+03 0.  0.
         24    2    5    5    0    0 -0.12619483829E+02 -0.24417436815E+02  0.56563661104E+03  0.57203271081E+03  0.80753847534E+02 0.  0.
          5    1    5    5  501    0 -0.90601297849E+02  0.28652924655E+02  0.23587668823E+03  0.25434128118E+03  0.47000000000E+01 0. -1.
        -13    1    6    6    0    0 -0.36506251103E+02  0.57993292066E+01  0.41147701368E+03  0.41313396299E+03  0.00000000000E+00 0.  1.
         14    1    6    6    0    0  0.23886767274E+02 -0.30216766021E+02  0.15415959736E+03  0.15889874782E+03  0.00000000000E+00 0. -1.
         -5    1    3    3    0  503  0.72162757214E+02  0.54574568039E+02 -0.14911633698E+02  0.91816631527E+02  0.47000000000E+01 0.  1.
         11    1    4    4    0    0 -0.44793770846E+01 -0.20693175928E+02  0.55494832686E+02  0.59396538653E+02  0.00000000000E+00 0. -1.
        -12    1    4    4    0    0  0.35537401549E+02 -0.38116879951E+02 -0.11043550516E+02  0.53270662227E+02  0.00000000000E+00 0.  1.
<mgrwt>
<rscale>  2 0.20204672E+03</rscale>
<asrwt>0</asrwt>
<pdfrwt beam="1">  1       21 0.14322390E+00 0.20233894E+03</pdfrwt>
<pdfrwt beam="2">  1       21 0.15369607E-01 0.20233894E+03</pdfrwt>
<totfact> 0.12570358E+04</totfact>
</mgrwt>
</event>
<event>
12    1  0.1026879E-001  0.1758370E+03  0.7546771E-02  0.1171940E+00
         21   -1    0    0  501  502  0.00000000000E+00  0.00000000000E+00  0.28593304219E+03  0.28593304219E+03  0.00000000000E+00 0. -1.
         21   -1    0    0  502  503 -0.00000000000E+00 -0.00000000000E+00 -0.22305592787E+03  0.22305592787E+03  0.00000000000E+00 0. -1.
         -6    2    1    2    0  503 -0.12641501749E+00  0.28023037342E+02 -0.15133277842E+03  0.23185270126E+03  0.17340345629E+03 0.  0.
        -24    2    3    3    0    0  0.52516945160E+02 -0.24432900277E+02 -0.10626329964E+03  0.14481077642E+03  0.79519028994E+02 0.  0.
          6    2    1    2  501    0  0.12641501749E+00 -0.28023037342E+02  0.21420989274E+03  0.27713626880E+03  0.17358953521E+03 0.  0.
         24    2    5    5    0    0  0.27152343385E+02  0.38612458367E+02  0.69848528561E+02  0.11578886857E+03  0.79373002025E+02 0.  0.
          5    1    5    5  501    0 -0.27025928368E+02 -0.66635495709E+02  0.14436136418E+03  0.16134740023E+03  0.47000000000E+01 0. -1.
        -13    1    6    6    0    0 -0.20047500410E+02 -0.11757468482E+02  0.15544887718E+02  0.27960398279E+02  0.00000000000E+00 0.  1.
         14    1    6    6    0    0  0.47199843795E+02  0.50369926849E+02  0.54303640843E+02  0.87828470292E+02  0.00000000000E+00 0. -1.
         -5    1    3    3    0  503 -0.52643360177E+02  0.52455937619E+02 -0.45069478775E+02  0.87041924837E+02  0.47000000000E+01 0.  1.
         13    1    4    4    0    0  0.64718135071E+02  0.49730751795E+01 -0.83067952982E+02  0.10542036471E+03  0.00000000000E+00 0. -1.
        -14    1    4    4    0    0 -0.12201189911E+02 -0.29405975457E+02 -0.23195346660E+02  0.39390411707E+02  0.00000000000E+00 0.  1.
<mgrwt>
<rscale>  2 0.17579101E+03</rscale>
<asrwt>0</asrwt>
<pdfrwt beam="1">  1       21 0.43989699E-01 0.17583695E+03</pdfrwt>
<pdfrwt beam="2">  1       21 0.34316297E-01 0.17583695E+03</pdfrwt>
<totfact> 0.40969850E+04</totfact>
</mgrwt>
</event>
<event>
12    1  0.1026879E-001  0.2469596E+03  0.7546771E-02  0.1115535E+00
         21   -1    0    0  501  502  0.00000000000E+00  0.00000000000E+00  0.43618998369E+03  0.43618998369E+03  0.00000000000E+00 0.  1.
         21   -1    0    0  502  503 -0.00000000000E+00 -0.00000000000E+00 -0.16284986710E+03  0.16284986710E+03  0.00000000000E+00 0.  1.
         -6    2    1    2    0  503 -0.10009929980E+03 -0.13762004696E+03  0.25221928078E+03  0.35299233696E+03  0.17896892805E+03 0.  0.
        -24    2    3    3    0    0 -0.68634314538E+02 -0.62969864641E+02  0.44211305300E+02  0.12971649214E+03  0.78713758842E+02 0.  0.
          6    2    1    2  501    0  0.10009929980E+03  0.13762004696E+03  0.21120835813E+02  0.24604751383E+03  0.17644869568E+03 0.  0.
         24    2    5    5    0    0  0.84247570852E+02  0.45253293884E+02 -0.48267914876E+02  0.12934368738E+03  0.72487820062E+02 0.  0.
          5    1    5    5  501    0  0.15851728949E+02  0.92366753077E+02  0.69388750689E+02  0.11670382644E+03  0.47000000000E+01 0. -1.
        -11    1    6    6    0    0  0.44191294918E+02  0.57650560081E+02 -0.11437048562E+02  0.73534098920E+02  0.00000000000E+00 0.  1.
         12    1    6    6    0    0  0.40056275933E+02 -0.12397266197E+02 -0.36830866314E+02  0.55809588462E+02  0.00000000000E+00 0. -1.
         -5    1    3    3    0  503 -0.31464985263E+02 -0.74650182320E+02  0.20800797548E+03  0.22327584482E+03  0.47000000000E+01 0.  1.
         11    1    4    4    0    0 -0.67222028493E+02 -0.94309409560E+01  0.30585737796E+02  0.74452878511E+02  0.00000000000E+00 0. -1.
        -12    1    4    4    0    0 -0.14122860450E+01 -0.53538923685E+02  0.13625567504E+02  0.55263613626E+02  0.00000000000E+00 0.  1.
<mgrwt>
<rscale>  2 0.24650324E+03</rscale>
<asrwt>0</asrwt>
<pdfrwt beam="1">  1       21 0.67106151E-01 0.24695956E+03</pdfrwt>
<pdfrwt beam="2">  1       21 0.25053826E-01 0.24695956E+03</pdfrwt>
<totfact> 0.29831926E+04</totfact>
</mgrwt>
</event>
<event>
12    1  0.1026879E-001  0.1898014E+03  0.7546771E-02  0.1160333E+00
         21   -1    0    0  501  502  0.00000000000E+00  0.00000000000E+00  0.35964605917E+03  0.35964605917E+03  0.00000000000E+00 0.  1.
         21   -1    0    0  502  503 -0.00000000000E+00 -0.00000000000E+00 -0.11038793564E+03  0.11038793564E+03  0.00000000000E+00 0.  1.
         -6    2    1    2    0  503  0.50999108554E+02 -0.83480460945E+01  0.21062553861E+03  0.28352725560E+03  0.18263074278E+03 0.  0.
        -24    2    3    3    0    0 -0.32119534310E+02 -0.20405335339E+02  0.10253138435E+03  0.14655819632E+03  0.97563199705E+02 0.  0.
          6    2    1    2  501    0 -0.50999108554E+02  0.83480460945E+01  0.38632584910E+02  0.18650673921E+03  0.17499053748E+03 0.  0.
         24    2    5    5    0    0 -0.84515264113E+02  0.50625386350E+02  0.23071533315E+02  0.13016011101E+03  0.81875510610E+02 0.  0.
          5    1    5    5  501    0  0.33516155559E+02 -0.42277340255E+02  0.15561051595E+02  0.56346628198E+02  0.47000000000E+01 0. -1.
        -13    1    6    6    0    0 -0.47912909306E+02 -0.16960910792E+02  0.40954131020E+01  0.50991095120E+02  0.00000000000E+00 0.  1.
         14    1    6    6    0    0 -0.36602354807E+02  0.67586297142E+02  0.18976120213E+02  0.79169015891E+02  0.00000000000E+00 0. -1.
         -5    1    3    3    0  503  0.83118642864E+02  0.12057289245E+02  0.10809415427E+03  0.13696905929E+03  0.47000000000E+01 0.  1.
         13    1    4    4    0    0 -0.29046474133E+02  0.19994595291E+02  0.99917323354E+02  0.10595731691E+03  0.00000000000E+00 0. -1.
        -14    1    4    4    0    0 -0.30730601770E+01 -0.40399930630E+02  0.26140609939E+01  0.40600879407E+02  0.00000000000E+00 0.  1.
<mgrwt>
<rscale>  2 0.18793929E+03</rscale>
<asrwt>0</asrwt>
<pdfrwt beam="1">  1       21 0.55330162E-01 0.18980144E+03</pdfrwt>
<pdfrwt beam="2">  1       21 0.16982759E-01 0.18980144E+03</pdfrwt>
<totfact> 0.96371570E+04</totfact>
</mgrwt>
</event>
<event>
12    1  0.1026879E-001  0.3916070E+03  0.7546771E-02  0.1046755E+00
         21   -1    0    0  503  502  0.00000000000E+00  0.00000000000E+00  0.19772509435E+03  0.19772509435E+03  0.00000000000E+00 0.  1.
         21   -1    0    0  501  503 -0.00000000000E+00 -0.00000000000E+00 -0.21870912058E+04  0.21870912058E+04  0.00000000000E+00 0. -1.
          6    2    1    2  501    0 -0.31550794855E+03  0.15274044664E+03 -0.19529864724E+04  0.19918614986E+04  0.17458854053E+03 0.  0.
         24    2    3    3    0    0 -0.18096385734E+03  0.97925356168E+02 -0.14980834531E+04  0.15142993000E+04  0.80691041720E+02 0.  0.
         -6    2    1    2    0  502  0.31550794855E+03 -0.15274044664E+03 -0.36379639010E+02  0.39295480155E+03  0.17382487822E+03 0.  0.
        -24    2    5    5    0    0  0.13394511940E+03 -0.33957500307E+02  0.36432747038E+02  0.16404830791E+03  0.80561128546E+02 0.  0.
          5    1    3    3  501    0 -0.13454409121E+03  0.54815090473E+02 -0.45490301927E+03  0.47756219864E+03  0.47000000000E+01 0. -1.
        -13    1    4    4    0    0 -0.51229183945E+02  0.45392789858E+01 -0.59146089429E+03  0.59369270150E+03  0.00000000000E+00 0.  1.
         14    1    4    4    0    0 -0.12973467340E+03  0.93386077182E+02 -0.90662255886E+03  0.92060659846E+03  0.00000000000E+00 0. -1.
         -5    1    5    5    0  502  0.18156282914E+03 -0.11878294633E+03 -0.72812386048E+02  0.22890649364E+03  0.47000000000E+01 0.  1.
         13    1    6    6    0    0  0.16082974079E+02  0.23775895571E+02  0.60772354891E+01  0.29340893930E+02  0.00000000000E+00 0. -1.
        -14    1    6    6    0    0  0.11786214532E+03 -0.57733395878E+02  0.30355511549E+02  0.13470741398E+03  0.00000000000E+00 0.  1.
<mgrwt>
<rscale>  2 0.39152204E+03</rscale>
<asrwt>0</asrwt>
<pdfrwt beam="1">  1       21 0.30419246E-01 0.39160703E+03</pdfrwt>
<pdfrwt beam="2">  1       21 0.33647556E+00 0.39160703E+03</pdfrwt>
<totfact> 0.17508787E+02</totfact>
</mgrwt>
</event>
<event>
12    1  0.1026879E-001  0.1831425E+03  0.7546771E-02  0.1164929E+00
         21   -1    0    0  503  502  0.00000000000E+00  0.00000000000E+00  0.46046798190E+03  0.46046798190E+03  0.00000000000E+00 0.  1.
         21   -1    0    0  501  503 -0.00000000000E+00 -0.00000000000E+00 -0.12170168680E+03  0.12170168680E+03  0.00000000000E+00 0.  1.
          6    2    1    2  501    0 -0.36239858798E+02 -0.46221554240E+02 -0.15628213386E+02  0.18325034185E+03  0.17287766568E+03 0.  0.
         24    2    3    3    0    0 -0.46167487901E+02  0.31382915719E+02  0.14433603834E+02  0.99305035655E+02  0.80850707162E+02 0.  0.
         -6    2    1    2    0  502  0.36239858798E+02  0.46221554240E+02  0.35439450848E+03  0.39891932686E+03  0.17346873567E+03 0.  0.
        -24    2    5    5    0    0  0.91571554018E+02  0.27363620546E+02  0.23275793032E+03  0.26388316390E+03  0.79523284811E+02 0.  0.
          5    1    3    3  501    0  0.99276291030E+01 -0.77604469958E+02 -0.30061817220E+02  0.83945306192E+02  0.47000000000E+01 0. -1.
        -13    1    4    4    0    0 -0.10063289500E+02  0.16683973500E+02 -0.32746315164E+02  0.38104408198E+02  0.00000000000E+00 0.  1.
         14    1    4    4    0    0 -0.36104198402E+02  0.14698942218E+02  0.47179918997E+02  0.61200627457E+02  0.00000000000E+00 0. -1.
         -5    1    5    5    0  502 -0.55331695220E+02  0.18857933694E+02  0.12163657816E+03  0.13503616295E+03  0.47000000000E+01 0.  1.
         11    1    6    6    0    0 -0.77223454276E+01  0.19497075259E+02  0.20069698313E+02  0.29026941846E+02  0.00000000000E+00 0. -1.
        -12    1    6    6    0    0  0.99293899446E+02  0.78665452863E+01  0.21268823201E+03  0.23485622205E+03  0.00000000000E+00 0.  1.
<mgrwt>
<rscale>  2 0.18300236E+03</rscale>
<asrwt>0</asrwt>
<pdfrwt beam="1">  1       21 0.70841227E-01 0.18314246E+03</pdfrwt>
<pdfrwt beam="2">  1       21 0.18723337E-01 0.18314246E+03</pdfrwt>
<totfact> 0.47319618E+04</totfact>
</mgrwt>
</event>
<event>
12    1  0.1026879E-001  0.2090553E+03  0.7546771E-02  0.1142921E+00
         21   -1    0    0  503  502  0.00000000000E+00  0.00000000000E+00  0.42655923501E+03  0.42655923501E+03  0.00000000000E+00 0.  1.
         21   -1    0    0  501  503 -0.00000000000E+00 -0.00000000000E+00 -0.13792788571E+03  0.13792788571E+03  0.00000000000E+00 0. -1.
          6    2    1    2  501    0  0.11289890701E+03  0.14296450316E+02  0.28961346651E+03  0.35542947775E+03  0.17176612580E+03 0.  0.
         24    2    3    3    0    0  0.92087672931E+02  0.74163207375E+02  0.21962963542E+03  0.26089396760E+03  0.76473294312E+02 0.  0.
         -6    2    1    2    0  502 -0.11289890701E+03 -0.14296450316E+02 -0.98211720970E+00  0.20905764297E+03  0.17536699186E+03 0.  0.
        -24    2    5    5    0    0  0.10177488928E+02  0.44771250418E+01  0.10018044326E+02  0.83984304792E+02  0.82640040596E+02 0.  0.
          5    1    3    3  501    0  0.20811234077E+02 -0.59866757059E+02  0.69983831091E+02  0.94535510147E+02  0.47000000000E+01 0. -1.
        -13    1    4    4    0    0  0.71339545317E+02  0.12706399334E+02  0.14440006025E+03  0.16156163130E+03  0.00000000000E+00 0.  1.
         14    1    4    4    0    0  0.20748127613E+02  0.61456808041E+02  0.75229575173E+02  0.99332336299E+02  0.00000000000E+00 0. -1.
         -5    1    5    5    0  502 -0.12307639594E+03 -0.18773575358E+02 -0.11000161536E+02  0.12507333817E+03  0.47000000000E+01 0.  1.
         11    1    6    6    0    0 -0.23718535124E+02 -0.44863176071E+01 -0.24774408542E+02  0.34589988042E+02  0.00000000000E+00 0. -1.
        -12    1    6    6    0    0  0.33896024052E+02  0.89634426489E+01  0.34792452868E+02  0.49394316751E+02  0.00000000000E+00 0.  1.
<mgrwt>
<rscale>  2 0.20829842E+03</rscale>
<asrwt>0</asrwt>
<pdfrwt beam="1">  1       21 0.65624497E-01 0.20905534E+03</pdfrwt>
<pdfrwt beam="2">  1       21 0.21219675E-01 0.20905534E+03</pdfrwt>
<totfact> 0.43737244E+04</totfact>
</mgrwt>
</event>
<event>
12    1  0.1026879E-001  0.1811393E+03  0.7546771E-02  0.1167119E+00
         21   -1    0    0  501  502  0.00000000000E+00  0.00000000000E+00  0.75402310210E+03  0.75402310210E+03  0.00000000000E+00 0. -1.
         21   -1    0    0  502  503 -0.00000000000E+00 -0.00000000000E+00 -0.50238983649E+02  0.50238983649E+02  0.00000000000E+00 0. -1.
         -6    2    1    2    0  503  0.18060611759E+02 -0.41180976269E+02  0.20178074061E+03  0.27115843689E+03  0.17546900613E+03 0.  0.
        -24    2    3    3    0    0  0.76235096435E+02 -0.26863670925E+02  0.11160362234E+03  0.16279212036E+03  0.86674443675E+02 0.  0.
          6    2    1    2  501    0 -0.18060611759E+02  0.41180976269E+02  0.50200337784E+03  0.53310364886E+03  0.17369528077E+03 0.  0.
         24    2    5    5    0    0 -0.10706514267E+02 -0.41452320354E+02  0.19820741911E+03  0.21814901879E+03  0.80435620833E+02 0.  0.
          5    1    5    5  501    0 -0.73540974926E+01  0.82633296623E+02  0.30379595874E+03  0.31495463007E+03  0.47000000000E+01 0. -1.
        -11    1    6    6    0    0 -0.15515411250E+02 -0.44546523116E+01 -0.32090915937E+00  0.16145429575E+02  0.00000000000E+00 0.  1.
         12    1    6    6    0    0  0.48088969832E+01 -0.36997668042E+02  0.19852832827E+03  0.20200358921E+03  0.00000000000E+00 0. -1.
         -5    1    3    3    0  503 -0.58174484676E+02 -0.14317305343E+02  0.90177118271E+02  0.10836631653E+03  0.47000000000E+01 0.  1.
         11    1    4    4    0    0  0.47132101040E+02 -0.52322456792E+02  0.38912316046E+02  0.80456465080E+02  0.00000000000E+00 0. -1.
        -12    1    4    4    0    0  0.29102995395E+02  0.25458785867E+02  0.72691306295E+02  0.82335655275E+02  0.00000000000E+00 0.  1.
<mgrwt>
<rscale>  2 0.18070831E+03</rscale>
<asrwt>0</asrwt>
<pdfrwt beam="1">  1       21 0.11600355E+00 0.18113926E+03</pdfrwt>
<pdfrwt beam="2">  1       21 0.77290749E-02 0.18113926E+03</pdfrwt>
<totfact> 0.73522675E+04</totfact>
</mgrwt>
</event>
<event>
12    1  0.1026879E-001  0.3580226E+03  0.7546771E-02  0.1060024E+00
         21   -1    0    0  501  502  0.00000000000E+00  0.00000000000E+00  0.16347708695E+03  0.16347708695E+03  0.00000000000E+00 0. -1.
         21   -1    0    0  502  503 -0.00000000000E+00 -0.00000000000E+00 -0.82841495644E+03  0.82841495644E+03  0.00000000000E+00 0.  1.
         -6    2    1    2    0  503  0.11669943294E+03  0.28279554154E+03 -0.46143567948E+03  0.58007496917E+03  0.17312425479E+03 0.  0.
        -24    2    3    3    0    0  0.96297564308E+02  0.28455916071E+03 -0.46418361797E+03  0.55888563784E+03  0.81483668051E+02 0.  0.
          6    2    1    2  501    0 -0.11669943294E+03 -0.28279554154E+03 -0.20350219001E+03  0.41181707421E+03  0.18597872273E+03 0.  0.
         24    2    5    5    0    0 -0.12376403822E+02 -0.55614515490E+02 -0.99309113463E+02  0.14094293332E+03  0.82197692983E+02 0.  0.
          5    1    5    5  501    0 -0.10432302911E+03 -0.22718102605E+03 -0.10419307655E+03  0.27087414089E+03  0.47000000000E+01 0. -1.
        -13    1    6    6    0    0  0.33125348408E+02 -0.79995230245E+01 -0.31298892006E+02  0.46269879150E+02  0.00000000000E+00 0.  1.
         14    1    6    6    0    0 -0.45501752230E+02 -0.47614992465E+02 -0.68010221457E+02  0.94673054171E+02  0.00000000000E+00 0. -1.
         -5    1    3    3    0  503  0.20401868628E+02 -0.17636191640E+01  0.27479384949E+01  0.21189331326E+02  0.47000000000E+01 0.  1.
         11    1    4    4    0    0  0.51368381323E+02  0.47825550591E+02 -0.98278972713E+02  0.12076733982E+03  0.00000000000E+00 0. -1.
        -12    1    4    4    0    0  0.44929182985E+02  0.23673361012E+03 -0.36590464526E+03  0.43811829803E+03  0.00000000000E+00 0.  1.
<mgrwt>
<rscale>  2 0.35638493E+03</rscale>
<asrwt>0</asrwt>
<pdfrwt beam="1">  1       21 0.25150321E-01 0.35802257E+03</pdfrwt>
<pdfrwt beam="2">  1       21 0.12744845E+00 0.35802257E+03</pdfrwt>
<totfact> 0.61835815E+03</totfact>
</mgrwt>
</event>
<event>
12    1  0.1026879E-001  0.2532384E+03  0.7546771E-02  0.1111489E+00
         21   -1    0    0  503  502  0.00000000000E+00  0.00000000000E+00  0.54378204554E+02  0.54378204554E+02  0.00000000000E+00 0.  1.
         21   -1    0    0  501  503 -0.00000000000E+00 -0.00000000000E+00 -0.12354618559E+04  0.12354618559E+04  0.00000000000E+00 0. -1.
          6    2    1    2  501    0 -0.17822145018E+03  0.35386576546E+02 -0.73712829715E+03  0.77941504332E+03  0.17639327704E+03 0.  0.
         24    2    3    3    0    0 -0.97103096917E+02  0.90550670210E+02 -0.45050757696E+03  0.47643518968E+03  0.80031104980E+02 0.  0.
         -6    2    1    2    0  502  0.17822145018E+03 -0.35386576546E+02 -0.44395535416E+03  0.51042501710E+03  0.17441974227E+03 0.  0.
        -24    2    5    5    0    0  0.12249163922E+03 -0.90489513521E+02 -0.32011356449E+03  0.36379274111E+03  0.81730719930E+02 0.  0.
          5    1    3    3  501    0 -0.81118353260E+02 -0.55164093663E+02 -0.28662072019E+03  0.30297985364E+03  0.47000000000E+01 0. -1.
        -11    1    4    4    0    0 -0.76833021099E+02  0.37717899933E+02 -0.17062818840E+03  0.19089246130E+03  0.00000000000E+00 0.  1.
         12    1    4    4    0    0 -0.20270075818E+02  0.52832770277E+02 -0.27987938856E+03  0.28554272838E+03  0.00000000000E+00 0. -1.
         -5    1    5    5    0  502  0.55729810959E+02  0.55102936974E+02 -0.12384178967E+03  0.14663227599E+03  0.47000000000E+01 0.  1.
         11    1    6    6    0    0  0.28052379341E+02 -0.32989314976E+02 -0.18091385307E+03  0.18602433476E+03  0.00000000000E+00 0. -1.
        -12    1    6    6    0    0  0.94439259876E+02 -0.57500198545E+02 -0.13919971142E+03  0.17776840636E+03  0.00000000000E+00 0.  1.
<mgrwt>
<rscale>  2 0.25289502E+03</rscale>
<asrwt>0</asrwt>
<pdfrwt beam="1">  1       21 0.83658779E-02 0.25323839E+03</pdfrwt>
<pdfrwt beam="2">  1       21 0.19007105E+00 0.25323839E+03</pdfrwt>
<totfact> 0.16593149E+04</totfact>
</mgrwt>
</event>
<event>
12    1  0.1026879E-001  0.3073940E+03  0.7546771E-02  0.1081795E+00
         21   -1    0    0  503  502  0.00000000000E+00  0.00000000000E+00  0.53693336085E+03  0.53693336085E+03  0.00000000000E+00 0.  1.
         21   -1    0    0  501  503 -0.00000000000E+00 -0.00000000000E+00 -0.46533050999E+03  0.46533050999E+03  0.00000000000E+00 0. -1.
          6    2    1    2  501    0  0.22333653480E+03 -0.12005144640E+03 -0.35995118940E+03  0.47334546292E+03  0.17378006490E+03 0.  0.
         24    2    3    3    0    0  0.50547961298E+02 -0.21554961411E+02 -0.17417913580E+03  0.20114922014E+03  0.84278850607E+02 0.  0.
         -6    2    1    2    0  502 -0.22333653480E+03  0.12005144640E+03  0.43155404026E+03  0.52891840791E+03  0.17095097252E+03 0.  0.
        -24    2    5    5    0    0 -0.18178552161E+03  0.23827495137E+02  0.27124276936E+03  0.33732683954E+03  0.81259038592E+02 0.  0.
          5    1    3    3  501    0  0.17278857350E+03 -0.98496484990E+02 -0.18577205360E+03  0.27219624278E+03  0.47000000000E+01 0. -1.
        -11    1    4    4    0    0 -0.27436207027E+01 -0.41628208323E+02 -0.54704068154E+02  0.68796586074E+02  0.00000000000E+00 0.  1.
         12    1    4    4    0    0  0.53291582001E+02  0.20073246912E+02 -0.11947506765E+03  0.13235263406E+03  0.00000000000E+00 0. -1.
         -5    1    5    5    0  502 -0.41551013192E+02  0.96223951264E+02  0.16031127090E+03  0.19159156837E+03  0.47000000000E+01 0.  1.
         13    1    6    6    0    0 -0.88420357531E+02  0.34970797504E+02  0.80171694683E+02  0.12437289469E+03  0.00000000000E+00 0. -1.
        -14    1    6    6    0    0 -0.93365164076E+02 -0.11143302368E+02  0.19107107468E+03  0.21295394486E+03  0.00000000000E+00 0.  1.
<mgrwt>
<rscale>  2 0.30699560E+03</rscale>
<asrwt>0</asrwt>
<pdfrwt beam="1">  1       21 0.82605133E-01 0.30739400E+03</pdfrwt>
<pdfrwt beam="2">  1       21 0.71589309E-01 0.30739400E+03</pdfrwt>
<totfact> 0.20774356E+03</totfact>
</mgrwt>
</event>
<event>
12    1  0.1026879E-001  0.2004901E+03  0.7546771E-02  0.1150654E+00
         21   -1    0    0  501  502  0.00000000000E+00  0.00000000000E+00  0.81496311117E+03  0.81496311117E+03  0.00000000000E+00 0. -1.
         21   -1    0    0  502  503 -0.00000000000E+00 -0.00000000000E+00 -0.56117821006E+02  0.56117821006E+02  0.00000000000E+00 0.  1.
         -6    2    1    2    0  503  0.68478961526E+02  0.76527829053E+02  0.20674522703E+03  0.28370476373E+03  0.16492097282E+03 0.  0.
        -24    2    3    3    0    0 -0.22414283154E+02  0.34245786464E+02  0.12697286020E+03  0.15550541286E+03  0.79904018820E+02 0.  0.
          6    2    1    2  501    0 -0.68478961526E+02 -0.76527829053E+02  0.55210006313E+03  0.58737616844E+03  0.17219293466E+03 0.  0.
         24    2    5    5    0    0  0.44454790374E+01 -0.65083175712E+02  0.44187048521E+03  0.45462977877E+03  0.84753336201E+02 0.  0.
          5    1    5    5  501    0 -0.72924440563E+02 -0.11444653341E+02  0.11022957792E+03  0.13274638967E+03  0.47000000000E+01 0. -1.
        -13    1    6    6    0    0 -0.30846738978E+02  0.91149758111E+00  0.16277535066E+03  0.16567488318E+03  0.00000000000E+00 0.  1.
         14    1    6    6    0    0  0.35292218016E+02 -0.65994673293E+02  0.27909513455E+03  0.28895489559E+03  0.00000000000E+00 0. -1.
         -5    1    3    3    0  503  0.90893244679E+02  0.42282042589E+02  0.79772366830E+02  0.12819935087E+03  0.47000000000E+01 0.  1.
         11    1    4    4    0    0 -0.44390760520E+02  0.46769512725E+02  0.91299538376E+02  0.11177447225E+03  0.00000000000E+00 0. -1.
        -12    1    4    4    0    0  0.21976477366E+02 -0.12523726261E+02  0.35673321820E+02  0.43730940609E+02  0.00000000000E+00 0.  1.
<mgrwt>
<rscale>  2 0.19891927E+03</rscale>
<asrwt>0</asrwt>
<pdfrwt beam="1">  1       21 0.12537893E+00 0.20049011E+03</pdfrwt>
<pdfrwt beam="2">  1       21 0.86335115E-02 0.20049011E+03</pdfrwt>
<totfact> 0.49528403E+04</totfact>
</mgrwt>
</event>
<event>
12    1  0.1026879E-001  0.1894238E+03  0.7546771E-02  0.1159236E+00
         21   -1    0    0  501  502  0.00000000000E+00  0.00000000000E+00  0.33716829587E+03  0.33716829587E+03  0.00000000000E+00 0.  1.
         21   -1    0    0  502  503 -0.00000000000E+00 -0.00000000000E+00 -0.24382211988E+03  0.24382211988E+03  0.00000000000E+00 0.  1.
         -6    2    1    2    0  503  0.33629656757E+02 -0.68480809635E+02  0.26518124085E+03  0.32523922249E+03  0.17215947909E+03 0.  0.
        -24    2    3    3    0    0  0.38489166821E+02 -0.20484277943E+01  0.77973607105E+02  0.12647890369E+03  0.91822751289E+02 0.  0.
          6    2    1    2  501    0 -0.33629656757E+02  0.68480809635E+02 -0.17183506486E+03  0.25575119326E+03  0.17338053015E+03 0.  0.
         24    2    5    5    0    0 -0.67774656429E+02  0.97032974662E+02 -0.14640843989E+03  0.20427585559E+03  0.79274155188E+02 0.  0.
          5    1    5    5  501    0  0.34144999672E+02 -0.28552165027E+02 -0.25426624978E+02  0.51475337668E+02  0.47000000000E+01 0. -1.
        -13    1    6    6    0    0 -0.62665612270E+02  0.83192364328E+02 -0.67759198692E+02  0.12425480856E+03  0.00000000000E+00 0.  1.
         14    1    6    6    0    0 -0.51090441590E+01  0.13840610334E+02 -0.78649241195E+02  0.80021047027E+02  0.00000000000E+00 0. -1.
         -5    1    3    3    0  503 -0.48595100634E+01 -0.66432381841E+02  0.18720763375E+03  0.19876031880E+03  0.47000000000E+01 0.  1.
         11    1    4    4    0    0  0.48798694278E+02  0.35657576587E+02  0.49412449462E+02  0.78066417192E+02  0.00000000000E+00 0. -1.
        -12    1    4    4    0    0 -0.10309527458E+02 -0.37706004382E+02  0.28561157643E+02  0.48412486496E+02  0.00000000000E+00 0.  1.
<mgrwt>
<rscale>  2 0.18914395E+03</rscale>
<asrwt>0</asrwt>
<pdfrwt beam="1">  1       21 0.51872045E-01 0.18942382E+03</pdfrwt>
<pdfrwt beam="2">  1       21 0.37511095E-01 0.18942382E+03</pdfrwt>
<totfact> 0.24229886E+04</totfact>
</mgrwt>
</event>
<event>
12    1  0.1026879E-001  0.1829638E+03  0.7546771E-02  0.1165033E+00
         21   -1    0    0  503  502  0.00000000000E+00  0.00000000000E+00  0.55849086509E+03  0.55849086509E+03  0.00000000000E+00 0. -1.
         21   -1    0    0  501  503 -0.00000000000E+00 -0.00000000000E+00 -0.69437850967E+02  0.69437850967E+02  0.00000000000E+00 0. -1.
          6    2    1    2  501    0 -0.41692268868E+02  0.40118104370E+02  0.12800002752E+03  0.22329302373E+03  0.17357436394E+03 0.  0.
         24    2    3    3    0    0  0.36881382643E+02  0.12803754131E+02  0.99853027467E+02  0.13534851820E+03  0.82610058577E+02 0.  0.
         -6    2    1    2    0  502  0.41692268868E+02 -0.40118104370E+02  0.36105298661E+03  0.40463569234E+03  0.17327168491E+03 0.  0.
        -24    2    5    5    0    0  0.83959402549E+02 -0.37702748933E+02  0.17253732426E+03  0.21136751212E+03  0.80227291895E+02 0.  0.
          5    1    3    3  501    0 -0.78573651512E+02  0.27314350239E+02  0.28147000052E+02  0.87944505529E+02  0.47000000000E+01 0. -1.
        -13    1    4    4    0    0  0.23868676450E+02 -0.10436872325E+02 -0.55472146716E+01  0.26634819504E+02  0.00000000000E+00 0.  1.
         14    1    4    4    0    0  0.13012706193E+02  0.23240626455E+02  0.10540024214E+03  0.10871369869E+03  0.00000000000E+00 0. -1.
         -5    1    5    5    0  502 -0.42267133681E+02 -0.24153554366E+01  0.18851566235E+03  0.19326818022E+03  0.47000000000E+01 0.  1.
         11    1    6    6    0    0  0.57252192773E+02 -0.62303847220E+02  0.10667068810E+03  0.13615512717E+03  0.00000000000E+00 0. -1.
        -12    1    6    6    0    0  0.26707209776E+02  0.24601098286E+02  0.65866636157E+02  0.75212384948E+02  0.00000000000E+00 0.  1.
<mgrwt>
<rscale>  2 0.18289202E+03</rscale>
<asrwt>0</asrwt>
<pdfrwt beam="1">  1       21 0.85921669E-01 0.18296384E+03</pdfrwt>
<pdfrwt beam="2">  1       21 0.10682747E-01 0.18296384E+03</pdfrwt>
<totfact> 0.84734364E+04</totfact>
</mgrwt>
</event>
<event>
12    1  0.1026879E-001  0.1906595E+03  0.7546771E-02  0.1158012E+00
         21   -1    0    0  501  502  0.00000000000E+00  0.00000000000E+00  0.25616521781E+02  0.25616521781E+02  0.00000000000E+00 0. -1.
         21   -1    0    0  502  503 -0.00000000000E+00 -0.00000000000E+00 -0.14850259988E+04  0.14850259988E+04  0.00000000000E+00 0.  1.
         -6    2    1    2    0  503  0.67475973990E+01  0.77432091748E+02 -0.56600155635E+03  0.59725103025E+03  0.17409702020E+03 0.  0.
        -24    2    3    3    0    0 -0.49008549645E+02  0.42409198950E+02 -0.17953612524E+03  0.20518857299E+03  0.75291115841E+02 0.  0.
          6    2    1    2  501    0 -0.67475973990E+01 -0.77432091748E+02 -0.89340792063E+03  0.91339149029E+03  0.17339274203E+03 0.  0.
         24    2    5    5    0    0  0.59338242780E+02 -0.77365818023E+02 -0.64716812331E+03  0.65839448943E+03  0.71765082221E+02 0.  0.
          5    1    5    5  501    0 -0.66085840179E+02 -0.66273725429E-01 -0.24623979732E+03  0.25499700086E+03  0.47000000000E+01 0. -1.
        -11    1    6    6    0    0  0.22794052078E+02 -0.76437407003E+02 -0.51979645520E+03  0.52588078577E+03  0.00000000000E+00 0.  1.
         12    1    6    6    0    0  0.36544190702E+02 -0.92841101987E+00 -0.12737166811E+03  0.13251370366E+03  0.00000000000E+00 0. -1.
         -5    1    3    3    0  503  0.55756147044E+02  0.35022892798E+02 -0.38646543111E+03  0.39206245726E+03  0.47000000000E+01 0.  1.
         13    1    4    4    0    0 -0.16627712639E+02 -0.20411761632E+01  0.68196301285E+00  0.16766403946E+02  0.00000000000E+00 0. -1.
        -14    1    4    4    0    0 -0.32380837007E+02  0.44450375113E+02 -0.18021808825E+03  0.18842216904E+03  0.00000000000E+00 0.  1.
<mgrwt>
<rscale>  2 0.19049854E+03</rscale>
<asrwt>0</asrwt>
<pdfrwt beam="1">  1       21 0.39410029E-02 0.19065946E+03</pdfrwt>
<pdfrwt beam="2">  1       21 0.22846556E+00 0.19065946E+03</pdfrwt>
<totfact> 0.35945786E+04</totfact>
</mgrwt>
</event>
<event>
12    1  0.1026879E-001  0.1738141E+03  0.7546771E-02  0.1173935E+00
         21   -1    0    0  503  502  0.00000000000E+00  0.00000000000E+00  0.98035051715E+03  0.98035051715E+03  0.00000000000E+00 0.  1.
         21   -1    0    0  501  503 -0.00000000000E+00 -0.00000000000E+00 -0.10949135272E+03  0.10949135272E+03  0.00000000000E+00 0.  1.
          6    2    1    2  501    0 -0.14568520081E+02  0.63305380090E+00 -0.26510286483E+02  0.17579412078E+03  0.17317082629E+03 0.  0.
         24    2    3    3    0    0  0.43209821626E+02 -0.30100716296E+02  0.14725487781E+02  0.98299730830E+02  0.81687546691E+02 0.  0.
         -6    2    1    2    0  502  0.14568520081E+02 -0.63305380090E+00  0.89736945091E+03  0.91404774909E+03  0.17320136738E+03 0.  0.
        -24    2    5    5    0    0 -0.66564084514E+02 -0.10475731118E+01  0.55697060479E+03  0.56408184248E+03  0.59499543320E+02 0.  0.
          5    1    3    3  501    0 -0.57778341706E+02  0.30733770097E+02 -0.41235774265E+02  0.77494389951E+02  0.47000000000E+01 0. -1.
        -13    1    4    4    0    0 -0.24242083229E+02 -0.48790064289E+01 -0.32644546606E+00  0.24730343096E+02  0.00000000000E+00 0.  1.
         14    1    4    4    0    0  0.67451904854E+02 -0.25221709867E+02  0.15051933247E+02  0.73569387734E+02  0.00000000000E+00 0. -1.
         -5    1    5    5    0  502  0.81132604595E+02  0.41451931091E+00  0.34039884612E+03  0.34996590661E+03  0.47000000000E+01 0.  1.
         11    1    6    6    0    0 -0.52747767767E+02 -0.25269440644E+02  0.30369591766E+03  0.30927670788E+03  0.00000000000E+00 0. -1.
        -12    1    6    6    0    0 -0.13816316747E+02  0.24221867532E+02  0.25327468713E+03  0.25480513460E+03  0.00000000000E+00 0.  1.
<mgrwt>
<rscale>  2 0.17380653E+03</rscale>
<asrwt>0</asrwt>
<pdfrwt beam="1">  1       21 0.15082315E+00 0.17381414E+03</pdfrwt>
<pdfrwt beam="2">  1       21 0.16844824E-01 0.17381414E+03</pdfrwt>
<totfact> 0.94873674E+03</totfact>
</mgrwt>
</event>
<event>
12    1  0.1026879E-001  0.3130416E+03  0.7546771E-02  0.1079027E+00
         21   -1    0    0  501  502  0.00000000000E+00  0.00000000000E+00  0.14094366375E+04  0.14094366375E+04  0.00000000000E+00 0.  1.
         21   -1    0    0  502  503 -0.00000000000E+00 -0.00000000000E+00 -0.14755058909E+03  0.14755058909E+03  0.00000000000E+00 0. -1.
         -6    2    1    2    0  503 -0.65257891444E+02 -0.25119056724E+03  0.64478518196E+02  0.31961303833E+03  0.17504205636E+03 0.  0.
        -24    2    3    3    0    0 -0.22079166130E+02 -0.22442125254E+03  0.46920662332E+01  0.24101591136E+03  0.84936834620E+02 0.  0.
          6    2    1    2  501    0  0.65257891444E+02  0.25119056724E+03  0.11974075303E+04  0.12373741883E+04  0.17307453566E+03 0.  0.
         24    2    5    5    0    0  0.16794001709E+02  0.15876517635E+03  0.97862603884E+03  0.99493113834E+03  0.81796249450E+02 0.  0.
          5    1    5    5  501    0  0.48463889736E+02  0.92425390887E+02  0.21878149143E+03  0.24244304997E+03  0.47000000000E+01 0. -1.
        -11    1    6    6    0    0  0.18084429783E+02  0.14464502083E+03  0.65631700860E+03  0.67231037805E+03  0.00000000000E+00 0.  1.
         12    1    6    6    0    0 -0.12904280746E+01  0.14120155518E+02  0.32230903024E+03  0.32262076029E+03  0.00000000000E+00 0. -1.
         -5    1    3    3    0  503 -0.43178725315E+02 -0.26769314700E+02  0.59786451963E+02  0.78597126968E+02  0.47000000000E+01 0.  1.
         13    1    4    4    0    0 -0.30825193162E+02 -0.19441810644E+03  0.32101749231E+02  0.19944702291E+03  0.00000000000E+00 0. -1.
        -14    1    4    4    0    0  0.87460270320E+01 -0.30003146095E+02 -0.27409682997E+02  0.41568888444E+02  0.00000000000E+00 0.  1.
<mgrwt>
<rscale>  2 0.31276722E+03</rscale>
<asrwt>0</asrwt>
<pdfrwt beam="1">  1       21 0.21683640E+00 0.31304155E+03</pdfrwt>
<pdfrwt beam="2">  1       21 0.22700092E-01 0.31304155E+03</pdfrwt>
<totfact> 0.17278129E+03</totfact>
</mgrwt>
</event>
<event>
12    1  0.1026879E-001  0.1985760E+03  0.7546771E-02  0.1151166E+00
         21   -1    0    0  501  502  0.00000000000E+00  0.00000000000E+00  0.82925526960E+02  0.82925526960E+02  0.00000000000E+00 0. -1.
         21   -1    0    0  502  503 -0.00000000000E+00 -0.00000000000E+00 -0.83147780583E+03  0.83147780583E+03  0.00000000000E+00 0. -1.
         -6    2    1    2    0  503  0.96800005344E+02 -0.57750572351E+01 -0.67500618625E+03  0.70360909592E+03  0.17328824561E+03 0.  0.
        -24    2    3    3    0    0  0.89327738357E+02 -0.14644869601E+02 -0.67955179916E+03  0.69029515803E+03  0.80764103478E+02 0.  0.
          6    2    1    2  501    0 -0.96800005344E+02  0.57750572351E+01 -0.73546092624E+02  0.21079423687E+03  0.17210923926E+03 0.  0.
         24    2    5    5    0    0 -0.12155289050E+03 -0.32315732983E+02 -0.71254588553E+02  0.16506727968E+03  0.79690517900E+02 0.  0.
          5    1    5    5  501    0  0.24752885161E+02  0.38090790218E+02 -0.22915040712E+01  0.45726957193E+02  0.47000000000E+01 0. -1.
        -13    1    6    6    0    0  0.50656429733E+01  0.11658395736E+02  0.10805893762E+01  0.12757217693E+02  0.00000000000E+00 0.  1.
         14    1    6    6    0    0 -0.12661853348E+03 -0.43974128719E+02 -0.72335177929E+02  0.15231006199E+03  0.00000000000E+00 0. -1.
         -5    1    3    3    0  503  0.74722669871E+01  0.88698123663E+01  0.45456129133E+01  0.13313937888E+02  0.47000000000E+01 0.  1.
         11    1    4    4    0    0  0.93966606570E+02 -0.31201743030E+02 -0.63244490642E+03  0.64014828873E+03  0.00000000000E+00 0. -1.
        -12    1    4    4    0    0 -0.46388682130E+01  0.16556873428E+02 -0.47106892748E+02  0.50146869298E+02  0.00000000000E+00 0.  1.
<mgrwt>
<rscale>  2 0.19831844E+03</rscale>
<asrwt>0</asrwt>
<pdfrwt beam="1">  1       21 0.12757773E-01 0.19857595E+03</pdfrwt>
<pdfrwt beam="2">  1       21 0.12791966E+00 0.19857595E+03</pdfrwt>
<totfact> 0.23582485E+04</totfact>
</mgrwt>
</event>
<event>
12    1  0.1026879E-001  0.2330909E+03  0.7546771E-02  0.1124755E+00
         21   -1    0    0  503  502  0.00000000000E+00  0.00000000000E+00  0.80179951012E+02  0.80179951012E+02  0.00000000000E+00 0. -1.
         21   -1    0    0  501  503 -0.00000000000E+00 -0.00000000000E+00 -0.94286438665E+03  0.94286438665E+03  0.00000000000E+00 0.  1.
          6    2    1    2  501    0  0.90898315934E+02 -0.12561069528E+03 -0.70392658029E+03  0.74102407846E+03  0.17194040771E+03 0.  0.
         24    2    3    3    0    0  0.11270824679E+02 -0.95340065490E+02 -0.26577138993E+03  0.29463981660E+03  0.83435185895E+02 0.  0.
         -6    2    1    2    0  502 -0.90898315934E+02  0.12561069528E+03 -0.15875785534E+03  0.28202025920E+03  0.17404257915E+03 0.  0.
        -24    2    5    5    0    0 -0.81670411272E+02  0.12332142625E+03 -0.18712674559E+03  0.25173364647E+03  0.80468500665E+02 0.  0.
          5    1    3    3  501    0  0.79627491255E+02 -0.30270629790E+02 -0.43815519036E+03  0.44638426186E+03  0.47000000000E+01 0. -1.
        -13    1    4    4    0    0  0.30144595242E+02 -0.60382038016E+02 -0.23468275124E+03  0.24419394109E+03  0.00000000000E+00 0.  1.
         14    1    4    4    0    0 -0.18873770562E+02 -0.34958027475E+02 -0.31088638688E+02  0.50445875507E+02  0.00000000000E+00 0. -1.
         -5    1    5    5    0  502 -0.92279046619E+01  0.22892690293E+01  0.28368890246E+02  0.30286612734E+02  0.47000000000E+01 0.  1.
         13    1    6    6    0    0 -0.18216242087E+02  0.10965139722E+02  0.34923559776E+01  0.21546747206E+02  0.00000000000E+00 0. -1.
        -14    1    6    6    0    0 -0.63454169185E+02  0.11235628653E+03 -0.19061910157E+03  0.23018689926E+03  0.00000000000E+00 0.  1.
<mgrwt>
<rscale>  2 0.23269856E+03</rscale>
<asrwt>0</asrwt>
<pdfrwt beam="1">  1       21 0.12335377E-01 0.23309090E+03</pdfrwt>
<pdfrwt beam="2">  1       21 0.14505606E+00 0.23309090E+03</pdfrwt>
<totfact> 0.17760041E+04</totfact>
</mgrwt>
</event>
<event>
12    1  0.1026879E-001  0.1825479E+03  0.7546771E-02  0.1166544E+00
         21   -1    0    0  503  502  0.00000000000E+00  0.00000000000E+00  0.26851803352E+03  0.26851803352E+03  0.00000000000E+00 0.  1.
         21   -1    0    0  501  503 -0.00000000000E+00 -0.00000000000E+00 -0.16903994419E+03  0.16903994419E+03  0.00000000000E+00 0.  1.
          6    2    1    2  501    0 -0.29225666965E+02 -0.39461627360E+02 -0.66660167808E+02  0.19433810015E+03  0.17581911032E+03 0.  0.
         24    2    3    3    0    0  0.50387065945E+02 -0.15077091850E+02 -0.15263838484E+02  0.96376549114E+02  0.79304976771E+02 0.  0.
         -6    2    1    2    0  502  0.29225666965E+02  0.39461627360E+02  0.16613825714E+03  0.24321987756E+03  0.17071212233E+03 0.  0.
        -24    2    5    5    0    0  0.82290192884E+02  0.10129194892E+02  0.11908770021E+03  0.16632982350E+03  0.81298544946E+02 0.  0.
          5    1    3    3  501    0 -0.79612732911E+02 -0.24384535510E+02 -0.51396329324E+02  0.97961551037E+02  0.47000000000E+01 0. -1.
        -13    1    4    4    0    0  0.23976211648E+02  0.13157604289E+02 -0.41465491078E+02  0.49672610421E+02  0.00000000000E+00 0.  1.
         14    1    4    4    0    0  0.26410854297E+02 -0.28234696139E+02  0.26201652595E+02  0.46703938693E+02  0.00000000000E+00 0. -1.
         -5    1    5    5    0  502 -0.53064525918E+02  0.29332432468E+02  0.47050556932E+02  0.76890054058E+02  0.47000000000E+01 0.  1.
         13    1    6    6    0    0  0.83376080934E+02  0.31707247619E+01  0.12932471272E+03  0.15390420945E+03  0.00000000000E+00 0. -1.
        -14    1    6    6    0    0 -0.10858880508E+01  0.69584701300E+01 -0.10237012508E+02  0.12425614049E+02  0.00000000000E+00 0.  1.
<mgrwt>
<rscale>  2 0.18130690E+03</rscale>
<asrwt>0</asrwt>
<pdfrwt beam="1">  1       21 0.41310467E-01 0.18254785E+03</pdfrwt>
<pdfrwt beam="2">  1       21 0.26006145E-01 0.18254785E+03</pdfrwt>
<totfact> 0.79582319E+04</totfact>
</mgrwt>
</event>
<event>
12    1  0.1026879E-001  0.1825252E+03  0.7546771E-02  0.1166913E+00
         21   -1    0    0  501  502  0.00000000000E+00  0.00000000000E+00  0.91062047943E+03  0.91062047943E+03  0.00000000000E+00 0. -1.
         21   -1    0    0  502  503 -0.00000000000E+00 -0.00000000000E+00 -0.37113033622E+02  0.37113033622E+02  0.00000000000E+00 0. -1.
         -6    2    1    2    0  503  0.34478460916E+01 -0.35171352464E+02  0.34019185570E+03  0.38606469483E+03  0.17907132165E+03 0.  0.
        -24    2    3    3    0    0  0.54125526053E+02  0.11053161219E+02  0.11004200872E+03  0.14586483019E+03  0.78202046389E+02 0.  0.
          6    2    1    2  501    0 -0.34478460916E+01  0.35171352464E+02  0.53331559011E+03  0.56166881822E+03  0.17261932403E+03 0.  0.
         24    2    5    5    0    0  0.33202571021E+02 -0.24595399049E+01  0.47421733102E+03  0.48246003485E+03  0.82323436100E+02 0.  0.
          5    1    5    5  501    0 -0.36650417113E+02  0.37630892369E+02  0.59098259091E+02  0.79208783368E+02  0.47000000000E+01 0. -1.
        -11    1    6    6    0    0  0.13797617104E+02  0.30204220589E+02  0.82909639462E+02  0.89312247172E+02  0.00000000000E+00 0.  1.
         12    1    6    6    0    0  0.19404953917E+02 -0.32663760494E+02  0.39130769155E+03  0.39314778768E+03  0.00000000000E+00 0. -1.
         -5    1    3    3    0  503 -0.50677679962E+02 -0.46224513683E+02  0.23014984697E+03  0.24019986464E+03  0.47000000000E+01 0.  1.
         11    1    4    4    0    0  0.58087781184E+02  0.60662871881E+01  0.30163892561E+02  0.65733177145E+02  0.00000000000E+00 0. -1.
        -12    1    4    4    0    0 -0.39622551308E+01  0.49868740304E+01  0.79878116162E+02  0.80131653047E+02  0.00000000000E+00 0.  1.
<mgrwt>
<rscale>  2 0.18092286E+03</rscale>
<asrwt>0</asrwt>
<pdfrwt beam="1">  1       21 0.14009544E+00 0.18252520E+03</pdfrwt>
<pdfrwt beam="2">  1       21 0.57096982E-02 0.18252520E+03</pdfrwt>
<totfact> 0.77045273E+04</totfact>
</mgrwt>
</event>
<event>
12    1  0.1026879E-001  0.2451526E+03  0.7546771E-02  0.1116438E+00
         21   -1    0    0  503  502  0.00000000000E+00  0.00000000000E+00  0.18365927903E+04  0.18365927903E+04  0.00000000000E+00 0.  1.
         21   -1    0    0  501  503 -0.00000000000E+00 -0.00000000000E+00 -0.41105437410E+02  0.41105437410E+02  0.00000000000E+00 0.  1.
          6    2    1    2  501    0 -0.10514535249E+03 -0.13714483007E+03  0.47343082122E+03  0.53313838434E+03  0.17388371060E+03 0.  0.
         24    2    3    3    0    0 -0.11559149979E+02 -0.66008069455E+02  0.33797871926E+03  0.35372774380E+03  0.80018890800E+02 0.  0.
         -6    2    1    2    0  502  0.10514535249E+03  0.13714483007E+03  0.13220565317E+04  0.13445598434E+04  0.17361869111E+03 0.  0.
        -24    2    5    5    0    0  0.36197268903E+02  0.41535190844E+02  0.92974568172E+03  0.93489542665E+03  0.81037100918E+02 0.  0.
          5    1    3    3  501    0 -0.93586202513E+02 -0.71136760618E+02  0.13545210197E+03  0.17941064054E+03  0.47000000000E+01 0. -1.
        -13    1    4    4    0    0 -0.27204891389E+02 -0.60229689989E+02  0.13751741181E+03  0.15257378616E+03  0.00000000000E+00 0.  1.
         14    1    4    4    0    0  0.15645741411E+02 -0.57783794666E+01  0.20046130744E+03  0.20115395764E+03  0.00000000000E+00 0. -1.
         -5    1    5    5    0  502  0.68948083588E+02  0.95609639229E+02  0.39231084999E+03  0.40966441677E+03  0.47000000000E+01 0.  1.
         11    1    6    6    0    0  0.61398476124E+02  0.19985353389E+02  0.64596743834E+03  0.64918650527E+03  0.00000000000E+00 0. -1.
        -12    1    6    6    0    0 -0.25201207221E+02  0.21549837455E+02  0.28377824338E+03  0.28570892138E+03  0.00000000000E+00 0.  1.
<mgrwt>
<rscale>  2 0.24510560E+03</rscale>
<asrwt>0</asrwt>
<pdfrwt beam="1">  1       21 0.28255267E+00 0.24515259E+03</pdfrwt>
<pdfrwt beam="2">  1       21 0.63239149E-02 0.24515259E+03</pdfrwt>
<totfact> 0.73706083E+03</totfact>
</mgrwt>
</event>
<event>
12    1  0.1026879E-001  0.2405707E+03  0.7546771E-02  0.1119477E+00
         21   -1    0    0  503  502  0.00000000000E+00  0.00000000000E+00  0.25513479761E+03  0.25513479761E+03  0.00000000000E+00 0.  1.
         21   -1    0    0  501  503 -0.00000000000E+00 -0.00000000000E+00 -0.25963905197E+03  0.25963905197E+03  0.00000000000E+00 0. -1.
          6    2    1    2  501    0  0.25842952321E+02  0.16507213042E+03 -0.94239395956E+02  0.25837052564E+03  0.17308263444E+03 0.  0.
         24    2    3    3    0    0  0.36821236398E+02  0.12138370511E+03 -0.13128192826E+03  0.19986035194E+03  0.81359746026E+02 0.  0.
         -6    2    1    2    0  502 -0.25842952321E+02 -0.16507213042E+03  0.89735141598E+02  0.25640332393E+03  0.17255028965E+03 0.  0.
        -24    2    5    5    0    0 -0.16935889404E+02 -0.10450915543E+03  0.12735737565E+03  0.18439823936E+03  0.81079107206E+02 0.  0.
          5    1    3    3  501    0 -0.10978284077E+02  0.43688425306E+02  0.37042532306E+02  0.58510173702E+02  0.47000000000E+01 0. -1.
        -11    1    4    4    0    0 -0.62058279307E+01  0.78979691273E+01  0.96098964197E+01  0.13901090815E+02  0.00000000000E+00 0.  1.
         12    1    4    4    0    0  0.43027064328E+02  0.11348573599E+03 -0.14089182468E+03  0.18595926113E+03  0.00000000000E+00 0. -1.
         -5    1    5    5    0  502 -0.89070629165E+01 -0.60562974987E+02 -0.37622234057E+02  0.72005084574E+02  0.47000000000E+01 0.  1.
         11    1    6    6    0    0  0.27268587852E+02 -0.73789726582E+02  0.65222927472E+02  0.10218869752E+03  0.00000000000E+00 0. -1.
        -12    1    6    6    0    0 -0.44204477256E+02 -0.30719428850E+02  0.62134448182E+02  0.82209541838E+02  0.00000000000E+00 0.  1.
<mgrwt>
<rscale>  2 0.24047497E+03</rscale>
<asrwt>0</asrwt>
<pdfrwt beam="1">  1       21 0.39251507E-01 0.24057071E+03</pdfrwt>
<pdfrwt beam="2">  1       21 0.39944469E-01 0.24057071E+03</pdfrwt>
<totfact> 0.36927256E+04</totfact>
</mgrwt>
</event>
<event>
12    1  0.1026879E-001  0.2705649E+03  0.7546771E-02  0.1101097E+00
         21   -1    0    0  503  502  0.00000000000E+00  0.00000000000E+00  0.15383857660E+03  0.15383857660E+03  0.00000000000E+00 0.  1.
         21   -1    0    0  501  503 -0.00000000000E+00 -0.00000000000E+00 -0.60907645580E+03  0.60907645580E+03  0.00000000000E+00 0.  1.
          6    2    1    2  501    0  0.18950550904E+03  0.84680713018E+02 -0.40684408640E+03  0.48805625740E+03  0.17202801703E+03 0.  0.
         24    2    3    3    0    0  0.68557279977E+02  0.96829360971E+02 -0.26351213872E+03  0.30006104208E+03  0.80758627633E+02 0.  0.
         -6    2    1    2    0  502 -0.18950550904E+03 -0.84680713018E+02 -0.48393792814E+02  0.27485877500E+03  0.17355755788E+03 0.  0.
        -24    2    5    5    0    0 -0.10252859844E+03 -0.25708659607E+02 -0.91962693942E+02  0.16100349314E+03  0.79321743866E+02 0.  0.
          5    1    3    3  501    0  0.12094822906E+03 -0.12148647953E+02 -0.14333194768E+03  0.18799521533E+03  0.47000000000E+01 0. -1.
        -11    1    4    4    0    0  0.65191886137E+02  0.10338995885E+03 -0.18831908356E+03  0.22450733361E+03  0.00000000000E+00 0.  1.
         12    1    4    4    0    0  0.33653938394E+01 -0.65605978792E+01 -0.75193055151E+02  0.75553708468E+02  0.00000000000E+00 0. -1.
         -5    1    5    5    0  502 -0.86976910597E+02 -0.58972053411E+02  0.43568901128E+02  0.11385528185E+03  0.47000000000E+01 0.  1.
         11    1    6    6    0    0 -0.10670150745E+03 -0.10673611548E+01 -0.79566930415E+02  0.13310615075E+03  0.00000000000E+00 0. -1.
        -12    1    6    6    0    0  0.41729090111E+01 -0.24641298453E+02 -0.12395763527E+02  0.27897342391E+02  0.00000000000E+00 0.  1.
<mgrwt>
<rscale>  2 0.27031996E+03</rscale>
<asrwt>0</asrwt>
<pdfrwt beam="1">  1       21 0.23667474E-01 0.27056494E+03</pdfrwt>
<pdfrwt beam="2">  1       21 0.93704069E-01 0.27056494E+03</pdfrwt>
<totfact> 0.15391179E+04</totfact>
</mgrwt>
</event>
<event>
12    1  0.1026879E-001  0.1973348E+03  0.7546771E-02  0.1152199E+00
         21   -1    0    0  503  502  0.00000000000E+00  0.00000000000E+00  0.11253815236E+04  0.11253815236E+04  0.00000000000E+00 0. -1.
         21   -1    0    0  501  503 -0.00000000000E+00 -0.00000000000E+00 -0.43511432051E+02  0.43511432051E+02  0.00000000000E+00 0. -1.
          6    2    1    2  501    0  0.91927224594E+02  0.22284379352E+02  0.27514345826E+03  0.33859259463E+03  0.17318722334E+03 0.  0.
         24    2    3    3    0    0  0.10779175506E+02 -0.38535291106E+02  0.87037147316E+02  0.12484013873E+03  0.80052707257E+02 0.  0.
         -6    2    1    2    0  502 -0.91927224594E+02 -0.22284379352E+02  0.80672663334E+03  0.83030036107E+03  0.17217322811E+03 0.  0.
        -24    2    5    5    0    0 -0.50884896375E+02  0.15889548918E+02  0.72325193517E+03  0.72964333579E+03  0.80276305898E+02 0.  0.
          5    1    3    3  501    0  0.81148049088E+02  0.60819670459E+02  0.18810631094E+03  0.21375245590E+03  0.47000000000E+01 0. -1.
        -11    1    4    4    0    0 -0.32162137831E+02 -0.72696705955E+00  0.34354999744E+02  0.47065885717E+02  0.00000000000E+00 0.  1.
         12    1    4    4    0    0  0.42941313337E+02 -0.37808324047E+02  0.52682147573E+02  0.77774253010E+02  0.00000000000E+00 0. -1.
         -5    1    5    5    0  502 -0.41042328219E+02 -0.38173928270E+02  0.83474698166E+02  0.10065702528E+03  0.47000000000E+01 0.  1.
         13    1    6    6    0    0 -0.30048981769E+02 -0.18691761028E+02  0.12177040021E+03  0.12680833413E+03  0.00000000000E+00 0. -1.
        -14    1    6    6    0    0 -0.20835914606E+02  0.34581309945E+02  0.60148153495E+03  0.60283500166E+03  0.00000000000E+00 0.  1.
<mgrwt>
<rscale>  2 0.19711209E+03</rscale>
<asrwt>0</asrwt>
<pdfrwt beam="1">  1       21 0.17313560E+00 0.19733480E+03</pdfrwt>
<pdfrwt beam="2">  1       21 0.66940673E-02 0.19733480E+03</pdfrwt>
<totfact> 0.33047198E+04</totfact>
</mgrwt>
</event>
<event>
12    1  0.1026879E-001  0.1987195E+03  0.7546771E-02  0.1150869E+00
         21   -1    0    0  503  502  0.00000000000E+00  0.00000000000E+00  0.20304026091E+03  0.20304026091E+03  0.00000000000E+00 0. -1.
         21   -1    0    0  501  503 -0.00000000000E+00 -0.00000000000E+00 -0.20413373835E+03  0.20413373835E+03  0.00000000000E+00 0.  1.
          6    2    1    2  501    0 -0.20213982417E+02  0.94802126521E+02  0.44172298456E+02  0.20356974952E+03  0.17347450155E+03 0.  0.
         24    2    3    3    0    0 -0.56603332413E+02  0.20252316078E+02 -0.15515181557E+02  0.10126361920E+03  0.79996913490E+02 0.  0.
         -6    2    1    2    0  502  0.20213982417E+02 -0.94802126521E+02 -0.45265775896E+02  0.20360424974E+03  0.17323294077E+03 0.  0.
        -24    2    5    5    0    0  0.21367319914E+02 -0.77636783244E+02  0.40417100725E+02  0.11608496876E+03  0.73199354292E+02 0.  0.
          5    1    3    3  501    0  0.36389349996E+02  0.74549810444E+02  0.59687480013E+02  0.10230613032E+03  0.47000000000E+01 0. -1.
        -13    1    4    4    0    0 -0.54967440290E+02  0.27001254160E+02  0.20502926471E+02  0.64582174105E+02  0.00000000000E+00 0.  1.
         14    1    4    4    0    0 -0.16358921231E+01 -0.67489380827E+01 -0.36018108028E+02  0.36681445094E+02  0.00000000000E+00 0. -1.
         -5    1    5    5    0  502 -0.11533374971E+01 -0.17165343277E+02 -0.85682876621E+02  0.87519280980E+02  0.47000000000E+01 0.  1.
         11    1    6    6    0    0 -0.14963756397E+02 -0.64401051326E+02  0.99584401995E+01  0.66862395624E+02  0.00000000000E+00 0. -1.
        -12    1    6    6    0    0  0.36331076311E+02 -0.13235731918E+02  0.30458660525E+02  0.49222573138E+02  0.00000000000E+00 0.  1.
<mgrwt>
<rscale>  2 0.19866680E+03</rscale>
<asrwt>0</asrwt>
<pdfrwt beam="1">  1       21 0.31236963E-01 0.19871953E+03</pdfrwt>
<pdfrwt beam="2">  1       21 0.31405191E-01 0.19871953E+03</pdfrwt>
<totfact> 0.95720943E+04</totfact>
</mgrwt>
</event>
<event>
12    1  0.1026879E-001  0.2268712E+03  0.7546771E-02  0.1128878E+00
         21   -1    0    0  501  502  0.00000000000E+00  0.00000000000E+00  0.24560416442E+03  0.24560416442E+03  0.00000000000E+00 0.  1.
         21   -1    0    0  502  503 -0.00000000000E+00 -0.00000000000E+00 -0.22417472640E+03  0.22417472640E+03  0.00000000000E+00 0.  1.
         -6    2    1    2    0  503 -0.69344155925E+02 -0.13055728790E+03 -0.49419726244E+02  0.23219138791E+03  0.17209507225E+03 0.  0.
        -24    2    3    3    0    0  0.14843546273E+02 -0.11066167369E+03 -0.47549310974E+02  0.14553694129E+03  0.80335094545E+02 0.  0.
          6    2    1    2  501    0  0.69344155925E+02  0.13055728790E+03  0.70849164259E+02  0.23758750290E+03  0.17197209098E+03 0.  0.
         24    2    5    5    0    0  0.54595406650E+02  0.12244644023E+03 -0.88175296777E+01  0.15602658348E+03  0.79326898150E+02 0.  0.
          5    1    5    5  501    0  0.14748749275E+02  0.81108476696E+01  0.79666693937E+02  0.81560919428E+02  0.47000000000E+01 0. -1.
        -13    1    6    6    0    0 -0.23798950823E+01  0.59353512265E+02  0.25116379911E+02  0.64492913244E+02  0.00000000000E+00 0.  1.
         14    1    6    6    0    0  0.56975301732E+02  0.63092927961E+02 -0.33933909589E+02  0.91533670232E+02  0.00000000000E+00 0. -1.
         -5    1    3    3    0  503 -0.84187702197E+02 -0.19895614202E+02 -0.18704152703E+01  0.86654446620E+02  0.47000000000E+01 0.  1.
         13    1    4    4    0    0  0.33688335583E+02 -0.12447624519E+02 -0.22711509032E+02  0.42493057704E+02  0.00000000000E+00 0. -1.
        -14    1    4    4    0    0 -0.18844789310E+02 -0.98214049175E+02 -0.24837801942E+02  0.10304388359E+03  0.00000000000E+00 0.  1.
<mgrwt>
<rscale>  2 0.22684786E+03</rscale>
<asrwt>0</asrwt>
<pdfrwt beam="1">  1       21 0.37785256E-01 0.22687118E+03</pdfrwt>
<pdfrwt beam="2">  1       21 0.34488419E-01 0.22687118E+03</pdfrwt>
<totfact> 0.53881887E+04</totfact>
</mgrwt>
</event>
<event>
12    1  0.1026879E-001  0.1958785E+03  0.7546771E-02  0.1154011E+00
         21   -1    0    0  503  502  0.00000000000E+00  0.00000000000E+00  0.13170677213E+04  0.13170677213E+04  0.00000000000E+00 0. -1.
         21   -1    0    0  501  503 -0.00000000000E+00 -0.00000000000E+00 -0.28911823553E+02  0.28911823553E+02  0.00000000000E+00 0. -1.
          6    2    1    2  501    0  0.73701565337E+02  0.51651633173E+02  0.70537804636E+03  0.73116379766E+03  0.17012495049E+03 0.  0.
         24    2    3    3    0    0  0.83253327173E+02  0.92845183543E+02  0.59004146228E+03  0.60822982199E+03  0.79014204792E+02 0.  0.
         -6    2    1    2    0  502 -0.73701565337E+02 -0.51651633173E+02  0.58277785141E+03  0.61481574721E+03  0.17397863946E+03 0.  0.
        -24    2    5    5    0    0 -0.25739268312E+02 -0.98923750142E+01  0.51460446867E+03  0.52146737984E+03  0.79687514974E+02 0.  0.
          5    1    3    3  501    0 -0.95517618355E+01 -0.41193550370E+02  0.11533658408E+03  0.12293397567E+03  0.47000000000E+01 0. -1.
        -11    1    4    4    0    0  0.87305299607E+01  0.55046588087E+02  0.14362129532E+03  0.15405656586E+03  0.00000000000E+00 0.  1.
         12    1    4    4    0    0  0.74522797212E+02  0.37798595457E+02  0.44642016696E+03  0.45417325613E+03  0.00000000000E+00 0. -1.
         -5    1    5    5    0  502 -0.47962297025E+02 -0.41759258159E+02  0.68173382738E+02  0.93348367376E+02  0.47000000000E+01 0.  1.
         13    1    6    6    0    0 -0.98686876833E+01 -0.64674080574E+00  0.42200671329E+01  0.10752592100E+02  0.00000000000E+00 0. -1.
        -14    1    6    6    0    0 -0.15870580629E+02 -0.92456342085E+01  0.51038440154E+03  0.51071478774E+03  0.00000000000E+00 0.  1.
<mgrwt>
<rscale>  2 0.19501917E+03</rscale>
<asrwt>0</asrwt>
<pdfrwt beam="1">  1       21 0.20262576E+00 0.19587848E+03</pdfrwt>
<pdfrwt beam="2">  1       21 0.44479739E-02 0.19587848E+03</pdfrwt>
<totfact> 0.42252562E+04</totfact>
</mgrwt>
</event>
<event>
12    1  0.1026879E-001  0.2173917E+03  0.7546771E-02  0.1135944E+00
         21   -1    0    0  503  502  0.00000000000E+00  0.00000000000E+00  0.34416696894E+02  0.34416696894E+02  0.00000000000E+00 0.  1.
         21   -1    0    0  501  503 -0.00000000000E+00 -0.00000000000E+00 -0.19234544054E+04  0.19234544054E+04  0.00000000000E+00 0.  1.
          6    2    1    2  501    0 -0.67396907473E+02  0.11217687041E+03 -0.14689158833E+04  0.14848367312E+04  0.17291689506E+03 0.  0.
         24    2    3    3    0    0 -0.64406747709E+02  0.31196806544E+02 -0.45086169106E+03  0.46355168763E+03  0.80513556312E+02 0.  0.
         -6    2    1    2    0  502  0.67396907473E+02 -0.11217687041E+03 -0.42012182521E+03  0.47303437114E+03  0.17358909778E+03 0.  0.
        -24    2    5    5    0    0  0.86823776576E+01 -0.12229338684E+03 -0.22067801035E+03  0.26482854701E+03  0.80026988656E+02 0.  0.
          5    1    3    3  501    0 -0.29901597645E+01  0.80980063867E+02 -0.10180541922E+04  0.10212850435E+04  0.47000000000E+01 0. -1.
        -13    1    4    4    0    0 -0.65048729143E+02  0.35102144733E+02 -0.20949092229E+03  0.22214847344E+03  0.00000000000E+00 0.  1.
         14    1    4    4    0    0  0.64198143457E+00 -0.39053381889E+01 -0.24137076877E+03  0.24140321419E+03  0.00000000000E+00 0. -1.
         -5    1    5    5    0  502  0.58714529815E+02  0.10116516425E+02 -0.19944381486E+03  0.20820582413E+03  0.47000000000E+01 0.  1.
         13    1    6    6    0    0  0.12968595281E+01  0.11918704583E+02 -0.18616628059E+02  0.22143084786E+02  0.00000000000E+00 0. -1.
        -14    1    6    6    0    0  0.73855181295E+01 -0.13421209142E+03 -0.20206138229E+03  0.24268546222E+03  0.00000000000E+00 0.  1.
<mgrwt>
<rscale>  2 0.21725752E+03</rscale>
<asrwt>0</asrwt>
<pdfrwt beam="1">  1       21 0.52948763E-02 0.21739174E+03</pdfrwt>
<pdfrwt beam="2">  1       21 0.29591607E+00 0.21739174E+03</pdfrwt>
<totfact> 0.85720911E+03</totfact>
</mgrwt>
</event>
<event>
12    1  0.1026879E-001  0.3024853E+03  0.7546771E-02  0.1084166E+00
         21   -1    0    0  503  502  0.00000000000E+00  0.00000000000E+00  0.82515041733E+03  0.82515041733E+03  0.00000000000E+00 0.  1.
         21   -1    0    0  501  503 -0.00000000000E+00 -0.00000000000E+00 -0.78329774913E+03  0.78329774913E+03  0.00000000000E+00 0. -1.
          6    2    1    2  501    0 -0.21727601376E+03  0.11905464214E+03 -0.72447305475E+03  0.78458380629E+03  0.17125322788E+03 0.  0.
         24    2    3    3    0    0 -0.59756109275E+02  0.86534666229E+02 -0.25322983327E+03  0.28662564245E+03  0.83485743670E+02 0.  0.
         -6    2    1    2    0  502  0.21727601376E+03 -0.11905464214E+03  0.76632572296E+03  0.82386436017E+03  0.17353528841E+03 0.  0.
        -24    2    5    5    0    0  0.17342489668E+03 -0.77801615132E+02  0.38160228117E+03  0.43443022021E+03  0.83546568645E+02 0.  0.
          5    1    3    3  501    0 -0.15751990448E+03  0.32519975912E+02 -0.47124322148E+03  0.49795816384E+03  0.47000000000E+01 0. -1.
        -13    1    4    4    0    0 -0.37426053757E+02  0.95225768083E+02 -0.23565871795E+03  0.25691182875E+03  0.00000000000E+00 0.  1.
         14    1    4    4    0    0 -0.22330055517E+02 -0.86911018538E+01 -0.17571115321E+02  0.29713813698E+02  0.00000000000E+00 0. -1.
         -5    1    5    5    0  502  0.43851117080E+02 -0.41253027009E+02  0.38472344179E+03  0.38943413996E+03  0.47000000000E+01 0.  1.
         13    1    6    6    0    0  0.10940972773E+03 -0.55133542895E+01  0.22884212823E+03  0.25371165770E+03  0.00000000000E+00 0. -1.
        -14    1    6    6    0    0  0.64015168948E+02 -0.72288260843E+02  0.15276015294E+03  0.18071856251E+03  0.00000000000E+00 0.  1.
<mgrwt>
<rscale>  2 0.30215894E+03</rscale>
<asrwt>0</asrwt>
<pdfrwt beam="1">  1       21 0.12694622E+00 0.30248532E+03</pdfrwt>
<pdfrwt beam="2">  1       21 0.12050735E+00 0.30248532E+03</pdfrwt>
<totfact> 0.21507056E+02</totfact>
</mgrwt>
</event>
<event>
12    1  0.1026879E-001  0.1794324E+03  0.7546771E-02  0.1168749E+00
         21   -1    0    0  501  502  0.00000000000E+00  0.00000000000E+00  0.13088164189E+03  0.13088164189E+03  0.00000000000E+00 0.  1.
         21   -1    0    0  502  503 -0.00000000000E+00 -0.00000000000E+00 -0.49017536899E+03  0.49017536899E+03  0.00000000000E+00 0.  1.
         -6    2    1    2    0  503 -0.24520005825E+02  0.34477460734E+02 -0.39940434149E+03  0.43719603232E+03  0.17270384098E+03 0.  0.
        -24    2    3    3    0    0 -0.47220806429E+02  0.72336727981E+02 -0.17045147079E+03  0.20397905723E+03  0.71353662280E+02 0.  0.
          6    2    1    2  501    0  0.24520005825E+02 -0.34477460734E+02  0.40110614392E+02  0.18386097856E+03  0.17437336972E+03 0.  0.
         24    2    5    5    0    0 -0.30129645327E+02  0.77224716758E+01  0.66937123274E+02  0.10963719366E+03  0.81069745684E+02 0.  0.
          5    1    5    5  501    0  0.54649651152E+02 -0.42199932410E+02 -0.26826508882E+02  0.74223784902E+02  0.47000000000E+01 0. -1.
        -11    1    6    6    0    0 -0.28051982775E+02  0.22750915650E+01 -0.11920394953E+02  0.30564449857E+02  0.00000000000E+00 0.  1.
         12    1    6    6    0    0 -0.20776625517E+01  0.54473801108E+01  0.78857518227E+02  0.79072743804E+02  0.00000000000E+00 0. -1.
         -5    1    3    3    0  503  0.22700800604E+02 -0.37859267247E+02 -0.22895287071E+03  0.23321697509E+03  0.47000000000E+01 0.  1.
         13    1    4    4    0    0 -0.37879956930E+02 -0.22109247838E+00 -0.45689154904E+02  0.59350138119E+02  0.00000000000E+00 0. -1.
        -14    1    4    4    0    0 -0.93408494987E+01  0.72557820460E+02 -0.12476231588E+03  0.14462891911E+03  0.00000000000E+00 0.  1.
<mgrwt>
<rscale>  2 0.17902555E+03</rscale>
<asrwt>0</asrwt>
<pdfrwt beam="1">  1       21 0.20135637E-01 0.17943243E+03</pdfrwt>
<pdfrwt beam="2">  1       21 0.75411596E-01 0.17943243E+03</pdfrwt>
<totfact> 0.36048783E+04</totfact>
</mgrwt>
</event>
<event>
12    1  0.1026879E-001  0.1869531E+03  0.7546771E-02  0.1161755E+00
         21   -1    0    0  503  502  0.00000000000E+00  0.00000000000E+00  0.12996535535E+03  0.12996535535E+03  0.00000000000E+00 0.  1.
         21   -1    0    0  501  503 -0.00000000000E+00 -0.00000000000E+00 -0.59214646166E+03  0.59214646166E+03  0.00000000000E+00 0.  1.
          6    2    1    2  501    0 -0.29878278694E+02 -0.58760608536E+02 -0.49853416837E+03  0.53165704574E+03  0.17256122564E+03 0.  0.
         24    2    3    3    0    0 -0.62959629869E+02 -0.87264772877E+02 -0.42135729175E+03  0.44285826497E+03  0.83680463454E+02 0.  0.
         -6    2    1    2    0  502  0.29878278694E+02  0.58760608536E+02  0.36353062059E+02  0.19045477127E+03  0.17494557476E+03 0.  0.
        -24    2    5    5    0    0 -0.30889933218E+02  0.69882149833E+02  0.64731770657E+02  0.12230856550E+03  0.70224498735E+02 0.  0.
          5    1    3    3  501    0  0.33081351176E+02  0.28504164341E+02 -0.77176876622E+02  0.88798780766E+02  0.47000000000E+01 0. -1.
        -11    1    4    4    0    0  0.54262436841E+01 -0.45097737099E+02 -0.78323363171E+02  0.90541698849E+02  0.00000000000E+00 0.  1.
         12    1    4    4    0    0 -0.68385873554E+02 -0.42167035777E+02 -0.34303392858E+03  0.35231656612E+03  0.00000000000E+00 0. -1.
         -5    1    5    5    0  502  0.60768211911E+02 -0.11121541297E+02 -0.28378708598E+02  0.68146205774E+02  0.47000000000E+01 0.  1.
         13    1    6    6    0    0 -0.26138190536E+02 -0.66915859639E+01  0.14857651914E+02  0.30801495866E+02  0.00000000000E+00 0. -1.
        -14    1    6    6    0    0 -0.47517426816E+01  0.76573735796E+02  0.49874118744E+02  0.91507069633E+02  0.00000000000E+00 0.  1.
<mgrwt>
<rscale>  2 0.18639330E+03</rscale>
<asrwt>0</asrwt>
<pdfrwt beam="1">  1       21 0.19994670E-01 0.18695314E+03</pdfrwt>
<pdfrwt beam="2">  1       21 0.91099456E-01 0.18695314E+03</pdfrwt>
<totfact> 0.23668431E+04</totfact>
</mgrwt>
</event>
<event>
12    1  0.1026879E-001  0.2341645E+03  0.7546771E-02  0.1124979E+00
         21   -1    0    0  503  502  0.00000000000E+00  0.00000000000E+00  0.43243591281E+03  0.43243591281E+03  0.00000000000E+00 0.  1.
         21   -1    0    0  501  503 -0.00000000000E+00 -0.00000000000E+00 -0.12434530401E+03  0.12434530401E+03  0.00000000000E+00 0.  1.
          6    2    1    2  501    0  0.98040116136E+02  0.12398236896E+03  0.18068584982E+03  0.29020107561E+03  0.16305151264E+03 0.  0.
         24    2    3    3    0    0 -0.18003126254E+01  0.90296183677E+02  0.93370071493E+02  0.15327406790E+03  0.81353105223E+02 0.  0.
         -6    2    1    2    0  502 -0.98040116136E+02 -0.12398236896E+03  0.12740475898E+03  0.26658014121E+03  0.17277009838E+03 0.  0.
        -24    2    5    5    0    0 -0.37269630111E+01 -0.73168626844E+01  0.55337889292E+02  0.10008228863E+03  0.82986479465E+02 0.  0.
          5    1    3    3  501    0  0.99840428762E+02  0.33686185282E+02  0.87315778325E+02  0.13692700770E+03  0.47000000000E+01 0. -1.
        -11    1    4    4    0    0  0.10566395598E+02  0.70466867365E+02  0.16787974666E+02  0.73205629603E+02  0.00000000000E+00 0.  1.
         12    1    4    4    0    0 -0.12366708224E+02  0.19829316312E+02  0.76582096827E+02  0.80068438302E+02  0.00000000000E+00 0. -1.
         -5    1    5    5    0  502 -0.94313153125E+02 -0.11666550627E+03  0.72066869685E+02  0.16649785258E+03  0.47000000000E+01 0.  1.
         13    1    6    6    0    0  0.37173491790E+01 -0.38208885004E+02  0.25571987190E+01  0.38474366056E+02  0.00000000000E+00 0. -1.
        -14    1    6    6    0    0 -0.74443121901E+01  0.30892022319E+02  0.52780690573E+02  0.61607922578E+02  0.00000000000E+00 0.  1.
<mgrwt>
<rscale>  2 0.23237513E+03</rscale>
<asrwt>0</asrwt>
<pdfrwt beam="1">  1       21 0.66528601E-01 0.23416447E+03</pdfrwt>
<pdfrwt beam="2">  1       21 0.19130047E-01 0.23416447E+03</pdfrwt>
<totfact> 0.50966659E+04</totfact>
</mgrwt>
</event>
<event>
11    1  0.1026879E-001  0.2057820E+03  0.7546771E-02  0.1145437E+00
         21   -1    0    0  501  502  0.00000000000E+00  0.00000000000E+00  0.34296134349E+03  0.34296134349E+03  0.00000000000E+00 0. -1.
         21   -1    0    0  502  503 -0.00000000000E+00 -0.00000000000E+00 -0.31521770120E+03  0.31521770120E+03  0.00000000000E+00 0. -1.
         -6    2    1    2    0  503 -0.54376881268E+02 -0.96712900802E+02 -0.24371337654E+03  0.31897087886E+03  0.17330891858E+03 0.  0.
        -24    2    3    3    0    0 -0.73533239188E+01 -0.12071336000E+03 -0.21253342746E+03  0.25747684490E+03  0.80610676820E+02 0.  0.
          6    2    1    2  501    0  0.54376881268E+02  0.96712900802E+02  0.27145701883E+03  0.33920816583E+03  0.17047884414E+03 0.  0.
          5    1    5    5  501    0 -0.15002492938E+02  0.10020728773E+03  0.71382259759E+02  0.12403262602E+03  0.47000000000E+01 0. -1.
        -11    1    5    5    0    0  0.59710591414E+02 -0.11098833512E+02  0.12357198719E+03  0.13769014072E+03  0.00000000000E+00 0.  1.
         12    1    5    5    0    0  0.96687827921E+01  0.76044465870E+01  0.76502771877E+02  0.77485399098E+02  0.00000000000E+00 0. -1.
         -5    1    3    3    0  503 -0.47023557349E+02  0.24000459201E+02 -0.31179949081E+02  0.61494033957E+02  0.47000000000E+01 0.  1.
         13    1    4    4    0    0 -0.23633900479E+02 -0.15566537999E+02 -0.12565595725E+02  0.30964052594E+02  0.00000000000E+00 0. -1.
        -14    1    4    4    0    0  0.16280576561E+02 -0.10514682200E+03 -0.19996783174E+03  0.22651279231E+03  0.00000000000E+00 0.  1.
<mgrwt>
<rscale>  2 0.20518492E+03</rscale>
<asrwt>0</asrwt>
<pdfrwt beam="1">  1       21 0.52763283E-01 0.20578195E+03</pdfrwt>
<pdfrwt beam="2">  1       21 0.48495031E-01 0.20578195E+03</pdfrwt>
<totfact> 0.13707795E+04</totfact>
</mgrwt>
</event>
<event>
12    1  0.1026879E-001  0.1972613E+03  0.7546771E-02  0.1152536E+00
         21   -1    0    0  503  502  0.00000000000E+00  0.00000000000E+00  0.37401699689E+03  0.37401699689E+03  0.00000000000E+00 0.  1.
         21   -1    0    0  501  503 -0.00000000000E+00 -0.00000000000E+00 -0.12827814676E+03  0.12827814676E+03  0.00000000000E+00 0.  1.
          6    2    1    2  501    0 -0.61195353807E+02  0.70968697623E+02  0.23510578910E+03  0.30689859698E+03  0.17358165049E+03 0.  0.
         24    2    3    3    0    0 -0.72418015068E+02  0.54202650297E+02  0.68176922727E+02  0.13868924855E+03  0.80026987108E+02 0.  0.
         -6    2    1    2    0  502  0.61195353807E+02 -0.70968697623E+02  0.10633061019E+02  0.19539654667E+03  0.17112954477E+03 0.  0.
        -24    2    5    5    0    0 -0.23704308819E+02 -0.13854259784E+02  0.33098802272E+02  0.90530864707E+02  0.79664747423E+02 0.  0.
          5    1    3    3  501    0  0.11222661261E+02  0.16766047327E+02  0.16692886638E+03  0.16820934843E+03  0.47000000000E+01 0. -1.
        -13    1    4    4    0    0 -0.46258073260E+02  0.39769207319E+02  0.84827789907E+02  0.10448518140E+03  0.00000000000E+00 0.  1.
         14    1    4    4    0    0 -0.26159941808E+02  0.14433442978E+02 -0.16650867180E+02  0.34204067147E+02  0.00000000000E+00 0. -1.
         -5    1    5    5    0  502  0.84899662626E+02 -0.57114437840E+02 -0.22465741253E+02  0.10486568196E+03  0.47000000000E+01 0.  1.
         13    1    6    6    0    0  0.12351562271E+02  0.26099829227E+01 -0.20374704922E+02  0.23968765134E+02  0.00000000000E+00 0. -1.
        -14    1    6    6    0    0 -0.36055871090E+02 -0.16464242706E+02  0.53473507194E+02  0.66562099573E+02  0.00000000000E+00 0.  1.
<mgrwt>
<rscale>  2 0.19672050E+03</rscale>
<asrwt>0</asrwt>
<pdfrwt beam="1">  1       21 0.57541076E-01 0.19726129E+03</pdfrwt>
<pdfrwt beam="2">  1       21 0.19735100E-01 0.19726129E+03</pdfrwt>
<totfact> 0.66925119E+04</totfact>
</mgrwt>
</event>
<event>
12    1  0.1026879E-001  0.1770575E+03  0.7546771E-02  0.1171230E+00
         21   -1    0    0  503  502  0.00000000000E+00  0.00000000000E+00  0.10063295840E+03  0.10063295840E+03  0.00000000000E+00 0.  1.
         21   -1    0    0  501  503 -0.00000000000E+00 -0.00000000000E+00 -0.62040320183E+03  0.62040320183E+03  0.00000000000E+00 0.  1.
          6    2    1    2  501    0 -0.32743766896E+01  0.40919021128E+02 -0.51665727307E+03  0.54615390352E+03  0.17223315789E+03 0.  0.
         24    2    3    3    0    0  0.62711861546E+02  0.89702967190E+01 -0.26811859068E+03  0.28698509507E+03  0.80371775656E+02 0.  0.
         -6    2    1    2    0  502  0.32743766896E+01 -0.40919021128E+02 -0.31129703570E+01  0.17488225670E+03  0.16996771838E+03 0.  0.
        -24    2    5    5    0    0 -0.45308603975E+02 -0.26738091413E+01  0.39018905870E+02  0.99914348603E+02  0.80002394914E+02 0.  0.
          5    1    3    3  501    0 -0.65986238236E+02  0.31948724409E+02 -0.24853868239E+03  0.25916880845E+03  0.47000000000E+01 0. -1.
        -11    1    4    4    0    0  0.21942525894E+02  0.10107846398E+01 -0.22859340791E+03  0.22964634173E+03  0.00000000000E+00 0.  1.
         12    1    4    4    0    0  0.40769335652E+02  0.79595120792E+01 -0.39525182771E+02  0.57338753345E+02  0.00000000000E+00 0. -1.
         -5    1    5    5    0  502  0.48582980665E+02 -0.38245211987E+02 -0.42131876227E+02  0.74967908098E+02  0.47000000000E+01 0.  1.
         11    1    6    6    0    0 -0.34891450057E+02 -0.10750435268E+02 -0.18482312449E+02  0.40921644872E+02  0.00000000000E+00 0. -1.
        -12    1    6    6    0    0 -0.10417153918E+02  0.80766261264E+01  0.57501218320E+02  0.58992703732E+02  0.00000000000E+00 0.  1.
<mgrwt>
<rscale>  2 0.17650415E+03</rscale>
<asrwt>0</asrwt>
<pdfrwt beam="1">  1       21 0.15481994E-01 0.17705747E+03</pdfrwt>
<pdfrwt beam="2">  1       21 0.95446644E-01 0.17705747E+03</pdfrwt>
<totfact> 0.34219379E+04</totfact>
</mgrwt>
</event>
<event>
12    1  0.1026879E-001  0.1960161E+03  0.7546771E-02  0.1153166E+00
         21   -1    0    0  501  502  0.00000000000E+00  0.00000000000E+00  0.27208262744E+02  0.27208262744E+02  0.00000000000E+00 0.  1.
         21   -1    0    0  502  503 -0.00000000000E+00 -0.00000000000E+00 -0.14326349507E+04  0.14326349507E+04  0.00000000000E+00 0. -1.
         -6    2    1    2    0  503  0.92648822786E+02 -0.64300814408E+01 -0.61377460866E+03  0.64428492524E+03  0.17250693998E+03 0.  0.
        -24    2    3    3    0    0  0.29914269599E+02  0.55525612579E+02 -0.25800736488E+03  0.27772448830E+03  0.81148837877E+02 0.  0.
          6    2    1    2  501    0 -0.92648822786E+02  0.64300814408E+01 -0.79165207931E+03  0.81555828822E+03  0.17261852883E+03 0.  0.
         24    2    5    5    0    0 -0.62917875882E+02 -0.73536796481E+01 -0.21122122196E+03  0.23418406154E+03  0.78835489260E+02 0.  0.
          5    1    5    5  501    0 -0.29730946904E+02  0.13783761089E+02 -0.58043085735E+03  0.58137422668E+03  0.47000000000E+01 0. -1.
        -11    1    6    6    0    0 -0.59670880326E+02 -0.36406114553E+02 -0.16844927284E+03  0.18237646958E+03  0.00000000000E+00 0.  1.
         12    1    6    6    0    0 -0.32469955560E+01  0.29052434905E+02 -0.42771949117E+02  0.51807591966E+02  0.00000000000E+00 0. -1.
         -5    1    3    3    0  503  0.62734553187E+02 -0.61955694020E+02 -0.35576724378E+03  0.36656043695E+03  0.47000000000E+01 0.  1.
         11    1    4    4    0    0 -0.17662303695E+02  0.61785071248E+01 -0.14006554208E+03  0.14130989704E+03  0.00000000000E+00 0. -1.
        -12    1    4    4    0    0  0.47576573294E+02  0.49347105454E+02 -0.11794182280E+03  0.13641459126E+03  0.00000000000E+00 0.  1.
<mgrwt>
<rscale>  2 0.19599152E+03</rscale>
<asrwt>0</asrwt>
<pdfrwt beam="1">  1       21 0.41858870E-02 0.19601609E+03</pdfrwt>
<pdfrwt beam="2">  1       21 0.22040535E+00 0.19601609E+03</pdfrwt>
<totfact> 0.36227600E+04</totfact>
</mgrwt>
</event>
<event>
12    1  0.1026879E-001  0.2247325E+03  0.7546771E-02  0.1130642E+00
         21   -1    0    0  503  502  0.00000000000E+00  0.00000000000E+00  0.31317107360E+03  0.31317107360E+03  0.00000000000E+00 0.  1.
         21   -1    0    0  501  503 -0.00000000000E+00 -0.00000000000E+00 -0.16603577581E+03  0.16603577581E+03  0.00000000000E+00 0. -1.
          6    2    1    2  501    0 -0.88299119667E+02 -0.11099901824E+03  0.29343838249E+02  0.22664011932E+03  0.17431915057E+03 0.  0.
         24    2    3    3    0    0 -0.11465432531E+03 -0.98273882414E+02 -0.15190883963E+02  0.17314285369E+03  0.83332553972E+02 0.  0.
         -6    2    1    2    0  502  0.88299119667E+02  0.11099901824E+03  0.11779145954E+03  0.25256673009E+03  0.17261983844E+03 0.  0.
        -24    2    5    5    0    0  0.12653381934E+02  0.67162544738E+02  0.30657089980E+01  0.10824763265E+03  0.83888234653E+02 0.  0.
          5    1    3    3  501    0  0.26355205648E+02 -0.12725135823E+02  0.44534722212E+02  0.53497265622E+02  0.47000000000E+01 0. -1.
        -11    1    4    4    0    0 -0.71076348664E+02 -0.86674042509E+01  0.38184609885E+01  0.71704615473E+02  0.00000000000E+00 0.  1.
         12    1    4    4    0    0 -0.43577976651E+02 -0.89606478163E+02 -0.19009344952E+02  0.10143823822E+03  0.00000000000E+00 0. -1.
         -5    1    5    5    0  502  0.75645737734E+02  0.43836473500E+02  0.11472575054E+03  0.14431909743E+03  0.47000000000E+01 0.  1.
         11    1    6    6    0    0 -0.19357190557E+02  0.66858335370E+02  0.19471705555E+02  0.72276449498E+02  0.00000000000E+00 0. -1.
        -12    1    6    6    0    0  0.32010572491E+02  0.30420936756E+00 -0.16405996557E+02  0.35971183155E+02  0.00000000000E+00 0.  1.
<mgrwt>
<rscale>  2 0.22440286E+03</rscale>
<asrwt>0</asrwt>
<pdfrwt beam="1">  1       21 0.48180165E-01 0.22473247E+03</pdfrwt>
<pdfrwt beam="2">  1       21 0.25543966E-01 0.22473247E+03</pdfrwt>
<totfact> 0.58970162E+04</totfact>
</mgrwt>
</event>
<event>
12    1  0.1026879E-001  0.2148235E+03  0.7546771E-02  0.1139065E+00
         21   -1    0    0  503  502  0.00000000000E+00  0.00000000000E+00  0.19249020868E+03  0.19249020868E+03  0.00000000000E+00 0.  1.
         21   -1    0    0  501  503 -0.00000000000E+00 -0.00000000000E+00 -0.35326532494E+03  0.35326532494E+03  0.00000000000E+00 0.  1.
          6    2    1    2  501    0  0.31346059627E+02  0.12474273480E+03 -0.23905557651E+03  0.31711392447E+03  0.16392177126E+03 0.  0.
         24    2    3    3    0    0  0.65901796331E+02  0.35650316118E+02 -0.93656669290E+02  0.14306079974E+03  0.77979669928E+02 0.  0.
         -6    2    1    2    0  502 -0.31346059627E+02 -0.12474273480E+03  0.78280460250E+02  0.22864160914E+03  0.17206344653E+03 0.  0.
        -24    2    5    5    0    0  0.47857726422E+02 -0.68318273643E+02  0.57364217549E+02  0.12905978976E+03  0.80050155444E+02 0.  0.
          5    1    3    3  501    0 -0.34555736704E+02  0.89092418686E+02 -0.14539890722E+03  0.17405312473E+03  0.47000000000E+01 0. -1.
        -11    1    4    4    0    0  0.41007402728E+02  0.30196160161E+02 -0.10380952190E+03  0.11562798971E+03  0.00000000000E+00 0.  1.
         12    1    4    4    0    0  0.24894393603E+02  0.54541559566E+01  0.10152852614E+02  0.27432810032E+02  0.00000000000E+00 0. -1.
         -5    1    5    5    0  502 -0.79203786049E+02 -0.56424461161E+02  0.20916242701E+02  0.99581819377E+02  0.47000000000E+01 0.  1.
         11    1    6    6    0    0  0.16902898045E+02  0.10976776471E+02 -0.80531053204E+01  0.21703688380E+02  0.00000000000E+00 0. -1.
        -12    1    6    6    0    0  0.30954828377E+02 -0.79295050114E+02  0.65417322869E+02  0.10735610138E+03  0.00000000000E+00 0.  1.
<mgrwt>
<rscale>  2 0.21318897E+03</rscale>
<asrwt>0</asrwt>
<pdfrwt beam="1">  1       21 0.29613878E-01 0.21482354E+03</pdfrwt>
<pdfrwt beam="2">  1       21 0.54348512E-01 0.21482354E+03</pdfrwt>
<totfact> 0.34553568E+04</totfact>
</mgrwt>
</event>
<event>
12    1  0.1026879E-001  0.2638910E+03  0.7546771E-02  0.1104982E+00
         21   -1    0    0  503  502  0.00000000000E+00  0.00000000000E+00  0.58272199784E+02  0.58272199784E+02  0.00000000000E+00 0. -1.
         21   -1    0    0  501  503 -0.00000000000E+00 -0.00000000000E+00 -0.16580415645E+04  0.16580415645E+04  0.00000000000E+00 0.  1.
          6    2    1    2  501    0 -0.17294618473E+03 -0.99351375181E+02 -0.12545309136E+04  0.12817702435E+04  0.17119014450E+03 0.  0.
         24    2    3    3    0    0 -0.20002993512E+03 -0.85066839050E+02 -0.11312039793E+04  0.11546120734E+04  0.79109135415E+02 0.  0.
         -6    2    1    2    0  502  0.17294618473E+03  0.99351375181E+02 -0.34523845120E+03  0.43454352079E+03  0.17279295330E+03 0.  0.
        -24    2    5    5    0    0  0.19435916882E+03  0.71694283861E+02 -0.25831144223E+03  0.34072547628E+03  0.80333630290E+02 0.  0.
          5    1    3    3  501    0  0.27083750389E+02 -0.14284536131E+02 -0.12332693431E+03  0.12715817014E+03  0.47000000000E+01 0. -1.
        -11    1    4    4    0    0 -0.20054075778E+02  0.64869514377E+01 -0.23492853236E+03  0.23587213022E+03  0.00000000000E+00 0.  1.
         12    1    4    4    0    0 -0.17997585934E+03 -0.91553790488E+02 -0.89627544689E+03  0.91873994318E+03  0.00000000000E+00 0. -1.
         -5    1    5    5    0  502 -0.21412984087E+02  0.27657091320E+02 -0.86927008972E+02  0.93818044515E+02  0.47000000000E+01 0.  1.
         13    1    6    6    0    0  0.70683369816E+02 -0.60641430689E+01 -0.12083700769E+03  0.14012314237E+03  0.00000000000E+00 0. -1.
        -14    1    6    6    0    0  0.12367579900E+03  0.77758426930E+02 -0.13747443454E+03  0.20060233391E+03  0.00000000000E+00 0.  1.
<mgrwt>
<rscale>  2 0.26362898E+03</rscale>
<asrwt>0</asrwt>
<pdfrwt beam="1">  1       21 0.89649534E-02 0.26389104E+03</pdfrwt>
<pdfrwt beam="2">  1       21 0.25508333E+00 0.26389104E+03</pdfrwt>
<totfact> 0.57306149E+03</totfact>
</mgrwt>
</event>
<event>
12    1  0.1026879E-001  0.2204711E+03  0.7546771E-02  0.1133955E+00
         21   -1    0    0  503  502  0.00000000000E+00  0.00000000000E+00  0.15440007273E+04  0.15440007273E+04  0.00000000000E+00 0.  1.
         21   -1    0    0  501  503 -0.00000000000E+00 -0.00000000000E+00 -0.63736380235E+02  0.63736380235E+02  0.00000000000E+00 0.  1.
          6    2    1    2  501    0 -0.25848984347E+02 -0.13132203068E+03  0.16356224813E+03  0.27270454606E+03  0.17234127392E+03 0.  0.
         24    2    3    3    0    0 -0.73391067483E+02 -0.91064324241E+02  0.15476091841E+03  0.20961345318E+03  0.79422276150E+02 0.  0.
         -6    2    1    2    0  502  0.25848984347E+02  0.13132203068E+03  0.13167020990E+04  0.13350325615E+04  0.17519668128E+03 0.  0.
        -24    2    5    5    0    0 -0.34077864233E+01  0.10078915898E+03  0.12420931066E+04  0.12491442233E+04  0.85999637693E+02 0.  0.
          5    1    3    3  501    0  0.47542083136E+02 -0.40257706438E+02  0.88013297206E+01  0.63091092885E+02  0.47000000000E+01 0. -1.
        -13    1    4    4    0    0 -0.45910094076E+02 -0.98042830239E+02  0.14189473632E+03  0.17847758821E+03  0.00000000000E+00 0.  1.
         14    1    4    4    0    0 -0.27480973407E+02  0.69785059983E+01  0.12866182095E+02  0.31135864964E+02  0.00000000000E+00 0. -1.
         -5    1    5    5    0  502  0.29256770770E+02  0.30532871696E+02  0.74608992362E+02  0.85888338156E+02  0.47000000000E+01 0.  1.
         11    1    6    6    0    0  0.57841926208E+01  0.16354502552E+00  0.42394155870E+01  0.71733029888E+01  0.00000000000E+00 0. -1.
        -12    1    6    6    0    0 -0.91919790441E+01  0.10062561396E+03  0.12378536910E+04  0.12419709204E+04  0.00000000000E+00 0.  1.
<mgrwt>
<rscale>  2 0.21990341E+03</rscale>
<asrwt>0</asrwt>
<pdfrwt beam="1">  1       21 0.23753854E+00 0.22047114E+03</pdfrwt>
<pdfrwt beam="2">  1       21 0.98055982E-02 0.22047114E+03</pdfrwt>
<totfact> 0.64506454E+03</totfact>
</mgrwt>
</event>
<event>
12    1  0.1026879E-001  0.1764109E+03  0.7546771E-02  0.1171671E+00
         21   -1    0    0  503  502  0.00000000000E+00  0.00000000000E+00  0.48351578299E+02  0.48351578299E+02  0.00000000000E+00 0. -1.
         21   -1    0    0  501  503 -0.00000000000E+00 -0.00000000000E+00 -0.81337249801E+03  0.81337249801E+03  0.00000000000E+00 0. -1.
          6    2    1    2  501    0  0.78949849493E+01  0.26364258640E+02 -0.58345891806E+03  0.60954500726E+03  0.17425097384E+03 0.  0.
         24    2    3    3    0    0 -0.78204940537E+01 -0.52956202578E+02 -0.29612506110E+03  0.31101268538E+03  0.78570472428E+02 0.  0.
         -6    2    1    2    0  502 -0.78949849493E+01 -0.26364258640E+02 -0.18156200165E+03  0.25217906906E+03  0.17283552154E+03 0.  0.
        -24    2    5    5    0    0 -0.36313751149E+02  0.39809694249E+02 -0.70476119675E+02  0.11970725512E+03  0.80370661344E+02 0.  0.
          5    1    3    3  501    0  0.15715479003E+02  0.79320461218E+02 -0.28733385696E+03  0.29853232188E+03  0.47000000000E+01 0. -1.
        -13    1    4    4    0    0  0.30702553412E+01 -0.37337445860E+02 -0.42422659884E+02  0.56596761416E+02  0.00000000000E+00 0.  1.
         14    1    4    4    0    0 -0.10890749395E+02 -0.15618756718E+02 -0.25370240121E+03  0.25441592396E+03  0.00000000000E+00 0. -1.
         -5    1    5    5    0  502  0.28418766200E+02 -0.66173952889E+02 -0.11108588198E+03  0.13247181394E+03  0.47000000000E+01 0.  1.
         11    1    6    6    0    0  0.23871672990E+01 -0.21493986305E+02 -0.54085388786E+01  0.22292202848E+02  0.00000000000E+00 0. -1.
        -12    1    6    6    0    0 -0.38700918448E+02  0.61303680554E+02 -0.65067580796E+02  0.97415052271E+02  0.00000000000E+00 0.  1.
<mgrwt>
<rscale>  2 0.17606036E+03</rscale>
<asrwt>0</asrwt>
<pdfrwt beam="1">  1       21 0.74387049E-02 0.17641090E+03</pdfrwt>
<pdfrwt beam="2">  1       21 0.12513422E+00 0.17641090E+03</pdfrwt>
<totfact> 0.65303907E+04</totfact>
</mgrwt>
</event>
<event>
12    1  0.1026879E-001  0.2504639E+03  0.7546771E-02  0.1113026E+00
         21   -1    0    0  503  502  0.00000000000E+00  0.00000000000E+00  0.14166654897E+04  0.14166654897E+04  0.00000000000E+00 0.  1.
         21   -1    0    0  501  503 -0.00000000000E+00 -0.00000000000E+00 -0.60320446993E+02  0.60320446993E+02  0.00000000000E+00 0.  1.
          6    2    1    2  501    0 -0.57698734602E+02  0.17132171353E+03  0.29727216819E+03  0.38871959978E+03  0.17335487235E+03 0.  0.
         24    2    3    3    0    0 -0.99929878440E+02  0.93304550646E+02  0.15930357237E+03  0.22462337603E+03  0.79914411180E+02 0.  0.
         -6    2    1    2    0  502  0.57698734602E+02 -0.17132171353E+03  0.10590728745E+04  0.10882663369E+04  0.17322815311E+03 0.  0.
        -24    2    5    5    0    0  0.45324515871E+02 -0.34855255183E+02  0.61509734372E+03  0.62360239654E+03  0.85240871446E+02 0.  0.
          5    1    3    3  501    0  0.42231143838E+02  0.78017162879E+02  0.13796859582E+03  0.16409622374E+03  0.47000000000E+01 0. -1.
        -13    1    4    4    0    0 -0.61658922260E+02  0.76367181978E+02  0.15374533445E+03  0.18240448745E+03  0.00000000000E+00 0.  1.
         14    1    4    4    0    0 -0.38270956180E+02  0.16937368669E+02  0.55582379219E+01  0.42218888583E+02  0.00000000000E+00 0. -1.
         -5    1    5    5    0  502  0.12374218730E+02 -0.13646645834E+03  0.44397553078E+03  0.46466394037E+03  0.47000000000E+01 0.  1.
         13    1    6    6    0    0  0.23327333355E+01  0.39235762881E+01 -0.10965197041E+01  0.46945128783E+01  0.00000000000E+00 0. -1.
        -14    1    6    6    0    0  0.42991782536E+02 -0.38778831471E+02  0.61619386343E+03  0.61890788366E+03  0.00000000000E+00 0.  1.
<mgrwt>
<rscale>  2 0.25044201E+03</rscale>
<asrwt>0</asrwt>
<pdfrwt beam="1">  1       21 0.21794851E+00 0.25046394E+03</pdfrwt>
<pdfrwt beam="2">  1       21 0.92800698E-02 0.25046394E+03</pdfrwt>
<totfact> 0.91547792E+03</totfact>
</mgrwt>
</event>
<event>
12    1  0.1026879E-001  0.3500961E+03  0.7546771E-02  0.1062938E+00
         21   -1    0    0  501  502  0.00000000000E+00  0.00000000000E+00  0.16461409094E+04  0.16461409094E+04  0.00000000000E+00 0. -1.
         21   -1    0    0  502  503 -0.00000000000E+00 -0.00000000000E+00 -0.22633838201E+03  0.22633838201E+03  0.00000000000E+00 0.  1.
         -6    2    1    2    0  503  0.14999059834E+03  0.26522782712E+03 -0.57746986932E+02  0.35482673769E+03  0.17240742273E+03 0.  0.
        -24    2    3    3    0    0  0.11956758492E+03  0.89884701675E+02 -0.11821163058E+02  0.17097341930E+03  0.81954275372E+02 0.  0.
          6    2    1    2  501    0 -0.14999059834E+03 -0.26522782712E+03  0.14775495143E+04  0.15176525537E+04  0.16514759046E+03 0.  0.
         24    2    5    5    0    0 -0.83341707763E+02 -0.19791457038E+03  0.77102957104E+03  0.80479515605E+03  0.84217731830E+02 0.  0.
          5    1    5    5  501    0 -0.66648890574E+02 -0.67313256743E+02  0.70651994326E+03  0.71285739765E+03  0.47000000000E+01 0. -1.
        -11    1    6    6    0    0 -0.94832587757E+02 -0.17544713953E+03  0.72884369646E+03  0.75563751385E+03  0.00000000000E+00 0.  1.
         12    1    6    6    0    0  0.11490879993E+02 -0.22467430851E+02  0.42185874582E+02  0.49157642197E+02  0.00000000000E+00 0. -1.
         -5    1    3    3    0  503  0.30423013418E+02  0.17534312545E+03 -0.45925823875E+02  0.18385331840E+03  0.47000000000E+01 0.  1.
         13    1    4    4    0    0 -0.82623669133E+00  0.10467116826E+02  0.20622040930E+02  0.23141127324E+02  0.00000000000E+00 0. -1.
        -14    1    4    4    0    0  0.12039382161E+03  0.79417584849E+02 -0.32443203987E+02  0.14783229197E+03  0.00000000000E+00 0.  1.
<mgrwt>
<rscale>  2 0.34921341E+03</rscale>
<asrwt>0</asrwt>
<pdfrwt beam="1">  1       21 0.25325244E+00 0.35009613E+03</pdfrwt>
<pdfrwt beam="2">  1       21 0.34821291E-01 0.35009613E+03</pdfrwt>
<totfact> 0.43407581E+02</totfact>
</mgrwt>
</event>
<event>
12    1  0.1026879E-001  0.2094970E+03  0.7546771E-02  0.1142022E+00
         21   -1    0    0  501  502  0.00000000000E+00  0.00000000000E+00  0.10201226018E+04  0.10201226018E+04  0.00000000000E+00 0. -1.
         21   -1    0    0  502  503 -0.00000000000E+00 -0.00000000000E+00 -0.73813426772E+02  0.73813426772E+02  0.00000000000E+00 0.  1.
         -6    2    1    2    0  503 -0.11077219879E+03 -0.39484492882E+02  0.11936615234E+03  0.24086877666E+03  0.17303174287E+03 0.  0.
        -24    2    3    3    0    0 -0.55674982752E+02 -0.89642335581E+02  0.86863206634E+02  0.15944369527E+03  0.82107388597E+02 0.  0.
          6    2    1    2  501    0  0.11077219879E+03  0.39484492882E+02  0.82694302270E+03  0.85306725192E+03  0.17337666600E+03 0.  0.
         24    2    5    5    0    0  0.12340978522E+03  0.45033774241E+02  0.44628350763E+03  0.47212859607E+03  0.80488670819E+02 0.  0.
          5    1    5    5  501    0 -0.12637586437E+02 -0.55492813593E+01  0.38065951506E+03  0.38093865585E+03  0.47000000000E+01 0. -1.
        -11    1    6    6    0    0  0.90839475440E+02  0.96604506438E+01  0.18349276446E+03  0.20497494777E+03  0.00000000000E+00 0.  1.
         12    1    6    6    0    0  0.32570309784E+02  0.35373323597E+02  0.26279074317E+03  0.26715364830E+03  0.00000000000E+00 0. -1.
         -5    1    3    3    0  503 -0.55097216034E+02  0.50157842699E+02  0.32502945704E+02  0.81425081384E+02  0.47000000000E+01 0.  1.
         13    1    4    4    0    0 -0.98135435815E+01 -0.82896056187E+02  0.36834266317E+02  0.91240478649E+02  0.00000000000E+00 0. -1.
        -14    1    4    4    0    0 -0.45861439170E+02 -0.67462793944E+01  0.50028940317E+02  0.68203216623E+02  0.00000000000E+00 0.  1.
<mgrwt>
<rscale>  2 0.20942558E+03</rscale>
<asrwt>0</asrwt>
<pdfrwt beam="1">  1       21 0.15694193E+00 0.20949695E+03</pdfrwt>
<pdfrwt beam="2">  1       21 0.11355913E-01 0.20949695E+03</pdfrwt>
<totfact> 0.16967236E+04</totfact>
</mgrwt>
</event>
<event>
12    1  0.1026879E-001  0.2385164E+03  0.7546771E-02  0.1122845E+00
         21   -1    0    0  503  502  0.00000000000E+00  0.00000000000E+00  0.86977522127E+03  0.86977522127E+03  0.00000000000E+00 0. -1.
         21   -1    0    0  501  503 -0.00000000000E+00 -0.00000000000E+00 -0.12786141234E+03  0.12786141234E+03  0.00000000000E+00 0. -1.
          6    2    1    2  501    0 -0.79745471503E+02 -0.14231753659E+03  0.18116582941E+02  0.23920342639E+03  0.17400128498E+03 0.  0.
         24    2    3    3    0    0 -0.10050327378E+03 -0.13988859384E+03  0.53967819561E+02  0.19743995808E+03  0.80001779812E+02 0.  0.
         -6    2    1    2    0  502  0.79745471503E+02  0.14231753659E+03  0.72379722599E+03  0.75843320722E+03  0.15724148312E+03 0.  0.
        -24    2    5    5    0    0  0.25368262001E+02  0.14886953821E+03  0.52235491932E+03  0.54962491582E+03  0.80169808724E+02 0.  0.
          5    1    3    3  501    0  0.20757802274E+02 -0.24289427507E+01 -0.35851236620E+02  0.41763468310E+02  0.47000000000E+01 0. -1.
        -11    1    4    4    0    0  0.45194633684E+01 -0.95269839321E+01  0.25551533663E+02  0.27641813336E+02  0.00000000000E+00 0.  1.
         12    1    4    4    0    0 -0.10502273715E+03 -0.13036160990E+03  0.28416285898E+02  0.16979814474E+03  0.00000000000E+00 0. -1.
         -5    1    5    5    0  502  0.54377209501E+02 -0.65520016264E+01  0.20144230667E+03  0.20880829139E+03  0.47000000000E+01 0.  1.
         13    1    6    6    0    0 -0.13911636647E+02  0.23088856894E+02  0.31837188315E+02  0.41716130054E+02  0.00000000000E+00 0. -1.
        -14    1    6    6    0    0  0.39279898649E+02  0.12578068132E+03  0.49051773100E+03  0.50790878577E+03  0.00000000000E+00 0.  1.
<mgrwt>
<rscale>  2 0.23547460E+03</rscale>
<asrwt>0</asrwt>
<pdfrwt beam="1">  1       21 0.13381157E+00 0.23851639E+03</pdfrwt>
<pdfrwt beam="2">  1       21 0.19670987E-01 0.23851639E+03</pdfrwt>
<totfact> 0.92668779E+03</totfact>
</mgrwt>
</event>
<event>
12    1  0.1026879E-001  0.2224878E+03  0.7546771E-02  0.1132704E+00
         21   -1    0    0  503  502  0.00000000000E+00  0.00000000000E+00  0.19756995769E+03  0.19756995769E+03  0.00000000000E+00 0. -1.
         21   -1    0    0  501  503 -0.00000000000E+00 -0.00000000000E+00 -0.49299669634E+03  0.49299669634E+03  0.00000000000E+00 0. -1.
          6    2    1    2  501    0  0.11193720561E+03 -0.73812185022E+02 -0.39243936452E+03  0.45112024996E+03  0.17754618678E+03 0.  0.
         24    2    3    3    0    0  0.91750214983E+02 -0.51885823045E+02 -0.11392855790E+03  0.17097985775E+03  0.71722763955E+02 0.  0.
         -6    2    1    2    0  502 -0.11193720561E+03  0.73812185022E+02  0.97012625866E+02  0.23944640408E+03  0.17304610423E+03 0.  0.
        -24    2    5    5    0    0  0.40252905357E+01  0.57426654879E+02  0.29279350446E+02  0.10407405568E+03  0.81609466660E+02 0.  0.
          5    1    3    3  501    0  0.20186990630E+02 -0.21926361977E+02 -0.27851080662E+03  0.28014039221E+03  0.47000000000E+01 0. -1.
        -11    1    4    4    0    0  0.50036786392E+02  0.10724351684E+02 -0.35369628989E+02  0.62206931819E+02  0.00000000000E+00 0.  1.
         12    1    4    4    0    0  0.41713428591E+02 -0.62610174729E+02 -0.78558928909E+02  0.10877292593E+03  0.00000000000E+00 0. -1.
         -5    1    5    5    0  502 -0.11596249615E+03  0.16385530143E+02  0.67733275420E+02  0.13537234840E+03  0.47000000000E+01 0.  1.
         13    1    6    6    0    0 -0.90801021948E+01  0.20141514442E+02  0.53388572152E+02  0.57779481621E+02  0.00000000000E+00 0. -1.
        -14    1    6    6    0    0  0.13105392731E+02  0.37285140437E+02 -0.24109221706E+02  0.46294574059E+02  0.00000000000E+00 0.  1.
<mgrwt>
<rscale>  2 0.22158880E+03</rscale>
<asrwt>0</asrwt>
<pdfrwt beam="1">  1       21 0.30395378E-01 0.22248781E+03</pdfrwt>
<pdfrwt beam="2">  1       21 0.75845645E-01 0.22248781E+03</pdfrwt>
<totfact> 0.15814781E+04</totfact>
</mgrwt>
</event>
<event>
12    1  0.1026879E-001  0.1763485E+03  0.7546771E-02  0.1172190E+00
         21   -1    0    0  503  502  0.00000000000E+00  0.00000000000E+00  0.89423177092E+03  0.89423177092E+03  0.00000000000E+00 0. -1.
         21   -1    0    0  501  503 -0.00000000000E+00 -0.00000000000E+00 -0.51073104582E+02  0.51073104582E+02  0.00000000000E+00 0. -1.
          6    2    1    2  501    0 -0.85682552801E+00 -0.30714460054E+02  0.14689816318E+03  0.22705875401E+03  0.17038924620E+03 0.  0.
         24    2    3    3    0    0 -0.27220466247E+02  0.36164694547E+02  0.46407348322E+02  0.10341265928E+03  0.80571069289E+02 0.  0.
         -6    2    1    2    0  502  0.85682552801E+00  0.30714460054E+02  0.69626050315E+03  0.71824612148E+03  0.17365105981E+03 0.  0.
        -24    2    5    5    0    0 -0.54701736808E+02  0.23061152336E+02  0.59048431910E+03  0.59842951963E+03  0.76954935527E+02 0.  0.
          5    1    3    3  501    0  0.26363640719E+02 -0.66879154601E+02  0.10049081486E+03  0.12364609474E+03  0.47000000000E+01 0. -1.
        -13    1    4    4    0    0  0.16145575834E+02  0.14842021284E+01  0.45038314988E+02  0.47867862830E+02  0.00000000000E+00 0.  1.
         14    1    4    4    0    0 -0.43366042081E+02  0.34680492419E+02  0.13690333340E+01  0.55544796448E+02  0.00000000000E+00 0. -1.
         -5    1    5    5    0  502  0.55558562336E+02  0.76533077186E+01  0.10577618405E+03  0.11981660186E+03  0.47000000000E+01 0.  1.
         11    1    6    6    0    0  0.16909495378E+02  0.48713395397E+01  0.21666577683E+03  0.21737920745E+03  0.00000000000E+00 0. -1.
        -12    1    6    6    0    0 -0.71611232187E+02  0.18189812796E+02  0.37381854227E+03  0.38105031218E+03  0.00000000000E+00 0.  1.
<mgrwt>
<rscale>  2 0.17554024E+03</rscale>
<asrwt>0</asrwt>
<pdfrwt beam="1">  1       21 0.13757411E+00 0.17634853E+03</pdfrwt>
<pdfrwt beam="2">  1       21 0.78574014E-02 0.17634853E+03</pdfrwt>
<totfact> 0.46769391E+04</totfact>
</mgrwt>
</event>
<event>
12    1  0.1026879E-001  0.1757308E+03  0.7546771E-02  0.1172101E+00
         21   -1    0    0  501  502  0.00000000000E+00  0.00000000000E+00  0.42317938583E+03  0.42317938583E+03  0.00000000000E+00 0.  1.
         21   -1    0    0  502  503 -0.00000000000E+00 -0.00000000000E+00 -0.23869082170E+03  0.23869082170E+03  0.00000000000E+00 0.  1.
         -6    2    1    2    0  503  0.20004660584E+02  0.17910854254E+02 -0.18367268749E+03  0.25391919439E+03  0.17325794644E+03 0.  0.
        -24    2    3    3    0    0 -0.43118471635E+02  0.47969836478E+02 -0.90330229959E+02  0.13720168665E+03  0.80650136817E+02 0.  0.
          6    2    1    2  501    0 -0.20004660584E+02 -0.17910854254E+02  0.36816125161E+03  0.40795101314E+03  0.17366731640E+03 0.  0.
         24    2    5    5    0    0  0.28048125757E+02 -0.26339018871E+02  0.33495860137E+03  0.34875126469E+03  0.89161307261E+02 0.  0.
          5    1    5    5  501    0 -0.48052786341E+02  0.84281646174E+01  0.33202650240E+02  0.59199748453E+02  0.47000000000E+01 0. -1.
        -13    1    6    6    0    0  0.14938882731E+02 -0.38208406682E+02  0.56988723415E+02  0.70219421494E+02  0.00000000000E+00 0.  1.
         14    1    6    6    0    0  0.13109243026E+02  0.11869387811E+02  0.27796987796E+03  0.27853184319E+03  0.00000000000E+00 0. -1.
         -5    1    3    3    0  503  0.63123132219E+02 -0.30058982224E+02 -0.93342457530E+02  0.11671750773E+03  0.47000000000E+01 0.  1.
         13    1    4    4    0    0 -0.70946834354E+01 -0.21308191995E+02 -0.34676163036E+02  0.41313555427E+02  0.00000000000E+00 0. -1.
        -14    1    4    4    0    0 -0.36023788199E+02  0.69278028473E+02 -0.55654066923E+02  0.95888131228E+02  0.00000000000E+00 0.  1.
<mgrwt>
<rscale>  2 0.17562960E+03</rscale>
<asrwt>0</asrwt>
<pdfrwt beam="1">  1       21 0.65104521E-01 0.17573082E+03</pdfrwt>
<pdfrwt beam="2">  1       21 0.36721665E-01 0.17573082E+03</pdfrwt>
<totfact> 0.15701906E+04</totfact>
</mgrwt>
</event>
<event>
12    1  0.1026879E-001  0.1905870E+03  0.7546771E-02  0.1157948E+00
         21   -1    0    0  503  502  0.00000000000E+00  0.00000000000E+00  0.12834224555E+03  0.12834224555E+03  0.00000000000E+00 0.  1.
         21   -1    0    0  501  503 -0.00000000000E+00 -0.00000000000E+00 -0.28613812717E+03  0.28613812717E+03  0.00000000000E+00 0.  1.
          6    2    1    2  501    0  0.73427725854E+02  0.35485508849E+02 -0.10089016419E+03  0.21564376564E+03  0.17225723836E+03 0.  0.
         24    2    3    3    0    0  0.69334221648E+02 -0.30787862563E+02 -0.21732494155E+02  0.11221773768E+03  0.79783410395E+02 0.  0.
         -6    2    1    2    0  502 -0.73427725854E+02 -0.35485508849E+02 -0.56905717428E+02  0.19883660707E+03  0.17218270347E+03 0.  0.
        -24    2    5    5    0    0 -0.17021525176E+02 -0.42857926938E+02  0.27655593474E+02  0.96813485551E+02  0.80507669904E+02 0.  0.
          5    1    3    3  501    0  0.40935042053E+01  0.66273371412E+02 -0.79157670037E+02  0.10342602797E+03  0.47000000000E+01 0. -1.
        -11    1    4    4    0    0  0.48307413802E+02  0.11306016349E+02 -0.37933832722E+02  0.62453245703E+02  0.00000000000E+00 0.  1.
         12    1    4    4    0    0  0.21026807846E+02 -0.42093878911E+02  0.16201338566E+02  0.49764491973E+02  0.00000000000E+00 0. -1.
         -5    1    5    5    0  502 -0.56406200678E+02  0.73724180881E+01 -0.84561310902E+02  0.10202312152E+03  0.47000000000E+01 0.  1.
         13    1    6    6    0    0 -0.20830827820E+02 -0.62116970721E+02  0.36812836759E+02  0.75150691210E+02  0.00000000000E+00 0. -1.
        -14    1    6    6    0    0  0.38093026435E+01  0.19259043783E+02 -0.91572432851E+01  0.21662794341E+02  0.00000000000E+00 0.  1.
<mgrwt>
<rscale>  2 0.19057017E+03</rscale>
<asrwt>0</asrwt>
<pdfrwt beam="1">  1       21 0.19744961E-01 0.19058701E+03</pdfrwt>
<pdfrwt beam="2">  1       21 0.44021250E-01 0.19058701E+03</pdfrwt>
<totfact> 0.11729220E+05</totfact>
</mgrwt>
</event>
<event>
12    1  0.1026879E-001  0.1813147E+03  0.7546771E-02  0.1166996E+00
         21   -1    0    0  503  502  0.00000000000E+00  0.00000000000E+00  0.40860960582E+03  0.40860960582E+03  0.00000000000E+00 0.  1.
         21   -1    0    0  501  503 -0.00000000000E+00 -0.00000000000E+00 -0.13859791591E+03  0.13859791591E+03  0.00000000000E+00 0.  1.
          6    2    1    2  501    0  0.19619312155E+02 -0.15968971881E+02 -0.43074758494E+02  0.18636105221E+03  0.17954130859E+03 0.  0.
         24    2    3    3    0    0  0.71290090680E+02 -0.13527862825E+01  0.13526265023E+02  0.10819924505E+03  0.80249671182E+02 0.  0.
         -6    2    1    2    0  502 -0.19619312155E+02  0.15968971881E+02  0.31308644840E+03  0.36084646952E+03  0.17761510330E+03 0.  0.
        -24    2    5    5    0    0  0.57118057431E+02  0.28928078137E+02  0.15881999595E+03  0.18799742937E+03  0.77588247495E+02 0.  0.
          5    1    3    3  501    0 -0.51670778525E+02 -0.14616185598E+02 -0.56601023516E+02  0.78161807156E+02  0.47000000000E+01 0. -1.
        -11    1    4    4    0    0  0.81178645514E+01 -0.23106909630E+02 -0.21652933765E+02  0.32690649093E+02  0.00000000000E+00 0.  1.
         12    1    4    4    0    0  0.63172226129E+02  0.21754123347E+02  0.35179198787E+02  0.75508595961E+02  0.00000000000E+00 0. -1.
         -5    1    5    5    0  502 -0.76737369586E+02 -0.12959106256E+02  0.15426645245E+03  0.17284904014E+03  0.47000000000E+01 0.  1.
         11    1    6    6    0    0  0.31231689457E+02  0.54602612390E+02  0.85882266274E+02  0.10645481373E+03  0.00000000000E+00 0. -1.
        -12    1    6    6    0    0  0.25886367974E+02 -0.25674534254E+02  0.72937729673E+02  0.81542615643E+02  0.00000000000E+00 0.  1.
<mgrwt>
<rscale>  2 0.18083598E+03</rscale>
<asrwt>0</asrwt>
<pdfrwt beam="1">  1       21 0.62863016E-01 0.18131466E+03</pdfrwt>
<pdfrwt beam="2">  1       21 0.21322756E-01 0.18131466E+03</pdfrwt>
<totfact> 0.48239920E+04</totfact>
</mgrwt>
</event>
<event>
12    1  0.1026879E-001  0.2318555E+03  0.7546771E-02  0.1125386E+00
         21   -1    0    0  501  502  0.00000000000E+00  0.00000000000E+00  0.83462724745E+03  0.83462724745E+03  0.00000000000E+00 0.  1.
         21   -1    0    0  502  503 -0.00000000000E+00 -0.00000000000E+00 -0.70853799536E+02  0.70853799536E+02  0.00000000000E+00 0. -1.
         -6    2    1    2    0  503  0.26490550668E+02 -0.14927321170E+03  0.24476846374E+03  0.33714770415E+03  0.17542158524E+03 0.  0.
        -24    2    3    3    0    0  0.41605753103E+02 -0.10925560367E+03  0.57500940592E+02  0.14499908063E+03  0.63643928135E+02 0.  0.
          6    2    1    2  501    0 -0.26490550668E+02  0.14927321170E+03  0.51900498417E+03  0.56833334283E+03  0.17507819388E+03 0.  0.
         24    2    5    5    0    0  0.37426040121E+02  0.75206571674E+02  0.38277383559E+03  0.40054712889E+03  0.82858049403E+02 0.  0.
          5    1    5    5  501    0 -0.63916590790E+02  0.74066640029E+02  0.13623114858E+03  0.16778621394E+03  0.47000000000E+01 0. -1.
        -11    1    6    6    0    0 -0.16412857305E+02 -0.83373317720E+01  0.68602569202E+02  0.71029609932E+02  0.00000000000E+00 0.  1.
         12    1    6    6    0    0  0.53838897426E+02  0.83543903446E+02  0.31417126639E+03  0.32951751896E+03  0.00000000000E+00 0. -1.
         -5    1    3    3    0  503 -0.15115202434E+02 -0.40017608031E+02  0.18726752315E+03  0.19214862353E+03  0.47000000000E+01 0.  1.
         13    1    4    4    0    0  0.39329648425E+02 -0.26413965581E+02  0.35657862862E+02  0.59295885244E+02  0.00000000000E+00 0. -1.
        -14    1    4    4    0    0  0.22761046779E+01 -0.82841638091E+02  0.21843077730E+02  0.85703195383E+02  0.00000000000E+00 0.  1.
<mgrwt>
<rscale>  2 0.23179055E+03</rscale>
<asrwt>0</asrwt>
<pdfrwt beam="1">  1       21 0.12840418E+00 0.23185550E+03</pdfrwt>
<pdfrwt beam="2">  1       21 0.10900585E-01 0.23185550E+03</pdfrwt>
<totfact> 0.30374843E+04</totfact>
</mgrwt>
</event>
<event>
12    1  0.1026879E-001  0.5843654E+03  0.7546771E-02  0.9938941E-01
         21   -1    0    0  503  502  0.00000000000E+00  0.00000000000E+00  0.29666760381E+03  0.29666760381E+03  0.00000000000E+00 0. -1.
         21   -1    0    0  501  503 -0.00000000000E+00 -0.00000000000E+00 -0.12922488596E+04  0.12922488596E+04  0.00000000000E+00 0.  1.
          6    2    1    2  501    0 -0.54400881672E+03  0.11954731139E+03 -0.76267721775E+03  0.96081186404E+03  0.17676466636E+03 0.  0.
         24    2    3    3    0    0 -0.15223882909E+03  0.45899319512E+02 -0.17562268019E+03  0.25119022543E+03  0.83485297740E+02 0.  0.
         -6    2    1    2    0  502  0.54400881672E+03 -0.11954731139E+03 -0.23290403805E+03  0.62810459939E+03  0.17330304239E+03 0.  0.
        -24    2    5    5    0    0  0.35015049474E+03 -0.14590955964E+03 -0.14752033366E+03  0.41459000010E+03  0.78915466032E+02 0.  0.
          5    1    3    3  501    0 -0.39176998763E+03  0.73647991880E+02 -0.58705453756E+03  0.70962163861E+03  0.47000000000E+01 0. -1.
        -13    1    4    4    0    0 -0.87220263269E+02 -0.15911145083E+02 -0.72676443464E+02  0.11464032579E+03  0.00000000000E+00 0.  1.
         14    1    4    4    0    0 -0.65018565818E+02  0.61810464595E+02 -0.10294623673E+03  0.13654989964E+03  0.00000000000E+00 0. -1.
         -5    1    5    5    0  502  0.19385832198E+03  0.26362248247E+02 -0.85383704398E+02  0.21351459929E+03  0.47000000000E+01 0.  1.
         11    1    6    6    0    0  0.10528937606E+03 -0.38182633888E+02 -0.65059496511E+01  0.11218776058E+03  0.00000000000E+00 0. -1.
        -12    1    6    6    0    0  0.24486111867E+03 -0.10772692575E+03 -0.14101438400E+03  0.30240223952E+03  0.00000000000E+00 0.  1.
<mgrwt>
<rscale>  2 0.58410577E+03</rscale>
<asrwt>0</asrwt>
<pdfrwt beam="1">  1       21 0.45641169E-01 0.58436538E+03</pdfrwt>
<pdfrwt beam="2">  1       21 0.19880752E+00 0.58436538E+03</pdfrwt>
<totfact> 0.48964269E+02</totfact>
</mgrwt>
</event>
<event>
12    1  0.1026879E-001  0.2073069E+03  0.7546771E-02  0.1144166E+00
         21   -1    0    0  503  502  0.00000000000E+00  0.00000000000E+00  0.18525985779E+03  0.18525985779E+03  0.00000000000E+00 0.  1.
         21   -1    0    0  501  503 -0.00000000000E+00 -0.00000000000E+00 -0.59961109388E+03  0.59961109388E+03  0.00000000000E+00 0. -1.
          6    2    1    2  501    0 -0.10558507045E+03 -0.31703604882E+02 -0.51591860304E+03  0.55601092447E+03  0.17556428313E+03 0.  0.
         24    2    3    3    0    0 -0.57158648414E+02 -0.40859227747E+01 -0.11568774511E+03  0.15188880883E+03  0.80017185813E+02 0.  0.
         -6    2    1    2    0  502  0.10558507045E+03  0.31703604882E+02  0.10156736694E+03  0.22886002720E+03  0.17293830217E+03 0.  0.
        -24    2    5    5    0    0  0.95415231348E+02 -0.83363700253E+01  0.12829794377E+03  0.17943089656E+03  0.81003227271E+02 0.  0.
          5    1    3    3  501    0 -0.48426422033E+02 -0.27617682108E+02 -0.40023085793E+03  0.40412211564E+03  0.47000000000E+01 0. -1.
        -11    1    4    4    0    0  0.79588798972E+00  0.30533205510E+02 -0.42295208493E+02  0.52170822668E+02  0.00000000000E+00 0.  1.
         12    1    4    4    0    0 -0.57954536404E+02 -0.34619128284E+02 -0.73392536619E+02  0.99717986163E+02  0.00000000000E+00 0. -1.
         -5    1    5    5    0  502  0.10169839100E+02  0.40039974908E+02 -0.26730576824E+02  0.49429130634E+02  0.47000000000E+01 0.  1.
         13    1    6    6    0    0 -0.10092478295E+01  0.35835127627E+00 -0.10306212001E+02  0.10361708480E+02  0.00000000000E+00 0. -1.
        -14    1    6    6    0    0  0.96424479177E+02 -0.86947213015E+01  0.13860415577E+03  0.16906918808E+03  0.00000000000E+00 0.  1.
<mgrwt>
<rscale>  2 0.20674986E+03</rscale>
<asrwt>0</asrwt>
<pdfrwt beam="1">  1       21 0.28501517E-01 0.20730688E+03</pdfrwt>
<pdfrwt beam="2">  1       21 0.92247860E-01 0.20730688E+03</pdfrwt>
<totfact> 0.11563913E+04</totfact>
</mgrwt>
</event>
<event>
12    1  0.1026879E-001  0.1882893E+03  0.7546771E-02  0.1160863E+00
         21   -1    0    0  501  502  0.00000000000E+00  0.00000000000E+00  0.95738306147E+02  0.95738306147E+02  0.00000000000E+00 0.  1.
         21   -1    0    0  502  503 -0.00000000000E+00 -0.00000000000E+00 -0.36366555964E+03  0.36366555964E+03  0.00000000000E+00 0.  1.
         -6    2    1    2    0  503  0.60395254112E+02 -0.14207798429E+02 -0.12624868625E+03  0.22669713057E+03  0.17777347939E+03 0.  0.
        -24    2    3    3    0    0 -0.35378578956E+02  0.12981060861E+02 -0.63728266260E+02  0.10904189658E+03  0.80054303435E+02 0.  0.
          6    2    1    2  501    0 -0.60395254112E+02  0.14207798429E+02 -0.14167856725E+03  0.23270673522E+03  0.17386822580E+03 0.  0.
         24    2    5    5    0    0 -0.10630456453E+03  0.26872311011E+01 -0.86743708434E+02  0.16004094569E+03  0.82345319801E+02 0.  0.
          5    1    5    5  501    0  0.45909310422E+02  0.11520567328E+02 -0.54934858812E+02  0.72665789528E+02  0.47000000000E+01 0. -1.
        -11    1    6    6    0    0 -0.50339343857E+02 -0.39446407347E+02 -0.34609618769E+02  0.72717909100E+02  0.00000000000E+00 0.  1.
         12    1    6    6    0    0 -0.55965220677E+02  0.42133638448E+02 -0.52134089666E+02  0.87323036592E+02  0.00000000000E+00 0. -1.
         -5    1    3    3    0  503  0.95773833068E+02 -0.27188859290E+02 -0.62520419988E+02  0.11765523399E+03  0.47000000000E+01 0.  1.
         13    1    4    4    0    0 -0.36641704520E+02 -0.24804453028E+02 -0.13670846131E+02  0.46311633896E+02  0.00000000000E+00 0. -1.
        -14    1    4    4    0    0  0.12631255642E+01  0.37785513889E+02 -0.50057420128E+02  0.62730262680E+02  0.00000000000E+00 0.  1.
<mgrwt>
<rscale>  2 0.18736180E+03</rscale>
<asrwt>0</asrwt>
<pdfrwt beam="1">  1       21 0.14728970E-01 0.18828929E+03</pdfrwt>
<pdfrwt beam="2">  1       21 0.55948548E-01 0.18828929E+03</pdfrwt>
<totfact> 0.12217785E+05</totfact>
</mgrwt>
</event>
<event>
12    1  0.1026879E-001  0.3102962E+03  0.7546771E-02  0.1080238E+00
         21   -1    0    0  503  502  0.00000000000E+00  0.00000000000E+00  0.13016917075E+03  0.13016917075E+03  0.00000000000E+00 0.  1.
         21   -1    0    0  501  503 -0.00000000000E+00 -0.00000000000E+00 -0.11242472564E+04  0.11242472564E+04  0.00000000000E+00 0. -1.
          6    2    1    2  501    0  0.15071999423E+03  0.20860096764E+03 -0.86404445476E+03  0.91797554064E+03  0.17284499716E+03 0.  0.
         24    2    3    3    0    0  0.17022613995E+03  0.14016091935E+03 -0.59377798151E+03  0.63845705020E+03  0.80206555797E+02 0.  0.
         -6    2    1    2    0  502 -0.15071999423E+03 -0.20860096764E+03 -0.13003363092E+03  0.33644088653E+03  0.17335756286E+03 0.  0.
        -24    2    5    5    0    0 -0.66970081031E+02 -0.11610305868E+03 -0.14009753002E+03  0.21116805154E+03  0.83664305912E+02 0.  0.
          5    1    3    3  501    0 -0.19506145720E+02  0.68440048282E+02 -0.27026647326E+03  0.27951849044E+03  0.47000000000E+01 0. -1.
        -13    1    4    4    0    0  0.72125175335E+02  0.12664749051E+02 -0.20632759018E+03  0.21893723132E+03  0.00000000000E+00 0.  1.
         14    1    4    4    0    0  0.98100964616E+02  0.12749617030E+03 -0.38745039132E+03  0.41951981888E+03  0.00000000000E+00 0. -1.
         -5    1    5    5    0  502 -0.83749913201E+02 -0.92497908953E+02  0.10063899105E+02  0.12527283499E+03  0.47000000000E+01 0.  1.
         11    1    6    6    0    0 -0.74705643137E+01 -0.93059773070E+02 -0.72419647871E+02  0.11815471253E+03  0.00000000000E+00 0. -1.
        -12    1    6    6    0    0 -0.59499516718E+02 -0.23043285614E+02 -0.67677882153E+02  0.93013339013E+02  0.00000000000E+00 0.  1.
<mgrwt>
<rscale>  2 0.31022465E+03</rscale>
<asrwt>0</asrwt>
<pdfrwt beam="1">  1       21 0.20026026E-01 0.31029619E+03</pdfrwt>
<pdfrwt beam="2">  1       21 0.17296112E+00 0.31029619E+03</pdfrwt>
<totfact> 0.43097352E+03</totfact>
</mgrwt>
</event>
<event>
12    1  0.1026879E-001  0.5086258E+03  0.7546771E-02  0.1011559E+00
         21   -1    0    0  501  502  0.00000000000E+00  0.00000000000E+00  0.10763024187E+04  0.10763024187E+04  0.00000000000E+00 0.  1.
         21   -1    0    0  502  503 -0.00000000000E+00 -0.00000000000E+00 -0.30044765560E+03  0.30044765560E+03  0.00000000000E+00 0. -1.
         -6    2    1    2    0  503  0.45805002208E+03 -0.13714716719E+03  0.79981617236E+02  0.51487601807E+03  0.17343899989E+03 0.  0.
        -24    2    3    3    0    0  0.19182121183E+03 -0.11580374284E+03  0.68751856994E+02  0.24751573925E+03  0.79569712661E+02 0.  0.
          6    2    1    2  501    0 -0.45805002208E+03  0.13714716719E+03  0.69587314589E+03  0.86187405627E+03  0.17311350467E+03 0.  0.
         24    2    5    5    0    0 -0.32837814447E+03  0.50153025309E+02  0.55159271213E+03  0.64922008821E+03  0.82973918459E+02 0.  0.
          5    1    5    5  501    0 -0.12967187762E+03  0.86994141881E+02  0.14428043376E+03  0.21265396806E+03  0.47000000000E+01 0. -1.
        -13    1    6    6    0    0 -0.14185778493E+03 -0.75554226298E+01  0.17850925747E+03  0.22813651737E+03  0.00000000000E+00 0.  1.
         14    1    6    6    0    0 -0.18652035954E+03  0.57708447939E+02  0.37308345467E+03  0.42108357084E+03  0.00000000000E+00 0. -1.
         -5    1    3    3    0  503  0.26622881026E+03 -0.21343424349E+02  0.11229760242E+02  0.26736027882E+03  0.47000000000E+01 0.  1.
         11    1    4    4    0    0  0.82854341768E+01 -0.25028131799E+02  0.28528417611E+02  0.38844902011E+02  0.00000000000E+00 0. -1.
        -12    1    4    4    0    0  0.18353577765E+03 -0.90775611041E+02  0.40223439382E+02  0.20867083724E+03  0.00000000000E+00 0.  1.
<mgrwt>
<rscale>  2 0.50859812E+03</rscale>
<asrwt>0</asrwt>
<pdfrwt beam="1">  1       21 0.16558499E+00 0.50862585E+03</pdfrwt>
<pdfrwt beam="2">  1       21 0.46222717E-01 0.50862585E+03</pdfrwt>
<totfact> 0.84240011E+02</totfact>
</mgrwt>
</event>
<event>
12    1  0.1026879E-001  0.2531592E+03  0.7546771E-02  0.1111531E+00
         21   -1    0    0  501  502  0.00000000000E+00  0.00000000000E+00  0.65736557950E+02  0.65736557950E+02  0.00000000000E+00 0.  1.
         21   -1    0    0  502  503 -0.00000000000E+00 -0.00000000000E+00 -0.13443731555E+04  0.13443731555E+04  0.00000000000E+00 0.  1.
         -6    2    1    2    0  503 -0.12554109943E+03  0.13465751858E+03 -0.10126583773E+04  0.10438230638E+04  0.17377106897E+03 0.  0.
        -24    2    3    3    0    0 -0.58646273996E+02  0.55159150795E+02 -0.26285878184E+03  0.28684457565E+03  0.81872791674E+02 0.  0.
          6    2    1    2  501    0  0.12554109943E+03 -0.13465751858E+03 -0.26597822024E+03  0.36628664966E+03  0.17183795018E+03 0.  0.
         24    2    5    5    0    0  0.15421308970E+03 -0.11138722487E+03 -0.18863857959E+03  0.28045483964E+03  0.82955484851E+02 0.  0.
          5    1    5    5  501    0 -0.28671990273E+02 -0.23270293708E+02 -0.77339640657E+02  0.85831810027E+02  0.47000000000E+01 0. -1.
        -11    1    6    6    0    0  0.13372476350E+03 -0.89153828236E+02 -0.19159258577E+03  0.25007686095E+03  0.00000000000E+00 0.  1.
         12    1    6    6    0    0  0.20488326203E+02 -0.22233396632E+02  0.29540061810E+01  0.30377978684E+02  0.00000000000E+00 0. -1.
         -5    1    3    3    0  503 -0.66894825435E+02  0.79498367781E+02 -0.74979959543E+03  0.75697848810E+03  0.47000000000E+01 0.  1.
         11    1    4    4    0    0  0.20799882652E+02  0.11585502843E+02 -0.45432168974E+02  0.51292699014E+02  0.00000000000E+00 0. -1.
        -12    1    4    4    0    0 -0.79446156648E+02  0.43573647953E+02 -0.21742661287E+03  0.23555187663E+03  0.00000000000E+00 0.  1.
<mgrwt>
<rscale>  2 0.25282784E+03</rscale>
<asrwt>0</asrwt>
<pdfrwt beam="1">  1       21 0.10113317E-01 0.25315924E+03</pdfrwt>
<pdfrwt beam="2">  1       21 0.20682662E+00 0.25315924E+03</pdfrwt>
<totfact> 0.92235294E+03</totfact>
</mgrwt>
</event>
<event>
12    1  0.1026879E-001  0.2788941E+03  0.7546771E-02  0.1096605E+00
         21   -1    0    0  501  502  0.00000000000E+00  0.00000000000E+00  0.11926318696E+03  0.11926318696E+03  0.00000000000E+00 0. -1.
         21   -1    0    0  502  503 -0.00000000000E+00 -0.00000000000E+00 -0.69005366467E+03  0.69005366467E+03  0.00000000000E+00 0.  1.
         -6    2    1    2    0  503 -0.21686552775E+03 -0.30075309426E+02 -0.38762809233E+03  0.47753267296E+03  0.17276207460E+03 0.  0.
        -24    2    3    3    0    0 -0.21749087782E+03  0.85123597185E+01 -0.36568188122E+03  0.43288823932E+03  0.79336292371E+02 0.  0.
          6    2    1    2  501    0  0.21686552775E+03  0.30075309426E+02 -0.18316238538E+03  0.33178417867E+03  0.16910677229E+03 0.  0.
         24    2    5    5    0    0  0.10854914306E+03  0.15640749829E+02 -0.17562900053E+03  0.22215007089E+03  0.80483281812E+02 0.  0.
          5    1    5    5  501    0  0.10831638468E+03  0.14434559597E+02 -0.75333848465E+01  0.10963410778E+03  0.47000000000E+01 0. -1.
        -11    1    6    6    0    0 -0.57491971852E+01  0.19263745690E+02 -0.15525261820E+02  0.25400372455E+02  0.00000000000E+00 0.  1.
         12    1    6    6    0    0  0.11429834025E+03 -0.36229958609E+01 -0.16010373871E+03  0.19674969843E+03  0.00000000000E+00 0. -1.
         -5    1    3    3    0  503  0.62535007413E+00 -0.38587669144E+02 -0.21946211104E+02  0.44644433634E+02  0.47000000000E+01 0.  1.
         13    1    4    4    0    0 -0.36398145415E+02 -0.79115421135E+00 -0.17669886651E+02  0.40468207385E+02  0.00000000000E+00 0. -1.
        -14    1    4    4    0    0 -0.18109273241E+03  0.93035139298E+01 -0.34801199457E+03  0.39242003194E+03  0.00000000000E+00 0.  1.
<mgrwt>
<rscale>  2 0.27833003E+03</rscale>
<asrwt>0</asrwt>
<pdfrwt beam="1">  1       21 0.18348183E-01 0.27889409E+03</pdfrwt>
<pdfrwt beam="2">  1       21 0.10616210E+00 0.27889409E+03</pdfrwt>
<totfact> 0.18397239E+04</totfact>
</mgrwt>
</event>
<event>
12    1  0.1026879E-001  0.2183528E+03  0.7546771E-02  0.1135344E+00
         21   -1    0    0  503  502  0.00000000000E+00  0.00000000000E+00  0.96159122507E+02  0.96159122507E+02  0.00000000000E+00 0.  1.
         21   -1    0    0  501  503 -0.00000000000E+00 -0.00000000000E+00 -0.51620361645E+03  0.51620361645E+03  0.00000000000E+00 0. -1.
          6    2    1    2  501    0  0.12828297209E+02 -0.13305822425E+03 -0.27424412976E+03  0.34980667389E+03  0.17113097365E+03 0.  0.
         24    2    3    3    0    0  0.37968097716E+02 -0.11906211672E+03 -0.11584783127E+03  0.18874960956E+03  0.81168534654E+02 0.  0.
         -6    2    1    2    0  502 -0.12828297209E+02  0.13305822425E+03 -0.14580036419E+03  0.26255606507E+03  0.17265249739E+03 0.  0.
        -24    2    5    5    0    0 -0.31423820073E+02  0.11915675832E+03 -0.16640041576E+03  0.23116344889E+03  0.10276989937E+03 0.  0.
          5    1    3    3  501    0 -0.25139800507E+02 -0.13996107528E+02 -0.15839629849E+03  0.16105706433E+03  0.47000000000E+01 0. -1.
        -11    1    4    4    0    0  0.22532544647E+02 -0.55701029845E+01  0.33384780904E+01  0.23449670605E+02  0.00000000000E+00 0.  1.
         12    1    4    4    0    0  0.15435553069E+02 -0.11349201374E+03 -0.11918630936E+03  0.16529993896E+03  0.00000000000E+00 0. -1.
         -5    1    5    5    0  502  0.18595522864E+02  0.13901465935E+02  0.20600051571E+02  0.31392616177E+02  0.47000000000E+01 0.  1.
         13    1    6    6    0    0 -0.98787597237E+01  0.13310574064E+03 -0.12767180829E+03  0.18470197270E+03  0.00000000000E+00 0. -1.
        -14    1    6    6    0    0 -0.21545060350E+02 -0.13948982328E+02 -0.38728607471E+02  0.46461476194E+02  0.00000000000E+00 0.  1.
<mgrwt>
<rscale>  2 0.21805190E+03</rscale>
<asrwt>0</asrwt>
<pdfrwt beam="1">  1       21 0.14793711E-01 0.21835279E+03</pdfrwt>
<pdfrwt beam="2">  1       21 0.79415940E-01 0.21835279E+03</pdfrwt>
<totfact> 0.55571160E+04</totfact>
</mgrwt>
</event>
<event>
12    1  0.1026879E-001  0.2190947E+03  0.7546771E-02  0.1134758E+00
         21   -1    0    0  501  502  0.00000000000E+00  0.00000000000E+00  0.48580896641E+03  0.48580896641E+03  0.00000000000E+00 0. -1.
         21   -1    0    0  502  503 -0.00000000000E+00 -0.00000000000E+00 -0.15790298778E+03  0.15790298778E+03  0.00000000000E+00 0.  1.
         -6    2    1    2    0  503 -0.11027412706E+03  0.76184084551E+02 -0.33485433176E+02  0.22163877134E+03  0.17331495287E+03 0.  0.
        -24    2    3    3    0    0 -0.10297699822E+02  0.73292396443E+02  0.15788673841E+02  0.11004273429E+03  0.79889318118E+02 0.  0.
          6    2    1    2  501    0  0.11027412706E+03 -0.76184084551E+02  0.36139141180E+03  0.42207318285E+03  0.17198145633E+03 0.  0.
         24    2    5    5    0    0  0.15715541139E+02 -0.63300233623E+02  0.10596362666E+03  0.14935948094E+03  0.82620013087E+02 0.  0.
          5    1    5    5  501    0  0.94558585922E+02 -0.12883850928E+02  0.25542778515E+03  0.27271370191E+03  0.47000000000E+01 0. -1.
        -13    1    6    6    0    0  0.38046399451E+02 -0.60530489259E+02  0.10475255339E+03  0.12682494266E+03  0.00000000000E+00 0.  1.
         14    1    6    6    0    0 -0.22330858313E+02 -0.27697443639E+01  0.12110732711E+01  0.22534538275E+02  0.00000000000E+00 0. -1.
         -5    1    3    3    0  503 -0.99976427239E+02  0.28916881080E+01 -0.49274107017E+02  0.11159603705E+03  0.47000000000E+01 0.  1.
         11    1    4    4    0    0  0.32097300028E+01  0.78254424248E+02 -0.11531426686E+02  0.79164582248E+02  0.00000000000E+00 0. -1.
        -12    1    4    4    0    0 -0.13507429825E+02 -0.49620278056E+01  0.27320100527E+02  0.30878152037E+02  0.00000000000E+00 0.  1.
<mgrwt>
<rscale>  2 0.21883085E+03</rscale>
<asrwt>0</asrwt>
<pdfrwt beam="1">  1       21 0.74739840E-01 0.21909466E+03</pdfrwt>
<pdfrwt beam="2">  1       21 0.24292768E-01 0.21909466E+03</pdfrwt>
<totfact> 0.25256088E+04</totfact>
</mgrwt>
</event>
<event>
12    1  0.1026879E-001  0.1782281E+03  0.7546771E-02  0.1170687E+00
         21   -1    0    0  503  502  0.00000000000E+00  0.00000000000E+00  0.91456999797E+02  0.91456999797E+02  0.00000000000E+00 0.  1.
         21   -1    0    0  501  503 -0.00000000000E+00 -0.00000000000E+00 -0.37378482655E+03  0.37378482655E+03  0.00000000000E+00 0.  1.
          6    2    1    2  501    0 -0.70690175053E+01 -0.22280558103E+01 -0.67812208083E+02  0.18634723635E+03  0.17341240350E+03 0.  0.
         24    2    3    3    0    0  0.18604257137E+02  0.24524479338E+02  0.21297433051E+02  0.89716840969E+02  0.81535038041E+02 0.  0.
         -6    2    1    2    0  502  0.70690175053E+01  0.22280558103E+01 -0.21451561867E+03  0.27889459000E+03  0.17807387915E+03 0.  0.
        -24    2    5    5    0    0 -0.42629740904E+02  0.52173524890E+02 -0.15304727556E+03  0.18527320530E+03  0.79770423943E+02 0.  0.
          5    1    3    3  501    0 -0.25673274643E+02 -0.26752535149E+02 -0.89109641134E+02  0.96630395377E+02  0.47000000000E+01 0. -1.
        -13    1    4    4    0    0  0.16440998748E+01 -0.25274061946E+02 -0.11401279576E+02  0.27775356841E+02  0.00000000000E+00 0.  1.
         14    1    4    4    0    0  0.16960157263E+02  0.49798541285E+02  0.32698712627E+02  0.61941484128E+02  0.00000000000E+00 0. -1.
         -5    1    5    5    0  502  0.49698758409E+02 -0.49945469080E+02 -0.61468343112E+02  0.93621384704E+02  0.47000000000E+01 0.  1.
         11    1    6    6    0    0 -0.19926843219E+02 -0.86966554844E+00 -0.11369986544E+03  0.11543610700E+03  0.00000000000E+00 0. -1.
        -12    1    6    6    0    0 -0.22702897685E+02  0.53043190439E+02 -0.39347410120E+02  0.69837098295E+02  0.00000000000E+00 0.  1.
<mgrwt>
<rscale>  2 0.17705214E+03</rscale>
<asrwt>0</asrwt>
<pdfrwt beam="1">  1       21 0.14070307E-01 0.17822806E+03</pdfrwt>
<pdfrwt beam="2">  1       21 0.57505360E-01 0.17822806E+03</pdfrwt>
<totfact> 0.12567370E+05</totfact>
</mgrwt>
</event>
<event>
12    1  0.1026879E-001  0.2239684E+03  0.7546771E-02  0.1131030E+00
         21   -1    0    0  503  502  0.00000000000E+00  0.00000000000E+00  0.12899059284E+03  0.12899059284E+03  0.00000000000E+00 0.  1.
         21   -1    0    0  501  503 -0.00000000000E+00 -0.00000000000E+00 -0.41785333389E+03  0.41785333389E+03  0.00000000000E+00 0.  1.
          6    2    1    2  501    0 -0.11577684945E+03 -0.83874806538E+02 -0.21739297454E+03  0.31212424688E+03  0.17240237259E+03 0.  0.
         24    2    3    3    0    0 -0.93258893799E+02 -0.12529305490E+03 -0.17958295250E+03  0.25150892382E+03  0.81308862077E+02 0.  0.
         -6    2    1    2    0  502  0.11577684945E+03  0.83874806538E+02 -0.71469766516E+02  0.23471967984E+03  0.17188990237E+03 0.  0.
        -24    2    5    5    0    0 -0.13660348517E+02 -0.36493268296E+01 -0.11076158548E+02  0.67137043441E+02  0.64689864785E+02 0.  0.
          5    1    3    3  501    0 -0.22517955652E+02  0.41418248360E+02 -0.37810022035E+02  0.60615323065E+02  0.47000000000E+01 0. -1.
        -13    1    4    4    0    0 -0.29595589663E+02 -0.23876922850E+02 -0.10192865496E+03  0.10879088690E+03  0.00000000000E+00 0.  1.
         14    1    4    4    0    0 -0.63663304137E+02 -0.10141613205E+03 -0.77654297549E+02  0.14271803692E+03  0.00000000000E+00 0. -1.
         -5    1    5    5    0  502  0.12943719797E+03  0.87524133368E+02 -0.60393607968E+02  0.16758263640E+03  0.47000000000E+01 0.  1.
         11    1    6    6    0    0  0.13495968643E+02 -0.27109004513E+02 -0.37940011996E+01  0.30519399411E+02  0.00000000000E+00 0. -1.
        -12    1    6    6    0    0 -0.27156317160E+02  0.23459677683E+02 -0.72821573487E+01  0.36617644030E+02  0.00000000000E+00 0.  1.
<mgrwt>
<rscale>  2 0.22386977E+03</rscale>
<asrwt>0</asrwt>
<pdfrwt beam="1">  1       21 0.19844707E-01 0.22396839E+03</pdfrwt>
<pdfrwt beam="2">  1       21 0.64285127E-01 0.22396839E+03</pdfrwt>
<totfact> 0.51523628E+04</totfact>
</mgrwt>
</event>
<event>
12    1  0.1026879E-001  0.2004951E+03  0.7546771E-02  0.1152444E+00
         21   -1    0    0  501  502  0.00000000000E+00  0.00000000000E+00  0.11063031024E+03  0.11063031024E+03  0.00000000000E+00 0. -1.
         21   -1    0    0  502  503 -0.00000000000E+00 -0.00000000000E+00 -0.34865907044E+03  0.34865907044E+03  0.00000000000E+00 0.  1.
         -6    2    1    2    0  503  0.33158346335E+02  0.81993921574E+02 -0.15498315548E+03  0.24227592405E+03  0.16387606836E+03 0.  0.
        -24    2    3    3    0    0 -0.13893416544E+02  0.35973631527E+02 -0.18781488101E+02  0.90932871072E+02  0.80180506095E+02 0.  0.
          6    2    1    2  501    0 -0.33158346335E+02 -0.81993921574E+02 -0.83045604710E+02  0.21701345663E+03  0.17993273407E+03 0.  0.
         24    2    5    5    0    0 -0.32092316312E+02 -0.11697367907E+03 -0.10456830596E+03  0.17566086877E+03  0.72176532506E+02 0.  0.
          5    1    5    5  501    0 -0.10660300228E+01  0.34979757492E+02  0.21522701248E+02  0.41352587866E+02  0.47000000000E+01 0. -1.
        -11    1    6    6    0    0 -0.28393961281E+02 -0.13380922615E+02 -0.48606783518E+02  0.57860915402E+02  0.00000000000E+00 0.  1.
         12    1    6    6    0    0 -0.36983550315E+01 -0.10359275645E+03 -0.55961522440E+02  0.11779995337E+03  0.00000000000E+00 0. -1.
         -5    1    3    3    0  503  0.47051762879E+02  0.46020290048E+02 -0.13620166738E+03  0.15134305297E+03  0.47000000000E+01 0.  1.
         13    1    4    4    0    0 -0.41513881255E+02  0.23168449768E+02 -0.32450633355E+02  0.57560602904E+02  0.00000000000E+00 0. -1.
        -14    1    4    4    0    0  0.27620464711E+02  0.12805181759E+02  0.13669145254E+02  0.33372268168E+02  0.00000000000E+00 0.  1.
<mgrwt>
<rscale>  2 0.19682682E+03</rscale>
<asrwt>0</asrwt>
<pdfrwt beam="1">  1       21 0.17020048E-01 0.20049506E+03</pdfrwt>
<pdfrwt beam="2">  1       21 0.53639856E-01 0.20049506E+03</pdfrwt>
<totfact> 0.10204648E+05</totfact>
</mgrwt>
</event>
<event>
12    1  0.1026879E-001  0.1966189E+03  0.7546771E-02  0.1152657E+00
         21   -1    0    0  503  502  0.00000000000E+00  0.00000000000E+00  0.18353553521E+03  0.18353553521E+03  0.00000000000E+00 0.  1.
         21   -1    0    0  501  503 -0.00000000000E+00 -0.00000000000E+00 -0.22615743201E+03  0.22615743201E+03  0.00000000000E+00 0. -1.
          6    2    1    2  501    0 -0.90083899960E+02 -0.29920679980E+02  0.32655507301E+02  0.19915629615E+03  0.17200724409E+03 0.  0.
         24    2    3    3    0    0  0.13438255385E+01  0.21063555940E+02 -0.14470842423E+02  0.84258932647E+02  0.80278784212E+02 0.  0.
         -6    2    1    2    0  502  0.90083899960E+02  0.29920679980E+02 -0.75277404104E+02  0.21053667106E+03  0.17218782236E+03 0.  0.
        -24    2    5    5    0    0  0.42089973603E+02  0.61875709117E+02 -0.99235831256E+02  0.14792168016E+03  0.80205386344E+02 0.  0.
          5    1    3    3  501    0 -0.91427725499E+02 -0.50984235920E+02  0.47126349724E+02  0.11489736351E+03  0.47000000000E+01 0. -1.
        -13    1    4    4    0    0  0.11979931887E+02 -0.64092561025E+01  0.28839048103E+02  0.31879272691E+02  0.00000000000E+00 0.  1.
         14    1    4    4    0    0 -0.10636106348E+02  0.27472812043E+02 -0.43309890526E+02  0.52379659956E+02  0.00000000000E+00 0. -1.
         -5    1    5    5    0  502  0.47993926358E+02 -0.31955029137E+02  0.23958427152E+02  0.62614990904E+02  0.47000000000E+01 0.  1.
         11    1    6    6    0    0  0.45659642454E+02  0.77910151081E+00 -0.26254081139E+02  0.52675295202E+02  0.00000000000E+00 0. -1.
        -12    1    6    6    0    0 -0.35696688512E+01  0.61096607606E+02 -0.72981750117E+02  0.95246384954E+02  0.00000000000E+00 0.  1.
<mgrwt>
<rscale>  2 0.19657938E+03</rscale>
<asrwt>0</asrwt>
<pdfrwt beam="1">  1       21 0.28236236E-01 0.19661893E+03</pdfrwt>
<pdfrwt beam="2">  1       21 0.34793451E-01 0.19661893E+03</pdfrwt>
<totfact> 0.95293607E+04</totfact>
</mgrwt>
</event>
<event>
12    1  0.1026879E-001  0.3176745E+03  0.7546771E-02  0.1076867E+00
         21   -1    0    0  501  502  0.00000000000E+00  0.00000000000E+00  0.19635492941E+04  0.19635492941E+04  0.00000000000E+00 0. -1.
         21   -1    0    0  502  503 -0.00000000000E+00 -0.00000000000E+00 -0.56055880464E+02  0.56055880464E+02  0.00000000000E+00 0.  1.
         -6    2    1    2    0  503  0.16776827490E+03 -0.20636615722E+03  0.65812983912E+03  0.73078858838E+03  0.17373511693E+03 0.  0.
        -24    2    3    3    0    0  0.16035520966E+03 -0.21769813264E+03  0.65925859440E+03  0.71641043511E+03  0.74268075347E+02 0.  0.
          6    2    1    2  501    0 -0.16776827490E+03  0.20636615722E+03  0.12493635745E+04  0.12888165862E+04  0.17148080530E+03 0.  0.
         24    2    5    5    0    0 -0.71688581040E+02  0.98245558868E+02  0.87808411389E+03  0.89032957355E+03  0.82846822324E+02 0.  0.
          5    1    5    5  501    0 -0.96079693864E+02  0.10812059836E+03  0.37127946062E+03  0.39848701264E+03  0.47000000000E+01 0. -1.
        -13    1    6    6    0    0 -0.36567015668E+02  0.23301716598E+02  0.11731627138E+03  0.12507287540E+03  0.00000000000E+00 0.  1.
         14    1    6    6    0    0 -0.35121565372E+02  0.74943842270E+02  0.76076784251E+03  0.76525669814E+03  0.00000000000E+00 0. -1.
         -5    1    3    3    0  503  0.74130652418E+01  0.11331975414E+02 -0.11287552821E+01  0.14378153274E+02  0.47000000000E+01 0.  1.
         13    1    4    4    0    0  0.84982668885E+02 -0.17191704866E+03  0.43269073643E+03  0.47328511389E+03  0.00000000000E+00 0. -1.
        -14    1    4    4    0    0  0.75372540778E+02 -0.45781083974E+02  0.22656785797E+03  0.24312532122E+03  0.00000000000E+00 0.  1.
<mgrwt>
<rscale>  2 0.31736722E+03</rscale>
<asrwt>0</asrwt>
<pdfrwt beam="1">  1       21 0.30208445E+00 0.31767448E+03</pdfrwt>
<pdfrwt beam="2">  1       21 0.86239831E-02 0.31767448E+03</pdfrwt>
<totfact> 0.31103021E+03</totfact>
</mgrwt>
</event>
<event>
12    1  0.1026879E-001  0.2122395E+03  0.7546771E-02  0.1139985E+00
         21   -1    0    0  501  502  0.00000000000E+00  0.00000000000E+00  0.60969274086E+03  0.60969274086E+03  0.00000000000E+00 0. -1.
         21   -1    0    0  502  503 -0.00000000000E+00 -0.00000000000E+00 -0.80320464489E+02  0.80320464489E+02  0.00000000000E+00 0. -1.
         -6    2    1    2    0  503 -0.92765787958E+02  0.78526868451E+02  0.36423166166E+03  0.42109497796E+03  0.17287080905E+03 0.  0.
        -24    2    3    3    0    0 -0.93574165084E+02  0.11822731235E+03  0.30931180843E+03  0.35316075243E+03  0.79466348004E+02 0.  0.
          6    2    1    2  501    0  0.92765787958E+02 -0.78526868451E+02  0.16514061471E+03  0.26891822739E+03  0.17399318927E+03 0.  0.
         24    2    5    5    0    0  0.83708220452E+02  0.11536455569E+02  0.12138699681E+03  0.16827076869E+03  0.80250187684E+02 0.  0.
          5    1    5    5  501    0  0.90575675055E+01 -0.90063324020E+02  0.43753617898E+02  0.10064745870E+03  0.47000000000E+01 0. -1.
        -13    1    6    6    0    0  0.73708338221E+02  0.25383475929E+02  0.12806919634E+03  0.14992984701E+03  0.00000000000E+00 0.  1.
         14    1    6    6    0    0  0.99998822311E+01 -0.13847020361E+02 -0.66821995307E+01  0.18340921680E+02  0.00000000000E+00 0. -1.
         -5    1    3    3    0  503  0.80837712629E+00 -0.39700443900E+02  0.54919853230E+02  0.67934225529E+02  0.47000000000E+01 0.  1.
         11    1    4    4    0    0 -0.34681195914E+02 -0.32408320591E+01  0.76196846111E+02  0.83780950697E+02  0.00000000000E+00 0. -1.
        -12    1    4    4    0    0 -0.58892969170E+02  0.12146814441E+03  0.23311496232E+03  0.26937980173E+03  0.00000000000E+00 0.  1.
<mgrwt>
<rscale>  2 0.21200930E+03</rscale>
<asrwt>0</asrwt>
<pdfrwt beam="1">  1       21 0.93798880E-01 0.21223946E+03</pdfrwt>
<pdfrwt beam="2">  1       21 0.12356995E-01 0.21223946E+03</pdfrwt>
<totfact> 0.52623567E+04</totfact>
</mgrwt>
</event>
<event>
12    1  0.1026879E-001  0.1879290E+03  0.7546771E-02  0.1161653E+00
         21   -1    0    0  501  502  0.00000000000E+00  0.00000000000E+00  0.47943674749E+02  0.47943674749E+02  0.00000000000E+00 0.  1.
         21   -1    0    0  502  503 -0.00000000000E+00 -0.00000000000E+00 -0.71567469557E+03  0.71567469557E+03  0.00000000000E+00 0.  1.
         -6    2    1    2    0  503 -0.55526589088E+02  0.13447303686E+02 -0.32497604325E+03  0.37540208928E+03  0.17903426453E+03 0.  0.
        -24    2    3    3    0    0  0.84367924097E+00  0.63478836154E+02 -0.12228487658E+03  0.15910007718E+03  0.79554818109E+02 0.  0.
          6    2    1    2  501    0  0.55526589088E+02 -0.13447303686E+02 -0.34275497757E+03  0.38821628104E+03  0.17310942823E+03 0.  0.
         24    2    5    5    0    0  0.29505128428E+02 -0.68840579795E+02 -0.15105808177E+03  0.18693210055E+03  0.80718573574E+02 0.  0.
          5    1    5    5  501    0  0.26021460660E+02  0.55393276109E+02 -0.19169689581E+03  0.20128418049E+03  0.47000000000E+01 0. -1.
        -11    1    6    6    0    0  0.40769314900E+02 -0.42186484375E+00 -0.55311398151E+02  0.68714378210E+02  0.00000000000E+00 0.  1.
         12    1    6    6    0    0 -0.11264186472E+02 -0.68418714951E+02 -0.95746683616E+02  0.11821772234E+03  0.00000000000E+00 0. -1.
         -5    1    3    3    0  503 -0.56370268329E+02 -0.50031532468E+02 -0.20269116666E+03  0.21630201209E+03  0.47000000000E+01 0.  1.
         13    1    4    4    0    0  0.20354560985E+01  0.69820850970E+01  0.11649073096E+02  0.13732934785E+02  0.00000000000E+00 0. -1.
        -14    1    4    4    0    0 -0.11917768575E+01  0.56496751057E+02 -0.13393394968E+03  0.14536714240E+03  0.00000000000E+00 0.  1.
<mgrwt>
<rscale>  2 0.18650397E+03</rscale>
<asrwt>0</asrwt>
<pdfrwt beam="1">  1       21 0.73759502E-02 0.18792898E+03</pdfrwt>
<pdfrwt beam="2">  1       21 0.11010380E+00 0.18792898E+03</pdfrwt>
<totfact> 0.90223970E+04</totfact>
</mgrwt>
</event>
<event>
12    1  0.1026879E-001  0.2139137E+03  0.7546771E-02  0.1138662E+00
         21   -1    0    0  503  502  0.00000000000E+00  0.00000000000E+00  0.13376161471E+03  0.13376161471E+03  0.00000000000E+00 0. -1.
         21   -1    0    0  501  503 -0.00000000000E+00 -0.00000000000E+00 -0.35766096915E+03  0.35766096915E+03  0.00000000000E+00 0.  1.
          6    2    1    2  501    0 -0.26849132654E+02 -0.12196102438E+03 -0.58384474006E+02  0.22095218326E+03  0.17267238659E+03 0.  0.
         24    2    3    3    0    0  0.37142548023E+02 -0.68059851385E+02  0.11280057958E+02  0.11197737581E+03  0.79999879634E+02 0.  0.
         -6    2    1    2    0  502  0.26849132654E+02  0.12196102438E+03 -0.16551488044E+03  0.27047040060E+03  0.17367698340E+03 0.  0.
        -24    2    5    5    0    0  0.81661470907E+02  0.59723709997E+02 -0.11494288336E+03  0.17322075991E+03  0.80981774873E+02 0.  0.
          5    1    3    3  501    0 -0.63991680677E+02 -0.53901172991E+02 -0.69664531964E+02  0.10897480745E+03  0.47000000000E+01 0. -1.
        -11    1    4    4    0    0  0.24519398692E+02 -0.42732469755E+02 -0.33092063839E+02  0.59349385614E+02  0.00000000000E+00 0.  1.
         12    1    4    4    0    0  0.12623149330E+02 -0.25327381630E+02  0.44372121797E+02  0.52627990196E+02  0.00000000000E+00 0. -1.
         -5    1    5    5    0  502 -0.54812338252E+02  0.62237314379E+02 -0.50571997082E+02  0.97249640692E+02  0.47000000000E+01 0.  1.
         11    1    6    6    0    0  0.34817370655E+01  0.81564283869E+01  0.12339147564E+02  0.15195538149E+02  0.00000000000E+00 0. -1.
        -12    1    6    6    0    0  0.78179733841E+02  0.51567281611E+02 -0.12728203092E+03  0.15802522176E+03  0.00000000000E+00 0.  1.
<mgrwt>
<rscale>  2 0.21370968E+03</rscale>
<asrwt>0</asrwt>
<pdfrwt beam="1">  1       21 0.20578710E-01 0.21391368E+03</pdfrwt>
<pdfrwt beam="2">  1       21 0.55024763E-01 0.21391368E+03</pdfrwt>
<totfact> 0.67550601E+04</totfact>
</mgrwt>
</event>
<event>
12    1  0.1026879E-001  0.1805334E+03  0.7546771E-02  0.1168014E+00
         21   -1    0    0  501  502  0.00000000000E+00  0.00000000000E+00  0.18089996363E+03  0.18089996363E+03  0.00000000000E+00 0. -1.
         21   -1    0    0  502  503 -0.00000000000E+00 -0.00000000000E+00 -0.18492446944E+03  0.18492446944E+03  0.00000000000E+00 0. -1.
         -6    2    1    2    0  503 -0.57684740699E+01 -0.48610699933E+02  0.35358922970E+02  0.18396346046E+03  0.17377003744E+03 0.  0.
        -24    2    3    3    0    0  0.61230536027E+02 -0.26046388091E+02  0.39654069218E+02  0.11298068928E+03  0.82247176674E+02 0.  0.
          6    2    1    2  501    0  0.57684740699E+01  0.48610699933E+02 -0.39383428780E+02  0.18186097261E+03  0.17066365593E+03 0.  0.
         24    2    5    5    0    0  0.14360332526E+02  0.94689625526E+02 -0.86447952207E+01  0.12561116365E+03  0.80815144715E+02 0.  0.
          5    1    5    5  501    0 -0.85918584563E+01 -0.46078925593E+02 -0.30738633559E+02  0.56249808966E+02  0.47000000000E+01 0. -1.
        -11    1    6    6    0    0  0.45457152778E+02  0.59223678484E+02 -0.19599135026E+02  0.77187582716E+02  0.00000000000E+00 0.  1.
         12    1    6    6    0    0 -0.31096820252E+02  0.35465947042E+02  0.10954339806E+02  0.48423580929E+02  0.00000000000E+00 0. -1.
         -5    1    3    3    0  503 -0.66999010097E+02 -0.22564311842E+02 -0.42951462473E+01  0.70982771178E+02  0.47000000000E+01 0.  1.
         13    1    4    4    0    0  0.14749900372E+02  0.29290615787E+02  0.18629036544E+02  0.37716584373E+02  0.00000000000E+00 0. -1.
        -14    1    4    4    0    0  0.46480635655E+02 -0.55337003878E+02  0.21025032673E+02  0.75264104911E+02  0.00000000000E+00 0.  1.
<mgrwt>
<rscale>  2 0.17978170E+03</rscale>
<asrwt>0</asrwt>
<pdfrwt beam="1">  1       21 0.27830764E-01 0.18053338E+03</pdfrwt>
<pdfrwt beam="2">  1       21 0.28449918E-01 0.18053338E+03</pdfrwt>
<totfact> 0.14619699E+05</totfact>
</mgrwt>
</event>
<event>
12    1  0.1026879E-001  0.2287536E+03  0.7546771E-02  0.1127832E+00
         21   -1    0    0  503  502  0.00000000000E+00  0.00000000000E+00  0.15098523008E+03  0.15098523008E+03  0.00000000000E+00 0.  1.
         21   -1    0    0  501  503 -0.00000000000E+00 -0.00000000000E+00 -0.38968441869E+03  0.38968441869E+03  0.00000000000E+00 0.  1.
          6    2    1    2  501    0 -0.95249708296E+02 -0.11151993031E+03 -0.21157678374E+03  0.31031380274E+03  0.17326488094E+03 0.  0.
         24    2    3    3    0    0 -0.12488045956E+03 -0.99170957479E+02 -0.21302617052E+03  0.27783813073E+03  0.79899121236E+02 0.  0.
         -6    2    1    2    0  502  0.95249708296E+02  0.11151993031E+03 -0.27122404867E+02  0.23035584603E+03  0.17555337982E+03 0.  0.
        -24    2    5    5    0    0  0.10051433583E+03  0.49427895859E+01 -0.17168994898E+02  0.12308253342E+03  0.68752983729E+02 0.  0.
          5    1    3    3  501    0  0.29630751266E+02 -0.12348972827E+02  0.14493867780E+01  0.32475672010E+02  0.47000000000E+01 0. -1.
        -11    1    4    4    0    0 -0.33789989136E+01 -0.63626343821E+01 -0.63756224813E+02  0.64161958764E+02  0.00000000000E+00 0.  1.
         12    1    4    4    0    0 -0.12150146065E+03 -0.92808323097E+02 -0.14926994571E+03  0.21367617197E+03  0.00000000000E+00 0. -1.
         -5    1    5    5    0  502 -0.52646275363E+01  0.10657714072E+03 -0.99534099689E+01  0.10727331260E+03  0.47000000000E+01 0.  1.
         13    1    6    6    0    0  0.55895968452E+02 -0.26787239155E+02 -0.26734455601E+02  0.67502937618E+02  0.00000000000E+00 0. -1.
        -14    1    6    6    0    0  0.44618367380E+02  0.31730028740E+02  0.95654607033E+01  0.55579595806E+02  0.00000000000E+00 0.  1.
<mgrwt>
<rscale>  2 0.22831441E+03</rscale>
<asrwt>0</asrwt>
<pdfrwt beam="1">  1       21 0.23228497E-01 0.22875356E+03</pdfrwt>
<pdfrwt beam="2">  1       21 0.59951449E-01 0.22875356E+03</pdfrwt>
<totfact> 0.44435725E+04</totfact>
</mgrwt>
</event>
<event>
12    1  0.1026879E-001  0.1795043E+03  0.7546771E-02  0.1168340E+00
         21   -1    0    0  503  502  0.00000000000E+00  0.00000000000E+00  0.32240087036E+03  0.32240087036E+03  0.00000000000E+00 0.  1.
         21   -1    0    0  501  503 -0.00000000000E+00 -0.00000000000E+00 -0.13223268394E+03  0.13223268394E+03  0.00000000000E+00 0.  1.
          6    2    1    2  501    0 -0.17362047832E+02 -0.44626445298E+02  0.20768474133E+03  0.27450820445E+03  0.17299954395E+03 0.  0.
         24    2    3    3    0    0  0.80933816713E+01 -0.94627407748E+02  0.13750629471E+03  0.18453498895E+03  0.78264499876E+02 0.  0.
         -6    2    1    2    0  502  0.17362047832E+02  0.44626445298E+02 -0.17516554911E+02  0.18012534985E+03  0.17275807257E+03 0.  0.
        -24    2    5    5    0    0  0.68589770417E+02 -0.84969566822E+01 -0.86456129243E+01  0.10564609763E+03  0.79432968237E+02 0.  0.
          5    1    3    3  501    0 -0.25455429504E+02  0.50000962450E+02  0.70178446622E+02  0.89973215500E+02  0.47000000000E+01 0. -1.
        -13    1    4    4    0    0 -0.66640829592E-01 -0.38211005170E+02  0.11840238873E+03  0.12441547739E+03  0.00000000000E+00 0.  1.
         14    1    4    4    0    0  0.81600225009E+01 -0.56416402578E+02  0.19103905973E+02  0.60119511562E+02  0.00000000000E+00 0. -1.
         -5    1    5    5    0  502 -0.51227722585E+02  0.53123401980E+02 -0.88709419871E+01  0.74479252218E+02  0.47000000000E+01 0.  1.
         11    1    6    6    0    0  0.11117412485E+02  0.32145685960E+02  0.35783661190E+01  0.34201559764E+02  0.00000000000E+00 0. -1.
        -12    1    6    6    0    0  0.57472357932E+02 -0.40642642642E+02 -0.12223979043E+02  0.71444537866E+02  0.00000000000E+00 0.  1.
<mgrwt>
<rscale>  2 0.17944612E+03</rscale>
<asrwt>0</asrwt>
<pdfrwt beam="1">  1       21 0.49600134E-01 0.17950432E+03</pdfrwt>
<pdfrwt beam="2">  1       21 0.20343490E-01 0.17950432E+03</pdfrwt>
<totfact> 0.87091983E+04</totfact>
</mgrwt>
</event>
<event>
12    1  0.1026879E-001  0.1922551E+03  0.7546771E-02  0.1156860E+00
         21   -1    0    0  501  502  0.00000000000E+00  0.00000000000E+00  0.37955249714E+03  0.37955249714E+03  0.00000000000E+00 0.  1.
         21   -1    0    0  502  503 -0.00000000000E+00 -0.00000000000E+00 -0.17963083163E+03  0.17963083163E+03  0.00000000000E+00 0.  1.
         -6    2    1    2    0  503 -0.26722062367E+02  0.73627488972E+02 -0.90046639460E+02  0.21229799533E+03  0.17557609688E+03 0.  0.
        -24    2    3    3    0    0 -0.48079622337E+02  0.10333478553E+03 -0.30796581392E+02  0.14250309424E+03  0.79805854783E+02 0.  0.
          6    2    1    2  501    0  0.26722062367E+02 -0.73627488972E+02  0.28996830497E+03  0.34688533344E+03  0.17353023056E+03 0.  0.
         24    2    5    5    0    0 -0.19785986852E+02  0.11267978274E+02  0.19068453639E+03  0.20814242117E+03  0.80275914590E+02 0.  0.
          5    1    5    5  501    0  0.46508049218E+02 -0.84895467246E+02  0.99283768578E+02  0.13874291227E+03  0.47000000000E+01 0. -1.
        -13    1    6    6    0    0 -0.28318291655E+02 -0.29387834879E+02  0.11128291852E+03  0.11853041144E+03  0.00000000000E+00 0.  1.
         14    1    6    6    0    0  0.85323048027E+01  0.40655813153E+02  0.79401617865E+02  0.89612009731E+02  0.00000000000E+00 0. -1.
         -5    1    3    3    0  503  0.21357559971E+02 -0.29707296562E+02 -0.59250058068E+02  0.69794901089E+02  0.47000000000E+01 0.  1.
         11    1    4    4    0    0 -0.33326862120E+02  0.17768028583E+02 -0.40209576671E+02  0.55165139667E+02  0.00000000000E+00 0. -1.
        -12    1    4    4    0    0 -0.14752760217E+02  0.85566756951E+02  0.94129952787E+01  0.87337954575E+02  0.00000000000E+00 0.  1.
<mgrwt>
<rscale>  2 0.19178680E+03</rscale>
<asrwt>0</asrwt>
<pdfrwt beam="1">  1       21 0.58392692E-01 0.19225515E+03</pdfrwt>
<pdfrwt beam="2">  1       21 0.27635513E-01 0.19225515E+03</pdfrwt>
<totfact> 0.34328186E+04</totfact>
</mgrwt>
</event>
<event>
12    1  0.1026879E-001  0.2282847E+03  0.7546771E-02  0.1127910E+00
         21   -1    0    0  501  502  0.00000000000E+00  0.00000000000E+00  0.14133026151E+03  0.14133026151E+03  0.00000000000E+00 0. -1.
         21   -1    0    0  502  503 -0.00000000000E+00 -0.00000000000E+00 -0.57777725914E+03  0.57777725914E+03  0.00000000000E+00 0.  1.
         -6    2    1    2    0  503  0.97268196511E+02  0.11239921445E+03 -0.43466501201E+03  0.49081587736E+03  0.17283479782E+03 0.  0.
        -24    2    3    3    0    0  0.12278204913E+03  0.82071102999E+02 -0.24478172636E+03  0.29678365532E+03  0.79695338439E+02 0.  0.
          6    2    1    2  501    0 -0.97268196511E+02 -0.11239921445E+03 -0.17819856119E+01  0.22829164329E+03  0.17326053637E+03 0.  0.
         24    2    5    5    0    0 -0.28556157595E+01 -0.52649589458E+02  0.46346789385E+02  0.10654509479E+03  0.80147978921E+02 0.  0.
          5    1    5    5  501    0 -0.94412580752E+02 -0.59749624993E+02 -0.48128774997E+02  0.12174654851E+03  0.47000000000E+01 0. -1.
        -13    1    6    6    0    0 -0.11861081261E+01 -0.16909953690E+01  0.54820848650E+02  0.54859746304E+02  0.00000000000E+00 0.  1.
         14    1    6    6    0    0 -0.16695076335E+01 -0.50958594089E+02 -0.84740592652E+01  0.51685348482E+02  0.00000000000E+00 0. -1.
         -5    1    3    3    0  503 -0.25513852618E+02  0.30328111451E+02 -0.18988328565E+03  0.19403222204E+03  0.47000000000E+01 0.  1.
         11    1    4    4    0    0  0.99921320961E+00  0.16676975287E+02 -0.12462041454E+01  0.16753296886E+02  0.00000000000E+00 0. -1.
        -12    1    4    4    0    0  0.12178283592E+03  0.65394127712E+02 -0.24353552222E+03  0.28003035844E+03  0.00000000000E+00 0.  1.
<mgrwt>
<rscale>  2 0.22820391E+03</rscale>
<asrwt>0</asrwt>
<pdfrwt beam="1">  1       21 0.21743118E-01 0.22828469E+03</pdfrwt>
<pdfrwt beam="2">  1       21 0.88888807E-01 0.22828469E+03</pdfrwt>
<totfact> 0.20900830E+04</totfact>
</mgrwt>
</event>
<event>
12    1  0.1026879E-001  0.2822389E+03  0.7546771E-02  0.1094614E+00
         21   -1    0    0  503  502  0.00000000000E+00  0.00000000000E+00  0.10883776852E+04  0.10883776852E+04  0.00000000000E+00 0. -1.
         21   -1    0    0  501  503 -0.00000000000E+00 -0.00000000000E+00 -0.76580791261E+02  0.76580791261E+02  0.00000000000E+00 0. -1.
          6    2    1    2  501    0  0.21802941728E+03  0.46727839050E+02  0.63414346264E+03  0.69411578431E+03  0.17302737664E+03 0.  0.
         24    2    3    3    0    0  0.71676760235E+02  0.54654048457E+02  0.17664233388E+03  0.21368754009E+03  0.79594143632E+02 0.  0.
         -6    2    1    2    0  502 -0.21802941728E+03 -0.46727839050E+02  0.37765343126E+03  0.47084269212E+03  0.17131961020E+03 0.  0.
        -24    2    5    5    0    0 -0.66891772404E+02 -0.59714942375E+01  0.24160298484E+03  0.26339274318E+03  0.80582671346E+02 0.  0.
          5    1    3    3  501    0  0.14635265705E+03 -0.79262094069E+01  0.45750112877E+03  0.48042824422E+03  0.47000000000E+01 0. -1.
        -11    1    4    4    0    0  0.71753834800E+02  0.55554296007E+02  0.18458932107E+03  0.20568935331E+03  0.00000000000E+00 0.  1.
         12    1    4    4    0    0 -0.77074564297E-01 -0.90024754938E+00 -0.79469871961E+01  0.79981867716E+01  0.00000000000E+00 0. -1.
         -5    1    5    5    0  502 -0.15113764488E+03 -0.40756344813E+02  0.13605044642E+03  0.20744994894E+03  0.47000000000E+01 0.  1.
         11    1    6    6    0    0 -0.73265404399E+02  0.14096077698E+02  0.13058743480E+03  0.15039812837E+03  0.00000000000E+00 0. -1.
        -12    1    6    6    0    0  0.63736319944E+01 -0.20067571935E+02  0.11101555003E+03  0.11299461482E+03  0.00000000000E+00 0.  1.
<mgrwt>
<rscale>  2 0.28197760E+03</rscale>
<asrwt>0</asrwt>
<pdfrwt beam="1">  1       21 0.16744271E+00 0.28223889E+03</pdfrwt>
<pdfrwt beam="2">  1       21 0.11781661E-01 0.28223889E+03</pdfrwt>
<totfact> 0.12739763E+04</totfact>
</mgrwt>
</event>
<event>
12    1  0.1026879E-001  0.1948590E+03  0.7546771E-02  0.1154700E+00
         21   -1    0    0  503  502  0.00000000000E+00  0.00000000000E+00  0.67481695944E+03  0.67481695944E+03  0.00000000000E+00 0. -1.
         21   -1    0    0  501  503 -0.00000000000E+00 -0.00000000000E+00 -0.11154719404E+03  0.11154719404E+03  0.00000000000E+00 0. -1.
          6    2    1    2  501    0 -0.82171342018E+02  0.15724292750E+02  0.21452750220E+01  0.19236859004E+03  0.17320995756E+03 0.  0.
         24    2    3    3    0    0  0.23157840260E+02 -0.87170495138E+01  0.47020031584E+01  0.84108520253E+02  0.80248749696E+02 0.  0.
         -6    2    1    2    0  502  0.82171342018E+02 -0.15724292750E+02  0.56112449038E+03  0.59399556345E+03  0.17598480862E+03 0.  0.
        -24    2    5    5    0    0  0.80020685729E+02  0.20760434895E+02  0.53824710531E+03  0.55062246786E+03  0.81491410168E+02 0.  0.
          5    1    3    3  501    0 -0.10532918228E+03  0.24441342264E+02 -0.25567281364E+01  0.10826006978E+03  0.47000000000E+01 0. -1.
        -11    1    4    4    0    0  0.31548337282E+02  0.25545805048E+02  0.20477294007E+02  0.45466529565E+02  0.00000000000E+00 0.  1.
         12    1    4    4    0    0 -0.83904970216E+01 -0.34262854562E+02 -0.15775290849E+02  0.38641990688E+02  0.00000000000E+00 0. -1.
         -5    1    5    5    0  502  0.21506562888E+01 -0.36484727645E+02  0.22877385068E+02  0.43373095594E+02  0.47000000000E+01 0.  1.
         13    1    6    6    0    0 -0.22290580994E+00  0.68876761313E+01  0.27457534916E+03  0.27466181412E+03  0.00000000000E+00 0. -1.
        -14    1    6    6    0    0  0.80243591539E+02  0.13872758763E+02  0.26367175615E+03  0.27596065374E+03  0.00000000000E+00 0.  1.
<mgrwt>
<rscale>  2 0.19423038E+03</rscale>
<asrwt>0</asrwt>
<pdfrwt beam="1">  1       21 0.10381799E+00 0.19485901E+03</pdfrwt>
<pdfrwt beam="2">  1       21 0.17161107E-01 0.19485901E+03</pdfrwt>
<totfact> 0.22987208E+04</totfact>
</mgrwt>
</event>
<event>
12    1  0.1026879E-001  0.1870036E+03  0.7546771E-02  0.1161377E+00
         21   -1    0    0  503  502  0.00000000000E+00  0.00000000000E+00  0.84020114989E+02  0.84020114989E+02  0.00000000000E+00 0. -1.
         21   -1    0    0  501  503 -0.00000000000E+00 -0.00000000000E+00 -0.44598151138E+03  0.44598151138E+03  0.00000000000E+00 0. -1.
          6    2    1    2  501    0  0.12261658551E+02  0.67833114363E+02 -0.25182637497E+03  0.31366683710E+03  0.17383521475E+03 0.  0.
         24    2    3    3    0    0 -0.97009093594E+01  0.99711960810E+02 -0.11866800202E+03  0.17491577394E+03  0.80478882316E+02 0.  0.
         -6    2    1    2    0  502 -0.12261658551E+02 -0.67833114363E+02 -0.11013502142E+03  0.21633478927E+03  0.17297207414E+03 0.  0.
        -24    2    5    5    0    0  0.36684601113E+02 -0.80340404522E+02 -0.32313839871E+02  0.12343487033E+03  0.79947747987E+02 0.  0.
          5    1    3    3  501    0  0.21962567910E+02 -0.31878846448E+02 -0.13315837295E+03  0.13875106316E+03  0.47000000000E+01 0. -1.
        -13    1    4    4    0    0 -0.44048496546E+02  0.42344212378E+02 -0.48685090152E+02  0.78125158387E+02  0.00000000000E+00 0.  1.
         14    1    4    4    0    0  0.34347587187E+02  0.57367748432E+02 -0.69982911871E+02  0.96790615556E+02  0.00000000000E+00 0. -1.
         -5    1    5    5    0  502 -0.48946259664E+02  0.12507290159E+02 -0.77821181549E+02  0.92899918944E+02  0.47000000000E+01 0.  1.
         11    1    6    6    0    0  0.21202494760E+02 -0.27552401399E+02  0.25890434186E+02  0.43347378113E+02  0.00000000000E+00 0. -1.
        -12    1    6    6    0    0  0.15482106353E+02 -0.52788003123E+02 -0.58204274057E+02  0.80087492215E+02  0.00000000000E+00 0.  1.
<mgrwt>
<rscale>  2 0.18680280E+03</rscale>
<asrwt>0</asrwt>
<pdfrwt beam="1">  1       21 0.12926171E-01 0.18700364E+03</pdfrwt>
<pdfrwt beam="2">  1       21 0.68612541E-01 0.18700364E+03</pdfrwt>
<totfact> 0.99659807E+04</totfact>
</mgrwt>
</event>
<event>
12    1  0.1026879E-001  0.2149848E+03  0.7546771E-02  0.1138042E+00
         21   -1    0    0  503  502  0.00000000000E+00  0.00000000000E+00  0.31446574962E+03  0.31446574962E+03  0.00000000000E+00 0.  1.
         21   -1    0    0  501  503 -0.00000000000E+00 -0.00000000000E+00 -0.12480156146E+04  0.12480156146E+04  0.00000000000E+00 0.  1.
          6    2    1    2  501    0 -0.14681880995E+02  0.12709846212E+03 -0.12012408588E+04  0.12203270271E+04  0.17276827138E+03 0.  0.
         24    2    3    3    0    0 -0.76812303715E+02  0.77352677128E+02 -0.77419560593E+03  0.78590261420E+03  0.79878132842E+02 0.  0.
         -6    2    1    2    0  502  0.14681880995E+02 -0.12709846212E+03  0.26769099386E+03  0.34215433704E+03  0.17041580166E+03 0.  0.
        -24    2    5    5    0    0  0.55509003527E+02 -0.19916274130E+02  0.14895258314E+03  0.17700054345E+03  0.75262294075E+02 0.  0.
          5    1    3    3  501    0  0.62130422720E+02  0.49745784989E+02 -0.42704525288E+03  0.43442441294E+03  0.47000000000E+01 0. -1.
        -11    1    4    4    0    0 -0.29594717073E+01  0.34211427487E+01 -0.31233199607E+03  0.31236475227E+03  0.00000000000E+00 0.  1.
         12    1    4    4    0    0 -0.73852832008E+02  0.73931534379E+02 -0.46186360985E+03  0.47353786193E+03  0.00000000000E+00 0. -1.
         -5    1    5    5    0  502 -0.40827122532E+02 -0.10718218799E+03  0.11873841072E+03  0.16515379359E+03  0.47000000000E+01 0.  1.
         13    1    6    6    0    0  0.42866047352E+02 -0.15198905268E+02  0.24196464524E+02  0.51516731577E+02  0.00000000000E+00 0. -1.
        -14    1    6    6    0    0  0.12642956175E+02 -0.47173688617E+01  0.12475611862E+03  0.12548381187E+03  0.00000000000E+00 0.  1.
<mgrwt>
<rscale>  2 0.21451173E+03</rscale>
<asrwt>0</asrwt>
<pdfrwt beam="1">  1       21 0.48379347E-01 0.21498477E+03</pdfrwt>
<pdfrwt beam="2">  1       21 0.19200240E+00 0.21498477E+03</pdfrwt>
<totfact> 0.60206695E+02</totfact>
</mgrwt>
</event>
<event>
12    1  0.1026879E-001  0.1739849E+03  0.7546771E-02  0.1174013E+00
         21   -1    0    0  501  502  0.00000000000E+00  0.00000000000E+00  0.36646623448E+03  0.36646623448E+03  0.00000000000E+00 0.  1.
         21   -1    0    0  502  503 -0.00000000000E+00 -0.00000000000E+00 -0.85394212157E+02  0.85394212157E+02  0.00000000000E+00 0.  1.
         -6    2    1    2    0  503 -0.10720465316E+02  0.33958762926E+01  0.95899749662E+02  0.19777476575E+03  0.17260253657E+03 0.  0.
        -24    2    3    3    0    0 -0.56215873877E+02 -0.28425704727E+02  0.96389440188E+02  0.14205425772E+03  0.83187996673E+02 0.  0.
          6    2    1    2  501    0  0.10720465316E+02 -0.33958762926E+01  0.18517227266E+03  0.25408568089E+03  0.17362114594E+03 0.  0.
         24    2    5    5    0    0 -0.24552509208E+02 -0.29980233770E+02  0.30122457061E+02  0.92798836688E+02  0.78756723814E+02 0.  0.
          5    1    5    5  501    0  0.35272974524E+02  0.26584357477E+02  0.15504981560E+03  0.16128684420E+03  0.47000000000E+01 0. -1.
        -11    1    6    6    0    0  0.22335459429E+02  0.70807757747E+01 -0.43091956216E+01  0.23823922859E+02  0.00000000000E+00 0.  1.
         12    1    6    6    0    0 -0.46887968637E+02 -0.37061009545E+02  0.34431652682E+02  0.68974913829E+02  0.00000000000E+00 0. -1.
         -5    1    3    3    0  503  0.45495408561E+02  0.31821581020E+02 -0.48969052603E+00  0.55720508033E+02  0.47000000000E+01 0.  1.
         11    1    4    4    0    0 -0.18461345866E+02 -0.29315459175E+02 -0.39258249476E+01  0.34865879299E+02  0.00000000000E+00 0. -1.
        -12    1    4    4    0    0 -0.37754528011E+02  0.88975444759E+00  0.10031526514E+03  0.10718837842E+03  0.00000000000E+00 0.  1.
<mgrwt>
<rscale>  2 0.17373027E+03</rscale>
<asrwt>0</asrwt>
<pdfrwt beam="1">  1       21 0.56379420E-01 0.17398495E+03</pdfrwt>
<pdfrwt beam="2">  1       21 0.13137571E-01 0.17398495E+03</pdfrwt>
<totfact> 0.14853609E+05</totfact>
</mgrwt>
</event>
<event>
12    1  0.1026879E-001  0.1858060E+03  0.7546771E-02  0.1162852E+00
         21   -1    0    0  501  502  0.00000000000E+00  0.00000000000E+00  0.25007127971E+03  0.25007127971E+03  0.00000000000E+00 0. -1.
         21   -1    0    0  502  503 -0.00000000000E+00 -0.00000000000E+00 -0.39207702995E+03  0.39207702995E+03  0.00000000000E+00 0. -1.
         -6    2    1    2    0  503  0.17716926045E+01  0.59580185025E+02 -0.33048579500E+03  0.37913679910E+03  0.17598555166E+03 0.  0.
        -24    2    3    3    0    0  0.24222051731E+02 -0.16526439504E+02 -0.83866076967E+02  0.12002367275E+03  0.80699022068E+02 0.  0.
          6    2    1    2  501    0 -0.17716926045E+01 -0.59580185025E+02  0.18848004476E+03  0.26301151056E+03  0.17348599387E+03 0.  0.
         24    2    5    5    0    0  0.12907778079E+02 -0.61200755734E+02  0.33127084284E+02  0.10688737585E+03  0.80095968476E+02 0.  0.
          5    1    5    5  501    0 -0.14679470683E+02  0.16205707085E+01  0.15535296047E+03  0.15612413470E+03  0.47000000000E+01 0. -1.
        -11    1    6    6    0    0  0.12559889135E+02 -0.12875990089E+02 -0.25313841663E+02  0.31053703734E+02  0.00000000000E+00 0.  1.
         12    1    6    6    0    0  0.34788894344E+00 -0.48324765645E+02  0.58440925947E+02  0.75833672118E+02  0.00000000000E+00 0. -1.
         -5    1    3    3    0  503 -0.22450359127E+02  0.76106624530E+02 -0.24661971804E+03  0.25911312635E+03  0.47000000000E+01 0.  1.
         13    1    4    4    0    0  0.35505478217E+02  0.13540327695E+02 -0.78838154969E+02  0.87518193174E+02  0.00000000000E+00 0. -1.
        -14    1    4    4    0    0 -0.11283426486E+02 -0.30066767199E+02 -0.50279219981E+01  0.32505479580E+02  0.00000000000E+00 0.  1.
<mgrwt>
<rscale>  2 0.18521168E+03</rscale>
<asrwt>0</asrwt>
<pdfrwt beam="1">  1       21 0.38472505E-01 0.18580595E+03</pdfrwt>
<pdfrwt beam="2">  1       21 0.60319543E-01 0.18580595E+03</pdfrwt>
<totfact> 0.16760748E+04</totfact>
</mgrwt>
</event>
<event>
12    1  0.1026879E-001  0.2049528E+03  0.7546771E-02  0.1146296E+00
         21   -1    0    0  503  502  0.00000000000E+00  0.00000000000E+00  0.54919061152E+02  0.54919061152E+02  0.00000000000E+00 0. -1.
         21   -1    0    0  501  503 -0.00000000000E+00 -0.00000000000E+00 -0.17481805099E+04  0.17481805099E+04  0.00000000000E+00 0.  1.
          6    2    1    2  501    0 -0.47415676539E+02 -0.99314765104E+02 -0.15239992246E+04  0.15372888106E+04  0.16903130341E+03 0.  0.
         24    2    3    3    0    0 -0.42904943255E+00 -0.45402608082E+02 -0.12738152180E+04  0.12770420220E+04  0.78546390161E+02 0.  0.
         -6    2    1    2    0  502  0.47415676539E+02  0.99314765104E+02 -0.16926222417E+03  0.26581076052E+03  0.17289878810E+03 0.  0.
        -24    2    5    5    0    0  0.55623206279E+01  0.92382032458E+00 -0.54299618560E+02  0.10874080125E+03  0.94044247172E+02 0.  0.
          5    1    3    3  501    0 -0.46986627106E+02 -0.53912157023E+02 -0.25018400656E+03  0.26024678853E+03  0.47000000000E+01 0. -1.
        -11    1    4    4    0    0 -0.24416356852E+01 -0.56930329121E+02 -0.51605881111E+03  0.51919526238E+03  0.00000000000E+00 0.  1.
         12    1    4    4    0    0  0.20125862527E+01  0.11527721040E+02 -0.75775640694E+03  0.75784675965E+03  0.00000000000E+00 0. -1.
         -5    1    5    5    0  502  0.41853355911E+02  0.98390944780E+02 -0.11496260561E+03  0.15706995927E+03  0.47000000000E+01 0.  1.
         11    1    6    6    0    0  0.33838934335E+02 -0.33819146805E+02 -0.37911217060E+02  0.61041531325E+02  0.00000000000E+00 0. -1.
        -12    1    6    6    0    0 -0.28276613707E+02  0.34742967129E+02 -0.16388401500E+02  0.47699269925E+02  0.00000000000E+00 0.  1.
<mgrwt>
<rscale>  2 0.20413496E+03</rscale>
<asrwt>0</asrwt>
<pdfrwt beam="1">  1       21 0.84490859E-02 0.20495282E+03</pdfrwt>
<pdfrwt beam="2">  1       21 0.26895086E+00 0.20495282E+03</pdfrwt>
<totfact> 0.55523029E+03</totfact>
</mgrwt>
</event>
<event>
12    1  0.1026879E-001  0.3301722E+03  0.7546771E-02  0.1071079E+00
         21   -1    0    0  503  502  0.00000000000E+00  0.00000000000E+00  0.24870682956E+03  0.24870682956E+03  0.00000000000E+00 0.  1.
         21   -1    0    0  501  503 -0.00000000000E+00 -0.00000000000E+00 -0.11674864417E+04  0.11674864417E+04  0.00000000000E+00 0.  1.
          6    2    1    2  501    0  0.27603317955E+03  0.54578481679E+02 -0.10191172445E+04  0.10712672975E+04  0.17274413965E+03 0.  0.
         24    2    3    3    0    0  0.69529977926E+02  0.27526489881E+02 -0.50258976446E+03  0.51431298144E+03  0.79556558900E+02 0.  0.
         -6    2    1    2    0  502 -0.27603317955E+03 -0.54578481679E+02  0.10033763238E+03  0.34492597373E+03  0.17243305949E+03 0.  0.
        -24    2    5    5    0    0 -0.12638385992E+03  0.25371737281E+02  0.70405830944E+02  0.17257470708E+03  0.90600460217E+02 0.  0.
          5    1    3    3  501    0  0.20650320162E+03  0.27051991798E+02 -0.51652748005E+03  0.55695431607E+03  0.47000000000E+01 0. -1.
        -11    1    4    4    0    0  0.76466436554E+02 -0.38615723351E+01 -0.37498741106E+03  0.38272390324E+03  0.00000000000E+00 0.  1.
         12    1    4    4    0    0 -0.69364586273E+01  0.31388062216E+02 -0.12760235340E+03  0.13158907820E+03  0.00000000000E+00 0. -1.
         -5    1    5    5    0  502 -0.14964931964E+03 -0.79950218960E+02  0.29931801437E+02  0.17235126665E+03  0.47000000000E+01 0.  1.
         11    1    6    6    0    0 -0.56217790208E+02 -0.93958412623E+01 -0.12692099392E+02  0.58393588312E+02  0.00000000000E+00 0. -1.
        -12    1    6    6    0    0 -0.70166069707E+02  0.34767578543E+02  0.83097930337E+02  0.11418111876E+03  0.00000000000E+00 0.  1.
<mgrwt>
<rscale>  2 0.33013150E+03</rscale>
<asrwt>0</asrwt>
<pdfrwt beam="1">  1       21 0.38262590E-01 0.33017217E+03</pdfrwt>
<pdfrwt beam="2">  1       21 0.17961330E+00 0.33017217E+03</pdfrwt>
<totfact> 0.10775450E+03</totfact>
</mgrwt>
</event>
<event>
12    1  0.1026879E-001  0.2377758E+03  0.7546771E-02  0.1121561E+00
         21   -1    0    0  501  502  0.00000000000E+00  0.00000000000E+00  0.51135536840E+03  0.51135536840E+03  0.00000000000E+00 0.  1.
         21   -1    0    0  502  503 -0.00000000000E+00 -0.00000000000E+00 -0.11204550695E+03  0.11204550695E+03  0.00000000000E+00 0.  1.
         -6    2    1    2    0  503  0.15872799747E+03 -0.24231861617E+02  0.15623419172E+03  0.28451089387E+03  0.17537264831E+03 0.  0.
        -24    2    3    3    0    0  0.36721458449E+02 -0.63454754991E+02  0.75947977316E+02  0.13320987884E+03  0.81251493034E+02 0.  0.
          6    2    1    2  501    0 -0.15872799747E+03  0.24231861617E+02  0.24307566973E+03  0.33888998148E+03  0.17314409615E+03 0.  0.
         24    2    5    5    0    0 -0.15046512708E+03 -0.26107897808E+02  0.14050579491E+03  0.22423817980E+03  0.84967676693E+02 0.  0.
          5    1    5    5  501    0 -0.82628703867E+01  0.50339759424E+02  0.10256987483E+03  0.11465180168E+03  0.47000000000E+01 0. -1.
        -11    1    6    6    0    0 -0.47116357671E+02  0.16643412080E+02  0.86832220863E+02  0.10018377566E+03  0.00000000000E+00 0.  1.
         12    1    6    6    0    0 -0.10334876941E+03 -0.42751309887E+02  0.53673574042E+02  0.12405440414E+03  0.00000000000E+00 0. -1.
         -5    1    3    3    0  503  0.12200653902E+03  0.39222893374E+02  0.80286214399E+02  0.15130101503E+03  0.47000000000E+01 0.  1.
         13    1    4    4    0    0 -0.16509772366E+02 -0.40118060574E+02  0.57901604382E+02  0.72350723271E+02  0.00000000000E+00 0. -1.
        -14    1    4    4    0    0  0.53231230815E+02 -0.23336694416E+02  0.18046372934E+02  0.60859155568E+02  0.00000000000E+00 0.  1.
<mgrwt>
<rscale>  2 0.23736501E+03</rscale>
<asrwt>0</asrwt>
<pdfrwt beam="1">  1       21 0.78670055E-01 0.23777579E+03</pdfrwt>
<pdfrwt beam="2">  1       21 0.17237771E-01 0.23777579E+03</pdfrwt>
<totfact> 0.42496859E+04</totfact>
</mgrwt>
</event>
<event>
12    1  0.1026879E-001  0.1805498E+03  0.7546771E-02  0.1167739E+00
         21   -1    0    0  503  502  0.00000000000E+00  0.00000000000E+00  0.94504107879E+02  0.94504107879E+02  0.00000000000E+00 0.  1.
         21   -1    0    0  501  503 -0.00000000000E+00 -0.00000000000E+00 -0.36396421268E+03  0.36396421268E+03  0.00000000000E+00 0.  1.
          6    2    1    2  501    0 -0.34825569739E+02  0.36259413609E+02 -0.19129054101E+03  0.26172306626E+03  0.17140398756E+03 0.  0.
         24    2    3    3    0    0  0.25139127586E+02  0.44235064768E+02 -0.17459679373E+03  0.19879336632E+03  0.80287268109E+02 0.  0.
         -6    2    1    2    0  502  0.34825569739E+02 -0.36259413609E+02 -0.78169563791E+02  0.19674525430E+03  0.17340890693E+03 0.  0.
        -24    2    5    5    0    0 -0.10767923047E+02 -0.66083008891E+01 -0.10706678606E+03  0.13497880285E+03  0.81217995136E+02 0.  0.
          5    1    3    3  501    0 -0.59964697325E+02 -0.79756511592E+01 -0.16693747277E+02  0.62929699943E+02  0.47000000000E+01 0. -1.
        -11    1    4    4    0    0 -0.12742963455E+02  0.22767757841E+01 -0.11832443169E+03  0.11903040771E+03  0.00000000000E+00 0.  1.
         12    1    4    4    0    0  0.37882091041E+02  0.41958288984E+02 -0.56272362046E+02  0.79762958611E+02  0.00000000000E+00 0. -1.
         -5    1    5    5    0  502  0.45593492786E+02 -0.29651112719E+02  0.28897222267E+02  0.61766451449E+02  0.47000000000E+01 0.  1.
         11    1    6    6    0    0 -0.33172123587E+00  0.35143330827E+02 -0.27908915026E+02  0.44878405481E+02  0.00000000000E+00 0. -1.
        -12    1    6    6    0    0 -0.10436201811E+02 -0.41751631716E+02 -0.79157871033E+02  0.90100397367E+02  0.00000000000E+00 0.  1.
<mgrwt>
<rscale>  2 0.18006663E+03</rscale>
<asrwt>0</asrwt>
<pdfrwt beam="1">  1       21 0.14539093E-01 0.18054976E+03</pdfrwt>
<pdfrwt beam="2">  1       21 0.55994494E-01 0.18054976E+03</pdfrwt>
<totfact> 0.12521257E+05</totfact>
</mgrwt>
</event>
<event>
12    1  0.1026879E-001  0.2064088E+03  0.7546771E-02  0.1144607E+00
         21   -1    0    0  501  502  0.00000000000E+00  0.00000000000E+00  0.22381190608E+03  0.22381190608E+03  0.00000000000E+00 0.  1.
         21   -1    0    0  502  503 -0.00000000000E+00 -0.00000000000E+00 -0.84721117664E+03  0.84721117664E+03  0.00000000000E+00 0.  1.
         -6    2    1    2    0  503  0.10301108377E+03 -0.46804324000E+02 -0.78335779772E+03  0.80988839308E+03  0.17166199894E+03 0.  0.
        -24    2    3    3    0    0  0.56189555021E+02 -0.83194120204E+02 -0.36286800740E+03  0.38521177896E+03  0.81464078737E+02 0.  0.
          6    2    1    2  501    0 -0.10301108377E+03  0.46804324000E+02  0.15995852716E+03  0.26113468963E+03  0.17263449132E+03 0.  0.
         24    2    5    5    0    0 -0.12241300472E+03  0.76630830044E+02  0.12521071419E+03  0.21117915435E+03  0.89786883502E+02 0.  0.
          5    1    5    5  501    0  0.19401920943E+02 -0.29826506043E+02  0.34747812967E+02  0.49955535279E+02  0.47000000000E+01 0. -1.
        -13    1    6    6    0    0 -0.63914466771E+01  0.50783717676E+02  0.38467825031E+02  0.64028197962E+02  0.00000000000E+00 0.  1.
         14    1    6    6    0    0 -0.11602155804E+03  0.25847112368E+02  0.86742889159E+02  0.14715095639E+03  0.00000000000E+00 0. -1.
         -5    1    3    3    0  503  0.46821528752E+02  0.36389796204E+02 -0.42048979032E+03  0.42467661412E+03  0.47000000000E+01 0.  1.
         13    1    4    4    0    0  0.26138897210E+02 -0.19528252095E+01 -0.24314346308E+02  0.35752523128E+02  0.00000000000E+00 0. -1.
        -14    1    4    4    0    0  0.30050657811E+02 -0.81241294995E+02 -0.33855366109E+03  0.34945925583E+03  0.00000000000E+00 0.  1.
<mgrwt>
<rscale>  2 0.20620534E+03</rscale>
<asrwt>0</asrwt>
<pdfrwt beam="1">  1       21 0.34432601E-01 0.20640881E+03</pdfrwt>
<pdfrwt beam="2">  1       21 0.13034018E+00 0.20640881E+03</pdfrwt>
<totfact> 0.34496948E+03</totfact>
</mgrwt>
</event>
<event>
12    1  0.1026879E-001  0.1800290E+03  0.7546771E-02  0.1168604E+00
         21   -1    0    0  501  502  0.00000000000E+00  0.00000000000E+00  0.84717621937E+03  0.84717621937E+03  0.00000000000E+00 0. -1.
         21   -1    0    0  502  503 -0.00000000000E+00 -0.00000000000E+00 -0.15384296984E+03  0.15384296984E+03  0.00000000000E+00 0. -1.
         -6    2    1    2    0  503 -0.24598967204E+02  0.34796044565E+02 -0.89314892061E+02  0.19793229781E+03  0.17141811651E+03 0.  0.
        -24    2    3    3    0    0  0.39532230348E+02  0.36802937841E+02  0.11685537275E+01  0.86908957550E+02  0.68077514016E+02 0.  0.
          6    2    1    2  501    0  0.24598967204E+02 -0.34796044565E+02  0.78264814158E+03  0.80308689140E+03  0.17491302901E+03 0.  0.
         24    2    5    5    0    0  0.25275563585E+02  0.86027761050E+01  0.17563088577E+03  0.19450168433E+03  0.79194919650E+02 0.  0.
          5    1    5    5  501    0 -0.67659638114E+00 -0.43398820670E+02  0.60701725581E+03  0.60858520707E+03  0.47000000000E+01 0. -1.
        -11    1    6    6    0    0  0.17204658772E+01  0.42150177695E+02  0.98544393885E+02  0.10719419317E+03  0.00000000000E+00 0.  1.
         12    1    6    6    0    0  0.23555097708E+02 -0.33547401590E+02  0.77086491888E+02  0.87307491163E+02  0.00000000000E+00 0. -1.
         -5    1    3    3    0  503 -0.64131197552E+02 -0.20068932761E+01 -0.90483445789E+02  0.11102334026E+03  0.47000000000E+01 0.  1.
         13    1    4    4    0    0  0.17048376586E+02  0.46791486495E+02 -0.20757866145E+02  0.53953492561E+02  0.00000000000E+00 0. -1.
        -14    1    4    4    0    0  0.22483853762E+02 -0.99885486539E+01  0.21926419873E+02  0.32955464989E+02  0.00000000000E+00 0.  1.
<mgrwt>
<rscale>  2 0.17917452E+03</rscale>
<asrwt>0</asrwt>
<pdfrwt beam="1">  1       21 0.13033480E+00 0.18002900E+03</pdfrwt>
<pdfrwt beam="2">  1       21 0.23668150E-01 0.18002900E+03</pdfrwt>
<totfact> 0.72911596E+03</totfact>
</mgrwt>
</event>
<event>
12    1  0.1026879E-001  0.1737278E+03  0.7546771E-02  0.1174019E+00
         21   -1    0    0  501  502  0.00000000000E+00  0.00000000000E+00  0.55496031815E+02  0.55496031815E+02  0.00000000000E+00 0.  1.
         21   -1    0    0  502  503 -0.00000000000E+00 -0.00000000000E+00 -0.57421525033E+03  0.57421525033E+03  0.00000000000E+00 0.  1.
         -6    2    1    2    0  503  0.26612882522E+01 -0.14262104793E+02 -0.33183296055E+03  0.37455904024E+03  0.17312097166E+03 0.  0.
        -24    2    3    3    0    0  0.17670709842E+02 -0.74413280961E+02 -0.20422294128E+03  0.23260885972E+03  0.80933809408E+02 0.  0.
          6    2    1    2  501    0 -0.26612882522E+01  0.14262104793E+02 -0.18688625796E+03  0.25515224190E+03  0.17310604567E+03 0.  0.
         24    2    5    5    0    0  0.61641054391E+02  0.98868532756E+00 -0.14574728469E+03  0.17752827618E+03  0.80457571188E+02 0.  0.
          5    1    5    5  501    0 -0.64302342644E+02  0.13273419465E+02 -0.41138973267E+02  0.77623965727E+02  0.47000000000E+01 0. -1.
        -11    1    6    6    0    0 -0.14355395534E+02 -0.17374285285E+02 -0.41441811527E+02  0.47173794767E+02  0.00000000000E+00 0.  1.
         12    1    6    6    0    0  0.75996449926E+02  0.18362970612E+02 -0.10430547317E+03  0.13035448141E+03  0.00000000000E+00 0. -1.
         -5    1    3    3    0  503 -0.15009421590E+02  0.60151176168E+02 -0.12761001927E+03  0.14195018052E+03  0.47000000000E+01 0.  1.
         11    1    4    4    0    0  0.37119711799E+01 -0.89263026181E+01  0.64033302750E+01  0.11595699508E+02  0.00000000000E+00 0. -1.
        -12    1    4    4    0    0  0.13958738662E+02 -0.65486978343E+02 -0.21062627156E+03  0.22101316021E+03  0.00000000000E+00 0.  1.
<mgrwt>
<rscale>  2 0.17372412E+03</rscale>
<asrwt>0</asrwt>
<pdfrwt beam="1">  1       21 0.85378509E-02 0.17372784E+03</pdfrwt>
<pdfrwt beam="2">  1       21 0.88340809E-01 0.17372784E+03</pdfrwt>
<totfact> 0.11834593E+05</totfact>
</mgrwt>
</event>
<event>
12    1  0.1026879E-001  0.1788572E+03  0.7546771E-02  0.1169060E+00
         21   -1    0    0  503  502  0.00000000000E+00  0.00000000000E+00  0.42211980700E+02  0.42211980700E+02  0.00000000000E+00 0. -1.
         21   -1    0    0  501  503 -0.00000000000E+00 -0.00000000000E+00 -0.84076246180E+03  0.84076246180E+03  0.00000000000E+00 0. -1.
          6    2    1    2  501    0 -0.26107412092E+02  0.29891438572E+02 -0.54062802523E+03  0.56944582942E+03  0.17439838276E+03 0.  0.
         24    2    3    3    0    0 -0.42956264326E+02  0.19505043778E+02 -0.15034842980E+03  0.17863639551E+03  0.84146444253E+02 0.  0.
         -6    2    1    2    0  502  0.26107412092E+02 -0.29891438572E+02 -0.25792245587E+03  0.31352861308E+03  0.17378464522E+03 0.  0.
        -24    2    5    5    0    0  0.71662552220E+02 -0.17237394588E+02 -0.94262887839E+02  0.14311165434E+03  0.78503531260E+02 0.  0.
          5    1    3    3  501    0  0.16848852234E+02  0.10386394794E+02 -0.39027959544E+03  0.39080943391E+03  0.47000000000E+01 0. -1.
        -11    1    4    4    0    0 -0.27668490779E+02  0.52919384938E+02 -0.91980834488E+02  0.10966531173E+03  0.00000000000E+00 0.  1.
         12    1    4    4    0    0 -0.15287773547E+02 -0.33414341160E+02 -0.58367595308E+02  0.68971083776E+02  0.00000000000E+00 0. -1.
         -5    1    5    5    0  502 -0.45555140128E+02 -0.12654043984E+02 -0.16365956803E+03  0.17041695875E+03  0.47000000000E+01 0.  1.
         11    1    6    6    0    0  0.28488823448E+02 -0.44113877007E+02 -0.27781473447E+02  0.59409237269E+02  0.00000000000E+00 0. -1.
        -12    1    6    6    0    0  0.43173728772E+02  0.26876482419E+02 -0.66481414392E+02  0.83702417067E+02  0.00000000000E+00 0.  1.
<mgrwt>
<rscale>  2 0.17870740E+03</rscale>
<asrwt>0</asrwt>
<pdfrwt beam="1">  1       21 0.64941504E-02 0.17885718E+03</pdfrwt>
<pdfrwt beam="2">  1       21 0.12934808E+00 0.17885718E+03</pdfrwt>
<totfact> 0.75859069E+04</totfact>
</mgrwt>
</event>
<event>
12    1  0.1026879E-001  0.2007967E+03  0.7546771E-02  0.1149573E+00
         21   -1    0    0  501  502  0.00000000000E+00  0.00000000000E+00  0.94394959415E+03  0.94394959415E+03  0.00000000000E+00 0.  1.
         21   -1    0    0  502  503 -0.00000000000E+00 -0.00000000000E+00 -0.42218233715E+02  0.42218233715E+02  0.00000000000E+00 0.  1.
         -6    2    1    2    0  503  0.87205874945E+02  0.48534484595E+02  0.44528942650E+03  0.48846903910E+03  0.17423796368E+03 0.  0.
        -24    2    3    3    0    0  0.11507033207E+03  0.74480963847E+01  0.38714886492E+03  0.41187312427E+03  0.80365237703E+02 0.  0.
          6    2    1    2  501    0 -0.87205874945E+02 -0.48534484595E+02  0.45644193393E+03  0.49769878876E+03  0.17147706687E+03 0.  0.
         24    2    5    5    0    0 -0.46993956104E+02 -0.29213390874E+02  0.43884707073E+03  0.44951194107E+03  0.80077334861E+02 0.  0.
          5    1    5    5  501    0 -0.40211918841E+02 -0.19321093721E+02  0.17594863203E+02  0.48186847693E+02  0.47000000000E+01 0. -1.
        -13    1    6    6    0    0 -0.51212127906E+02  0.13412507284E+01  0.14002583559E+03  0.14910303696E+03  0.00000000000E+00 0.  1.
         14    1    6    6    0    0  0.42181718022E+01 -0.30554641602E+02  0.29882123514E+03  0.30040890411E+03  0.00000000000E+00 0. -1.
         -5    1    3    3    0  503 -0.27864457121E+02  0.41086388211E+02  0.58140561580E+02  0.76595914824E+02  0.47000000000E+01 0.  1.
         11    1    4    4    0    0  0.25435038412E+02  0.34772691139E+01  0.22580620770E+03  0.22726081056E+03  0.00000000000E+00 0. -1.
        -12    1    4    4    0    0  0.89635293654E+02  0.39708272708E+01  0.16134265722E+03  0.18461231371E+03  0.00000000000E+00 0.  1.
<mgrwt>
<rscale>  2 0.20019630E+03</rscale>
<asrwt>0</asrwt>
<pdfrwt beam="1">  1       21 0.14522300E+00 0.20079674E+03</pdfrwt>
<pdfrwt beam="2">  1       21 0.64951136E-02 0.20079674E+03</pdfrwt>
<totfact> 0.55743145E+04</totfact>
</mgrwt>
</event>
<event>
12    1  0.1026879E-001  0.2074530E+03  0.7546771E-02  0.1143723E+00
         21   -1    0    0  501  502  0.00000000000E+00  0.00000000000E+00  0.12812641921E+03  0.12812641921E+03  0.00000000000E+00 0. -1.
         21   -1    0    0  502  503 -0.00000000000E+00 -0.00000000000E+00 -0.35118704758E+03  0.35118704758E+03  0.00000000000E+00 0. -1.
         -6    2    1    2    0  503 -0.25571698158E+02  0.11223890795E+03 -0.59760935132E+02  0.21529919330E+03  0.17184553838E+03 0.  0.
        -24    2    3    3    0    0  0.78955516002E+01 -0.70663193712E+01 -0.14985507914E+02  0.83463223415E+02  0.81420339049E+02 0.  0.
          6    2    1    2  501    0  0.25571698158E+02 -0.11223890795E+03 -0.16329969324E+03  0.26401427350E+03  0.17258407399E+03 0.  0.
         24    2    5    5    0    0  0.11100381325E+01 -0.18883025231E+02 -0.14357588243E+03  0.16539981025E+03  0.79907836835E+02 0.  0.
          5    1    5    5  501    0  0.24461660026E+02 -0.93355882718E+02 -0.19723810805E+02  0.98614463249E+02  0.47000000000E+01 0. -1.
        -13    1    6    6    0    0  0.11797754937E+02 -0.44818513821E+02 -0.12040410050E+03  0.12901563324E+03  0.00000000000E+00 0.  1.
         14    1    6    6    0    0 -0.10687716804E+02  0.25935488590E+02 -0.23171781935E+02  0.36384177013E+02  0.00000000000E+00 0. -1.
         -5    1    3    3    0  503 -0.33467249758E+02  0.11930522732E+03 -0.44775427218E+02  0.13183596988E+03  0.47000000000E+01 0.  1.
         13    1    4    4    0    0 -0.29857716512E+02 -0.57812110964E+01 -0.30088192712E+02  0.42780895009E+02  0.00000000000E+00 0. -1.
        -14    1    4    4    0    0  0.37753268112E+02 -0.12851082748E+01  0.15102684798E+02  0.40682328406E+02  0.00000000000E+00 0.  1.
<mgrwt>
<rscale>  2 0.20729933E+03</rscale>
<asrwt>0</asrwt>
<pdfrwt beam="1">  1       21 0.19711757E-01 0.20745300E+03</pdfrwt>
<pdfrwt beam="2">  1       21 0.54028776E-01 0.20745300E+03</pdfrwt>
<totfact> 0.76320755E+04</totfact>
</mgrwt>
</event>
<event>
12    1  0.1026879E-001  0.2865375E+03  0.7546771E-02  0.1092611E+00
         21   -1    0    0  501  502  0.00000000000E+00  0.00000000000E+00  0.70676019741E+02  0.70676019741E+02  0.00000000000E+00 0. -1.
         21   -1    0    0  502  503 -0.00000000000E+00 -0.00000000000E+00 -0.11912684800E+04  0.11912684800E+04  0.00000000000E+00 0.  1.
         -6    2    1    2    0  503 -0.15352464298E+03 -0.16430884046E+03 -0.43742962895E+03  0.52112387874E+03  0.17221557900E+03 0.  0.
        -24    2    3    3    0    0 -0.17382875801E+03 -0.13702034384E+03 -0.42383024666E+03  0.48419215344E+03  0.76282053823E+02 0.  0.
          6    2    1    2  501    0  0.15352464298E+03  0.16430884046E+03 -0.68316283133E+03  0.74082062103E+03  0.17758526790E+03 0.  0.
         24    2    5    5    0    0  0.91551175536E+02  0.18362524837E+03 -0.49359634022E+03  0.54039263188E+03  0.79290604311E+02 0.  0.
          5    1    5    5  501    0  0.61973467442E+02 -0.19316407914E+02 -0.18956649111E+03  0.20042798915E+03  0.47000000000E+01 0. -1.
        -13    1    6    6    0    0  0.19378479370E+02  0.17683592739E+02 -0.14779648352E+03  0.15010674687E+03  0.00000000000E+00 0.  1.
         14    1    6    6    0    0  0.72172696166E+02  0.16594165563E+03 -0.34579985670E+03  0.39028588501E+03  0.00000000000E+00 0. -1.
         -5    1    3    3    0  503  0.20304115029E+02 -0.27288496613E+02 -0.13599382296E+02  0.36931725296E+02  0.47000000000E+01 0.  1.
         13    1    4    4    0    0 -0.17639350872E+03 -0.13900845831E+03 -0.38872929749E+03  0.44894151972E+03  0.00000000000E+00 0. -1.
        -14    1    4    4    0    0  0.25647507128E+01  0.19881144705E+01 -0.35100949163E+02  0.35250633717E+02  0.00000000000E+00 0.  1.
<mgrwt>
<rscale>  2 0.28570977E+03</rscale>
<asrwt>0</asrwt>
<pdfrwt beam="1">  1       21 0.10873235E-01 0.28653750E+03</pdfrwt>
<pdfrwt beam="2">  1       21 0.18327206E+00 0.28653750E+03</pdfrwt>
<totfact> 0.11365242E+04</totfact>
</mgrwt>
</event>
<event>
12    1  0.1026879E-001  0.3500003E+03  0.7546771E-02  0.1062662E+00
         21   -1    0    0  501  502  0.00000000000E+00  0.00000000000E+00  0.28176871157E+03  0.28176871157E+03  0.00000000000E+00 0.  1.
         21   -1    0    0  502  503 -0.00000000000E+00 -0.00000000000E+00 -0.43610860113E+03  0.43610860113E+03  0.00000000000E+00 0.  1.
         -6    2    1    2    0  503 -0.26136940390E+03 -0.15512892604E+03 -0.53278888174E+02  0.35357858414E+03  0.17262742032E+03 0.  0.
        -24    2    3    3    0    0 -0.10553633776E+03 -0.13816406753E+03 -0.13321498486E+02  0.19174399601E+03  0.79756313466E+02 0.  0.
          6    2    1    2  501    0  0.26136940390E+03  0.15512892604E+03 -0.10106100139E+03  0.36429872857E+03  0.17355485773E+03 0.  0.
         24    2    5    5    0    0  0.17426956263E+03  0.16043775684E+03 -0.30602229039E+02  0.25204413118E+03  0.80495921395E+02 0.  0.
          5    1    5    5  501    0  0.87099841264E+02 -0.53088307921E+01 -0.70458772354E+02  0.11225459739E+03  0.47000000000E+01 0. -1.
        -13    1    6    6    0    0  0.14378824294E+03  0.86255560122E+02 -0.36586788666E+02  0.17162072592E+03  0.00000000000E+00 0.  1.
         14    1    6    6    0    0  0.30481319688E+02  0.74182196715E+02  0.59845596273E+01  0.80423405258E+02  0.00000000000E+00 0. -1.
         -5    1    3    3    0  503 -0.15583306613E+03 -0.16964858515E+02 -0.39957389688E+02  0.16183458813E+03  0.47000000000E+01 0.  1.
         13    1    4    4    0    0 -0.22489365361E+02 -0.82228664579E+02 -0.29723236854E+02  0.90281756971E+02  0.00000000000E+00 0. -1.
        -14    1    4    4    0    0 -0.83046972403E+02 -0.55935402951E+02  0.16401738368E+02  0.10146223903E+03  0.00000000000E+00 0.  1.
<mgrwt>
<rscale>  2 0.34988554E+03</rscale>
<asrwt>0</asrwt>
<pdfrwt beam="1">  1       21 0.43349033E-01 0.35000034E+03</pdfrwt>
<pdfrwt beam="2">  1       21 0.67093631E-01 0.35000034E+03</pdfrwt>
<totfact> 0.95886079E+03</totfact>
</mgrwt>
</event>
<event>
12    1  0.1026879E-001  0.1868225E+03  0.7546771E-02  0.1161452E+00
         21   -1    0    0  501  502  0.00000000000E+00  0.00000000000E+00  0.12341557574E+04  0.12341557574E+04  0.00000000000E+00 0. -1.
         21   -1    0    0  502  503 -0.00000000000E+00 -0.00000000000E+00 -0.66286992172E+02  0.66286992172E+02  0.00000000000E+00 0. -1.
         -6    2    1    2    0  503  0.68576856887E+02 -0.12046345725E+02  0.91456716025E+02  0.20800718641E+03  0.17336308415E+03 0.  0.
        -24    2    3    3    0    0  0.89354523310E+02 -0.10177868699E+01  0.67158825799E+01  0.11993653644E+03  0.79714509149E+02 0.  0.
          6    2    1    2  501    0 -0.68576856887E+02  0.12046345725E+02  0.10764120492E+04  0.10924355631E+04  0.17292963959E+03 0.  0.
         24    2    5    5    0    0 -0.14001164349E+02 -0.37733999465E+02  0.29526545211E+03  0.30778998385E+03  0.77026616379E+02 0.  0.
          5    1    5    5  501    0 -0.54575692537E+02  0.49780345190E+02  0.78114659705E+03  0.78464557927E+03  0.47000000000E+01 0. -1.
        -13    1    6    6    0    0  0.23067377513E+02  0.43638796814E+00  0.17187259486E+03  0.17341419551E+03  0.00000000000E+00 0.  1.
         14    1    6    6    0    0 -0.37068541863E+02 -0.38170387433E+02  0.12339285725E+03  0.13437578834E+03  0.00000000000E+00 0. -1.
         -5    1    3    3    0  503 -0.20777666424E+02 -0.11028558855E+02  0.84740833445E+02  0.88070649966E+02  0.47000000000E+01 0.  1.
         11    1    4    4    0    0  0.54634269512E+02 -0.35282820927E+02 -0.14674511729E+02  0.66671749280E+02  0.00000000000E+00 0. -1.
        -12    1    4    4    0    0  0.34720253799E+02  0.34265034057E+02  0.21390394308E+02  0.53264787162E+02  0.00000000000E+00 0.  1.
<mgrwt>
<rscale>  2 0.18672191E+03</rscale>
<asrwt>0</asrwt>
<pdfrwt beam="1">  1       21 0.18987010E+00 0.18682253E+03</pdfrwt>
<pdfrwt beam="2">  1       21 0.10198000E-01 0.18682253E+03</pdfrwt>
<totfact> 0.12306601E+04</totfact>
</mgrwt>
</event>
<event>
12    1  0.1026879E-001  0.1857664E+03  0.7546771E-02  0.1162451E+00
         21   -1    0    0  503  502  0.00000000000E+00  0.00000000000E+00  0.57414785492E+02  0.57414785492E+02  0.00000000000E+00 0. -1.
         21   -1    0    0  501  503 -0.00000000000E+00 -0.00000000000E+00 -0.11587598777E+04  0.11587598777E+04  0.00000000000E+00 0.  1.
          6    2    1    2  501    0  0.44572994732E+02  0.49371048554E+02 -0.97352118207E+03  0.99108659009E+03  0.17344994902E+03 0.  0.
         24    2    3    3    0    0 -0.49499105926E+01 -0.10226994814E+01 -0.22097330493E+03  0.23521461324E+03  0.80443553261E+02 0.  0.
         -6    2    1    2    0  502 -0.44572994732E+02 -0.49371048554E+02 -0.12782391013E+03  0.22508807310E+03  0.17292031794E+03 0.  0.
        -24    2    5    5    0    0 -0.37541556587E+02 -0.91104877189E+02 -0.53126413609E+02  0.13910575188E+03  0.82574374145E+02 0.  0.
          5    1    3    3  501    0  0.49522905325E+02  0.50393748035E+02 -0.75254787714E+03  0.75587197685E+03  0.47000000000E+01 0. -1.
        -13    1    4    4    0    0 -0.23372578139E+02 -0.30896721012E+02 -0.67953332023E+02  0.78221097609E+02  0.00000000000E+00 0.  1.
         14    1    4    4    0    0  0.18422667546E+02  0.29874021530E+02 -0.15301997291E+03  0.15699351563E+03  0.00000000000E+00 0. -1.
         -5    1    5    5    0  502 -0.70314381449E+01  0.41733828635E+02 -0.74697496524E+02  0.85982321217E+02  0.47000000000E+01 0.  1.
         11    1    6    6    0    0 -0.28528723752E+02 -0.54377780932E+02 -0.73800252913E+02  0.96006814695E+02  0.00000000000E+00 0. -1.
        -12    1    6    6    0    0 -0.90128328353E+01 -0.36727096257E+02  0.20673839303E+02  0.43098937188E+02  0.00000000000E+00 0.  1.
<mgrwt>
<rscale>  2 0.18564262E+03</rscale>
<asrwt>0</asrwt>
<pdfrwt beam="1">  1       21 0.88330438E-02 0.18576635E+03</pdfrwt>
<pdfrwt beam="2">  1       21 0.17827075E+00 0.18576635E+03</pdfrwt>
<totfact> 0.18968190E+04</totfact>
</mgrwt>
</event>
<event>
12    1  0.1026879E-001  0.2066189E+03  0.7546771E-02  0.1144704E+00
         21   -1    0    0  501  502  0.00000000000E+00  0.00000000000E+00  0.19632733593E+04  0.19632733593E+04  0.00000000000E+00 0. -1.
         21   -1    0    0  502  503 -0.00000000000E+00 -0.00000000000E+00 -0.23722575525E+02  0.23722575525E+02  0.00000000000E+00 0.  1.
         -6    2    1    2    0  503  0.48069843104E+02 -0.10201853727E+03  0.66264271820E+03  0.69347919387E+03  0.17058583934E+03 0.  0.
        -24    2    3    3    0    0  0.36408126866E+02 -0.43159064257E+02  0.59518874567E+03  0.60307697266E+03  0.79145027973E+02 0.  0.
          6    2    1    2  501    0 -0.48069843104E+02  0.10201853727E+03  0.12769080656E+04  0.12935167410E+04  0.17312671499E+03 0.  0.
         24    2    5    5    0    0 -0.66730506551E+02  0.30449851613E+01  0.72300893009E+03  0.73051556274E+03  0.80304682199E+02 0.  0.
          5    1    5    5  501    0  0.18660663447E+02  0.98973552108E+02  0.55389913554E+03  0.56300117827E+03  0.47000000000E+01 0. -1.
        -13    1    6    6    0    0 -0.23289839760E+02  0.15361056497E+01  0.41432234761E+02  0.47554246224E+02  0.00000000000E+00 0.  1.
         14    1    6    6    0    0 -0.43440666791E+02  0.15088795117E+01  0.68157669532E+03  0.68296131652E+03  0.00000000000E+00 0. -1.
         -5    1    3    3    0  503  0.11661716238E+02 -0.58859473012E+02  0.67453972524E+02  0.90402221202E+02  0.47000000000E+01 0.  1.
         11    1    4    4    0    0 -0.23707624141E+02 -0.21266886297E+02  0.24871333769E+03  0.25074420480E+03  0.00000000000E+00 0. -1.
        -12    1    4    4    0    0  0.60115751007E+02 -0.21892177960E+02  0.34647540798E+03  0.35233276786E+03  0.00000000000E+00 0.  1.
<mgrwt>
<rscale>  2 0.20608572E+03</rscale>
<asrwt>0</asrwt>
<pdfrwt beam="1">  1       21 0.30204193E+00 0.20661885E+03</pdfrwt>
<pdfrwt beam="2">  1       21 0.36496286E-02 0.20661885E+03</pdfrwt>
<totfact> 0.14964874E+04</totfact>
</mgrwt>
</event>
<event>
12    1  0.1026879E-001  0.1912894E+03  0.7546771E-02  0.1157344E+00
         21   -1    0    0  503  502  0.00000000000E+00  0.00000000000E+00  0.68871404457E+03  0.68871404457E+03  0.00000000000E+00 0.  1.
         21   -1    0    0  501  503 -0.00000000000E+00 -0.00000000000E+00 -0.11200182751E+03  0.11200182751E+03  0.00000000000E+00 0.  1.
          6    2    1    2  501    0 -0.10103679807E+02  0.81834417761E+02 -0.19634174475E+01  0.19129947195E+03  0.17260555229E+03 0.  0.
         24    2    3    3    0    0 -0.53128889481E+02  0.29854108614E+01  0.17564801356E+02  0.99257221397E+02  0.81926077517E+02 0.  0.
         -6    2    1    2    0  502  0.10103679807E+02 -0.81834417761E+02  0.57867563450E+03  0.60941640013E+03  0.17240621364E+03 0.  0.
        -24    2    5    5    0    0 -0.29765568283E+02 -0.46568767833E+02  0.52262868489E+03  0.53197885388E+03  0.82499209159E+02 0.  0.
          5    1    3    3  501    0  0.43025209674E+02  0.78849006900E+02 -0.19528218804E+02  0.92042250549E+02  0.47000000000E+01 0. -1.
        -11    1    4    4    0    0 -0.35842470201E+02  0.24189135754E+02  0.43660717540E+02  0.61449615253E+02  0.00000000000E+00 0.  1.
         12    1    4    4    0    0 -0.17286419280E+02 -0.21203724893E+02 -0.26095916184E+02  0.37807606144E+02  0.00000000000E+00 0. -1.
         -5    1    5    5    0  502  0.39869248091E+02 -0.35265649927E+02  0.56046949617E+02  0.77437546252E+02  0.47000000000E+01 0.  1.
         13    1    6    6    0    0 -0.19735728317E+02  0.42073785026E+01  0.37495783281E+03  0.37550043594E+03  0.00000000000E+00 0. -1.
        -14    1    6    6    0    0 -0.10029839967E+02 -0.50776146336E+02  0.14767085208E+03  0.15647841794E+03  0.00000000000E+00 0.  1.
<mgrwt>
<rscale>  2 0.19124442E+03</rscale>
<asrwt>0</asrwt>
<pdfrwt beam="1">  1       21 0.10595600E+00 0.19128940E+03</pdfrwt>
<pdfrwt beam="2">  1       21 0.17231051E-01 0.19128940E+03</pdfrwt>
<totfact> 0.21773287E+04</totfact>
</mgrwt>
</event>
<event>
12    1  0.1026879E-001  0.2308344E+03  0.7546771E-02  0.1126066E+00
         21   -1    0    0  501  502  0.00000000000E+00  0.00000000000E+00  0.60249941173E+02  0.60249941173E+02  0.00000000000E+00 0.  1.
         21   -1    0    0  502  503 -0.00000000000E+00 -0.00000000000E+00 -0.17201282910E+04  0.17201282910E+04  0.00000000000E+00 0. -1.
         -6    2    1    2    0  503  0.73110079095E+02  0.13411097966E+03 -0.20928061699E+03  0.31152892726E+03  0.17297704282E+03 0.  0.
        -24    2    3    3    0    0  0.75643636856E+02  0.46099101980E+02 -0.18479958385E+03  0.22001979925E+03  0.80067089795E+02 0.  0.
          6    2    1    2  501    0 -0.73110079095E+02 -0.13411097966E+03 -0.14505977328E+04  0.14688493049E+04  0.17307125556E+03 0.  0.
         24    2    5    5    0    0 -0.71560088525E+02 -0.16310578991E+03 -0.13512737516E+04  0.13652614449E+04  0.79206793894E+02 0.  0.
          5    1    5    5  501    0 -0.15499905692E+01  0.28994810256E+02 -0.99323981200E+02  0.10358785997E+03  0.47000000000E+01 0. -1.
        -11    1    6    6    0    0  0.92991560225E+01 -0.62955783802E+02 -0.55728128049E+03  0.56090313834E+03  0.00000000000E+00 0.  1.
         12    1    6    6    0    0 -0.80859244548E+02 -0.10015000611E+03 -0.79399247113E+03  0.80435830658E+03  0.00000000000E+00 0. -1.
         -5    1    3    3    0  503 -0.25335577615E+01  0.88011877676E+02 -0.24481033140E+02  0.91509128018E+02  0.47000000000E+01 0.  1.
         13    1    4    4    0    0  0.48235109537E+01 -0.86227560761E+01  0.43267835158E+01  0.10786066747E+02  0.00000000000E+00 0. -1.
        -14    1    4    4    0    0  0.70820125902E+02  0.54721858056E+02 -0.18912636737E+03  0.20923373250E+03  0.00000000000E+00 0.  1.
<mgrwt>
<rscale>  2 0.23081669E+03</rscale>
<asrwt>0</asrwt>
<pdfrwt beam="1">  1       21 0.92692209E-02 0.23083435E+03</pdfrwt>
<pdfrwt beam="2">  1       21 0.26463515E+00 0.23083435E+03</pdfrwt>
<totfact> 0.48754623E+03</totfact>
</mgrwt>
</event>
<event>
12    1  0.1026879E-001  0.2029745E+03  0.7546771E-02  0.1147436E+00
         21   -1    0    0  503  502  0.00000000000E+00  0.00000000000E+00  0.21330979688E+03  0.21330979688E+03  0.00000000000E+00 0. -1.
         21   -1    0    0  501  503 -0.00000000000E+00 -0.00000000000E+00 -0.20242660421E+03  0.20242660421E+03  0.00000000000E+00 0. -1.
          6    2    1    2  501    0 -0.72276779261E+02  0.73925430668E+02 -0.41036923061E+02  0.20708135119E+03  0.17467041775E+03 0.  0.
         24    2    3    3    0    0  0.87445401461E+01  0.84825149280E+02 -0.43106763061E+02  0.12516900595E+03  0.80853658527E+02 0.  0.
         -6    2    1    2    0  502  0.72276779261E+02 -0.73925430668E+02  0.51920115734E+02  0.20865504990E+03  0.17364426080E+03 0.  0.
        -24    2    5    5    0    0 -0.57431167516E+01 -0.67613166375E+02 -0.14322627388E+02  0.10600447820E+03  0.80170369122E+02 0.  0.
          5    1    3    3  501    0 -0.81021319408E+02 -0.10899718613E+02  0.20698399999E+01  0.81912345236E+02  0.47000000000E+01 0. -1.
        -11    1    4    4    0    0  0.36164091990E+02  0.34850098776E+02 -0.45982203367E+02  0.68093567689E+02  0.00000000000E+00 0.  1.
         12    1    4    4    0    0 -0.27419551844E+02  0.49975050504E+02  0.28754403059E+01  0.57075438265E+02  0.00000000000E+00 0. -1.
         -5    1    5    5    0  502  0.78019896013E+02 -0.63122642921E+01  0.66242743122E+02  0.10265057170E+03  0.47000000000E+01 0.  1.
         11    1    6    6    0    0  0.14510222071E+02  0.12681494052E+02  0.69845861912E+01  0.20497592058E+02  0.00000000000E+00 0. -1.
        -12    1    6    6    0    0 -0.20253338823E+02 -0.80294660427E+02 -0.21307213579E+02  0.85506886138E+02  0.00000000000E+00 0.  1.
<mgrwt>
<rscale>  2 0.20275357E+03</rscale>
<asrwt>0</asrwt>
<pdfrwt beam="1">  1       21 0.32816892E-01 0.20297452E+03</pdfrwt>
<pdfrwt beam="2">  1       21 0.31142555E-01 0.20297452E+03</pdfrwt>
<totfact> 0.88158764E+04</totfact>
</mgrwt>
</event>
<event>
12    1  0.1026879E-001  0.1900342E+03  0.7546771E-02  0.1159537E+00
         21   -1    0    0  503  502  0.00000000000E+00  0.00000000000E+00  0.58546328798E+02  0.58546328798E+02  0.00000000000E+00 0.  1.
         21   -1    0    0  501  503 -0.00000000000E+00 -0.00000000000E+00 -0.62441182931E+03  0.62441182931E+03  0.00000000000E+00 0.  1.
          6    2    1    2  501    0  0.14162466315E+02  0.60756580444E+02 -0.34523131467E+03  0.39176676718E+03  0.17436915358E+03 0.  0.
         24    2    3    3    0    0 -0.12309965312E+02  0.32203526975E+02 -0.34064428857E+03  0.35228009465E+03  0.82910381491E+02 0.  0.
         -6    2    1    2    0  502 -0.14162466315E+02 -0.60756580444E+02 -0.22063418585E+03  0.29119139093E+03  0.17950221355E+03 0.  0.
        -24    2    5    5    0    0  0.12242756651E+00  0.37288166368E+02 -0.11982740065E+03  0.14976675194E+03  0.81737700617E+02 0.  0.
          5    1    3    3  501    0  0.26472431626E+02  0.28553053469E+02 -0.45870260962E+01  0.39486672524E+02  0.47000000000E+01 0. -1.
        -11    1    4    4    0    0 -0.21568237629E+02  0.57545457957E+02 -0.20654700932E+03  0.21549555835E+03  0.00000000000E+00 0.  1.
         12    1    4    4    0    0  0.92582723178E+01 -0.25341930981E+02 -0.13409727925E+03  0.13678453631E+03  0.00000000000E+00 0. -1.
         -5    1    5    5    0  502 -0.14284893881E+02 -0.98044746812E+02 -0.10080678520E+03  0.14142463899E+03  0.47000000000E+01 0.  1.
         13    1    6    6    0    0  0.20962202122E+02  0.28275253998E+02 -0.12198274811E+03  0.12695942164E+03  0.00000000000E+00 0. -1.
        -14    1    6    6    0    0 -0.20839774556E+02  0.90129123701E+01  0.21553474622E+01  0.22807330304E+02  0.00000000000E+00 0.  1.
<mgrwt>
<rscale>  2 0.18881220E+03</rscale>
<asrwt>0</asrwt>
<pdfrwt beam="1">  1       21 0.90071269E-02 0.19003416E+03</pdfrwt>
<pdfrwt beam="2">  1       21 0.96063364E-01 0.19003416E+03</pdfrwt>
<totfact> 0.88134424E+04</totfact>
</mgrwt>
</event>
<event>
12    1  0.1026879E-001  0.1985318E+03  0.7546771E-02  0.1151062E+00
         21   -1    0    0  501  502  0.00000000000E+00  0.00000000000E+00  0.14587081905E+04  0.14587081905E+04  0.00000000000E+00 0. -1.
         21   -1    0    0  502  503 -0.00000000000E+00 -0.00000000000E+00 -0.37897240607E+02  0.37897240607E+02  0.00000000000E+00 0. -1.
         -6    2    1    2    0  503 -0.66792539620E+02 -0.69975311019E+02  0.11126805702E+04  0.11302534779E+04  0.17336979371E+03 0.  0.
        -24    2    3    3    0    0 -0.72257003317E+02 -0.11111113089E+03  0.81065683706E+03  0.82535605013E+03  0.80506795329E+02 0.  0.
          6    2    1    2  501    0  0.66792539620E+02  0.69975311019E+02  0.30813037963E+03  0.36635195320E+03  0.17294980562E+03 0.  0.
         24    2    5    5    0    0  0.59016465943E+02  0.65112052258E+02  0.32520854313E+03  0.34640521722E+03  0.80705981114E+02 0.  0.
          5    1    5    5  501    0  0.77760736768E+01  0.48632587605E+01 -0.17078163505E+02  0.19946735981E+02  0.47000000000E+01 0. -1.
        -13    1    6    6    0    0  0.78310032040E+02  0.61663911457E+02  0.26831215781E+03  0.28622772948E+03  0.00000000000E+00 0.  1.
         14    1    6    6    0    0 -0.19293566097E+02  0.34481408009E+01  0.56896385325E+02  0.60177487741E+02  0.00000000000E+00 0. -1.
         -5    1    3    3    0  503  0.54644636967E+01  0.41135819867E+02  0.30202373317E+03  0.30489742773E+03  0.47000000000E+01 0.  1.
         11    1    4    4    0    0  0.17408391300E+02 -0.11407801149E+02  0.12273715367E+03  0.12448935258E+03  0.00000000000E+00 0. -1.
        -12    1    4    4    0    0 -0.89665394617E+02 -0.99703329737E+02  0.68791968339E+03  0.70086669756E+03  0.00000000000E+00 0.  1.
<mgrwt>
<rscale>  2 0.19844007E+03</rscale>
<asrwt>0</asrwt>
<pdfrwt beam="1">  1       21 0.22441660E+00 0.19853179E+03</pdfrwt>
<pdfrwt beam="2">  1       21 0.58303458E-02 0.19853179E+03</pdfrwt>
<totfact> 0.19484251E+04</totfact>
</mgrwt>
</event>
<event>
12    1  0.1026879E-001  0.2126629E+03  0.7546771E-02  0.1140136E+00
         21   -1    0    0  503  502  0.00000000000E+00  0.00000000000E+00  0.40275978723E+03  0.40275978723E+03  0.00000000000E+00 0.  1.
         21   -1    0    0  501  503 -0.00000000000E+00 -0.00000000000E+00 -0.17428823833E+03  0.17428823833E+03  0.00000000000E+00 0.  1.
          6    2    1    2  501    0  0.82550314060E+02  0.89265135306E+02 -0.59708611751E+02  0.22088597960E+03  0.17447830505E+03 0.  0.
         24    2    3    3    0    0  0.63424864300E+02  0.97417331751E+02  0.15275489877E+02  0.14293120660E+03  0.81750469684E+02 0.  0.
         -6    2    1    2    0  502 -0.82550314060E+02 -0.89265135306E+02  0.28818016065E+03  0.35616204596E+03  0.17035486273E+03 0.  0.
        -24    2    5    5    0    0 -0.11515991210E+03 -0.76466968098E+02  0.27140756531E+03  0.31703930420E+03  0.87993473242E+02 0.  0.
          5    1    3    3  501    0  0.19125449760E+02 -0.81521964448E+01 -0.74984101628E+02  0.77954772992E+02  0.47000000000E+01 0. -1.
        -11    1    4    4    0    0  0.28011381165E+02  0.35711484104E+02  0.46729178312E+02  0.65142641007E+02  0.00000000000E+00 0.  1.
         12    1    4    4    0    0  0.35413483136E+02  0.61705847646E+02 -0.31453688435E+02  0.77788565597E+02  0.00000000000E+00 0. -1.
         -5    1    5    5    0  502  0.32609598042E+02 -0.12798167208E+02  0.16772595345E+02  0.39122741762E+02  0.47000000000E+01 0.  1.
         13    1    6    6    0    0 -0.57021397002E+01  0.16777368107E+02  0.15691764364E+02  0.23669092645E+02  0.00000000000E+00 0. -1.
        -14    1    6    6    0    0 -0.10945777240E+03 -0.93244336204E+02  0.25571580094E+03  0.29337021155E+03  0.00000000000E+00 0.  1.
<mgrwt>
<rscale>  2 0.21181538E+03</rscale>
<asrwt>0</asrwt>
<pdfrwt beam="1">  1       21 0.61963044E-01 0.21266287E+03</pdfrwt>
<pdfrwt beam="2">  1       21 0.26813575E-01 0.21266287E+03</pdfrwt>
<totfact> 0.31678253E+04</totfact>
</mgrwt>
</event>
<event>
12    1  0.1026879E-001  0.2832681E+03  0.7546771E-02  0.1093962E+00
         21   -1    0    0  503  502  0.00000000000E+00  0.00000000000E+00  0.56266633965E+02  0.56266633965E+02  0.00000000000E+00 0.  1.
         21   -1    0    0  501  503 -0.00000000000E+00 -0.00000000000E+00 -0.15796901863E+04  0.15796901863E+04  0.00000000000E+00 0. -1.
          6    2    1    2  501    0 -0.30645997410E+02  0.22184408542E+03 -0.10177601728E+04  0.10563567229E+04  0.17291553254E+03 0.  0.
         24    2    3    3    0    0  0.30517978579E+02  0.66209289366E+02 -0.29316545133E+03  0.31270168055E+03  0.80754827428E+02 0.  0.
         -6    2    1    2    0  502  0.30645997410E+02 -0.22184408542E+03 -0.50566337962E+03  0.57960009739E+03  0.17345559668E+03 0.  0.
        -24    2    5    5    0    0  0.78709551356E+02 -0.18573962515E+03 -0.33870138973E+03  0.40208380705E+03  0.79109763383E+02 0.  0.
          5    1    3    3  501    0 -0.61163975988E+02  0.15563479606E+03 -0.72459472143E+03  0.74365504236E+03  0.47000000000E+01 0. -1.
        -11    1    4    4    0    0  0.35621243332E+02  0.18349508462E+02 -0.22906190889E+03  0.23254018049E+03  0.00000000000E+00 0.  1.
         12    1    4    4    0    0 -0.51032647534E+01  0.47859780904E+02 -0.64103542438E+02  0.80161500063E+02  0.00000000000E+00 0. -1.
         -5    1    5    5    0  502 -0.48063553946E+02 -0.36104460269E+02 -0.16696198989E+03  0.17751629035E+03  0.47000000000E+01 0.  1.
         11    1    6    6    0    0  0.10884266627E+02 -0.46364631192E+02 -0.15274911097E+03  0.16000136621E+03  0.00000000000E+00 0. -1.
        -12    1    6    6    0    0  0.67825284729E+02 -0.13937499396E+03 -0.18595227875E+03  0.24208244084E+03  0.00000000000E+00 0.  1.
<mgrwt>
<rscale>  2 0.28318547E+03</rscale>
<asrwt>0</asrwt>
<pdfrwt beam="1">  1       21 0.86564058E-02 0.28326811E+03</pdfrwt>
<pdfrwt beam="2">  1       21 0.24302924E+00 0.28326811E+03</pdfrwt>
<totfact> 0.71006919E+03</totfact>
</mgrwt>
</event>
<event>
12    1  0.1026879E-001  0.2031944E+03  0.7546771E-02  0.1147206E+00
         21   -1    0    0  503  502  0.00000000000E+00  0.00000000000E+00  0.51570820887E+03  0.51570820887E+03  0.00000000000E+00 0.  1.
         21   -1    0    0  501  503 -0.00000000000E+00 -0.00000000000E+00 -0.81438400306E+02  0.81438400306E+02  0.00000000000E+00 0.  1.
          6    2    1    2  501    0 -0.10228478050E+03  0.24617688407E+02  0.17451106113E+03  0.26735488145E+03  0.17307892788E+03 0.  0.
         24    2    3    3    0    0 -0.47810421620E+02 -0.50119691968E+02  0.10167737286E+03  0.14954160568E+03  0.85009315606E+02 0.  0.
         -6    2    1    2    0  502  0.10228478050E+03 -0.24617688407E+02  0.25975874743E+03  0.32979172772E+03  0.17383834416E+03 0.  0.
        -24    2    5    5    0    0  0.13803157241E+03 -0.24096141430E+01  0.20879938190E+03  0.26353481390E+03  0.82431153291E+02 0.  0.
          5    1    3    3  501    0 -0.54474358882E+02  0.74737380375E+02  0.72833688269E+02  0.11781327577E+03  0.47000000000E+01 0. -1.
        -13    1    4    4    0    0 -0.47628350024E+02  0.31213791418E-01  0.83630722611E+02  0.96242186513E+02  0.00000000000E+00 0.  1.
         14    1    4    4    0    0 -0.18207159603E+00 -0.50150905759E+02  0.18046650248E+02  0.53299419169E+02  0.00000000000E+00 0. -1.
         -5    1    5    5    0  502 -0.35746791905E+02 -0.22208074264E+02  0.50959365530E+02  0.66256913822E+02  0.47000000000E+01 0.  1.
         13    1    6    6    0    0  0.69524207740E+02 -0.44607817154E+01  0.17237059585E+03  0.18591701468E+03  0.00000000000E+00 0. -1.
        -14    1    6    6    0    0  0.68507364667E+02  0.20511675724E+01  0.36428786057E+02  0.77617799219E+02  0.00000000000E+00 0.  1.
<mgrwt>
<rscale>  2 0.20303191E+03</rscale>
<asrwt>0</asrwt>
<pdfrwt beam="1">  1       21 0.79339722E-01 0.20319443E+03</pdfrwt>
<pdfrwt beam="2">  1       21 0.12528985E-01 0.20319443E+03</pdfrwt>
<totfact> 0.75755768E+04</totfact>
</mgrwt>
</event>
<event>
12    1  0.1026879E-001  0.1841969E+03  0.7546771E-02  0.1163866E+00
         21   -1    0    0  501  502  0.00000000000E+00  0.00000000000E+00  0.25516526953E+03  0.25516526953E+03  0.00000000000E+00 0.  1.
         21   -1    0    0  502  503 -0.00000000000E+00 -0.00000000000E+00 -0.28693266400E+03  0.28693266400E+03  0.00000000000E+00 0.  1.
         -6    2    1    2    0  503  0.20122139587E+02  0.52827072998E+02 -0.21456692213E+03  0.28278519672E+03  0.17530802397E+03 0.  0.
        -24    2    3    3    0    0  0.32418233215E+02  0.58239688079E+02 -0.23528356700E+03  0.25765036641E+03  0.81132923635E+02 0.  0.
          6    2    1    2  501    0 -0.20122139587E+02 -0.52827072998E+02  0.18279952765E+03  0.25931273681E+03  0.17501950753E+03 0.  0.
         24    2    5    5    0    0 -0.59707680480E+02 -0.68904288308E+02  0.74152544162E+02  0.14247203790E+03  0.80541130620E+02 0.  0.
          5    1    5    5  501    0  0.39585540892E+02  0.16077215311E+02  0.10864698349E+03  0.11684069891E+03  0.47000000000E+01 0. -1.
        -11    1    6    6    0    0  0.74403570785E+01 -0.49453779278E+02  0.42925778599E+02  0.65906431148E+02  0.00000000000E+00 0.  1.
         12    1    6    6    0    0 -0.67148037558E+02 -0.19450509030E+02  0.31226765563E+02  0.76565606750E+02  0.00000000000E+00 0. -1.
         -5    1    3    3    0  503 -0.12296093627E+02 -0.54126150816E+01  0.20716644866E+02  0.25134830316E+02  0.47000000000E+01 0.  1.
         13    1    4    4    0    0  0.29628305636E+02  0.64779956115E+02 -0.10332483147E+03  0.12550019923E+03  0.00000000000E+00 0. -1.
        -14    1    4    4    0    0  0.27899275788E+01 -0.65402680356E+01 -0.13195873553E+03  0.13215016717E+03  0.00000000000E+00 0.  1.
<mgrwt>
<rscale>  2 0.18412823E+03</rscale>
<asrwt>0</asrwt>
<pdfrwt beam="1">  1       21 0.39256195E-01 0.18419691E+03</pdfrwt>
<pdfrwt beam="2">  1       21 0.44143487E-01 0.18419691E+03</pdfrwt>
<totfact> 0.30975845E+04</totfact>
</mgrwt>
</event>
<event>
12    1  0.1026879E-001  0.2337877E+03  0.7546771E-02  0.1124065E+00
         21   -1    0    0  503  502  0.00000000000E+00  0.00000000000E+00  0.45673183631E+02  0.45673183631E+02  0.00000000000E+00 0. -1.
         21   -1    0    0  501  503 -0.00000000000E+00 -0.00000000000E+00 -0.13801710466E+04  0.13801710466E+04  0.00000000000E+00 0. -1.
          6    2    1    2  501    0 -0.19070100077E+02  0.15582139614E+03 -0.92896231250E+03  0.95792883357E+03  0.17324172683E+03 0.  0.
         24    2    3    3    0    0  0.31498690296E+02  0.15333553288E+03 -0.60625517043E+03  0.63124034032E+03  0.80094209773E+02 0.  0.
         -6    2    1    2    0  502  0.19070100077E+02 -0.15582139614E+03 -0.40553555042E+03  0.46791539662E+03  0.17274767589E+03 0.  0.
        -24    2    5    5    0    0  0.15552895302E+02 -0.16899752415E+03 -0.25454064636E+03  0.31623305707E+03  0.80064661436E+02 0.  0.
          5    1    3    3  501    0 -0.50568790373E+02  0.24858632620E+01 -0.32270714207E+03  0.32668849324E+03  0.47000000000E+01 0. -1.
        -11    1    4    4    0    0  0.41856531461E+02  0.99147884508E+02 -0.50072225571E+03  0.51215725084E+03  0.00000000000E+00 0.  1.
         12    1    4    4    0    0 -0.10357841164E+02  0.54187648374E+02 -0.10553291472E+03  0.11908308948E+03  0.00000000000E+00 0. -1.
         -5    1    5    5    0  502  0.35172047747E+01  0.13176128011E+02 -0.15099490406E+03  0.15168233955E+03  0.47000000000E+01 0.  1.
         11    1    6    6    0    0  0.19992248706E+02 -0.46598543980E+01 -0.48343409714E+02  0.52521324375E+02  0.00000000000E+00 0. -1.
        -12    1    6    6    0    0 -0.44393534047E+01 -0.16433766976E+03 -0.20619723665E+03  0.26371173269E+03  0.00000000000E+00 0.  1.
<mgrwt>
<rscale>  2 0.23369614E+03</rscale>
<asrwt>0</asrwt>
<pdfrwt beam="1">  1       21 0.70266453E-02 0.23378766E+03</pdfrwt>
<pdfrwt beam="2">  1       21 0.21233396E+00 0.23378766E+03</pdfrwt>
<totfact> 0.16343956E+04</totfact>
</mgrwt>
</event>
<event>
12    1  0.1026879E-001  0.2849791E+03  0.7546771E-02  0.1093179E+00
         21   -1    0    0  501  502  0.00000000000E+00  0.00000000000E+00  0.92219113145E+03  0.92219113145E+03  0.00000000000E+00 0. -1.
         21   -1    0    0  502  503 -0.00000000000E+00 -0.00000000000E+00 -0.17918780496E+03  0.17918780496E+03  0.00000000000E+00 0.  1.
         -6    2    1    2    0  503  0.51984749310E+02  0.22026293183E+03 -0.22516227817E+02  0.28453546664E+03  0.17098326807E+03 0.  0.
        -24    2    3    3    0    0  0.18181148978E+02  0.22638979989E+02 -0.49005139022E+01  0.83214049215E+02  0.77829848755E+02 0.  0.
          6    2    1    2  501    0 -0.51984749310E+02 -0.22026293183E+03  0.76551955431E+03  0.81684346977E+03  0.17319033687E+03 0.  0.
         24    2    5    5    0    0  0.25901914215E+02 -0.13338888251E+03  0.54526490901E+03  0.56754920274E+03  0.79591289709E+02 0.  0.
          5    1    5    5  501    0 -0.77886663525E+02 -0.86874049316E+02  0.22025464530E+03  0.24929426703E+03  0.47000000000E+01 0. -1.
        -11    1    6    6    0    0 -0.24103805673E+02 -0.77710196241E+02  0.24783943011E+03  0.26085293015E+03  0.00000000000E+00 0.  1.
         12    1    6    6    0    0  0.50005719888E+02 -0.55678686273E+02  0.29742547890E+03  0.30669627259E+03  0.00000000000E+00 0. -1.
         -5    1    3    3    0  503  0.33803600332E+02  0.19762395184E+03 -0.17615713914E+02  0.20132141742E+03  0.47000000000E+01 0.  1.
         13    1    4    4    0    0 -0.17942002201E+02  0.15997609665E+02  0.25859195280E+02  0.35306330006E+02  0.00000000000E+00 0. -1.
        -14    1    4    4    0    0  0.36123151179E+02  0.66413703241E+01 -0.30759709182E+02  0.47907719209E+02  0.00000000000E+00 0.  1.
<mgrwt>
<rscale>  2 0.28464450E+03</rscale>
<asrwt>0</asrwt>
<pdfrwt beam="1">  1       21 0.14187556E+00 0.28497906E+03</pdfrwt>
<pdfrwt beam="2">  1       21 0.27567355E-01 0.28497906E+03</pdfrwt>
<totfact> 0.40629811E+03</totfact>
</mgrwt>
</event>
<event>
12    1  0.1026879E-001  0.1986054E+03  0.7546771E-02  0.1152005E+00
         21   -1    0    0  501  502  0.00000000000E+00  0.00000000000E+00  0.47145703533E+03  0.47145703533E+03  0.00000000000E+00 0. -1.
         21   -1    0    0  502  503 -0.00000000000E+00 -0.00000000000E+00 -0.84080474861E+02  0.84080474861E+02  0.00000000000E+00 0. -1.
         -6    2    1    2    0  503  0.34611282318E+02  0.93848776861E+02  0.14801793728E+03  0.24769618935E+03  0.17157668455E+03 0.  0.
        -24    2    3    3    0    0  0.50319611848E+02  0.47700005040E+02  0.16502271549E+03  0.19585302934E+03  0.79489361914E+02 0.  0.
          6    2    1    2  501    0 -0.34611282318E+02 -0.93848776861E+02  0.23935862319E+03  0.30784132084E+03  0.16573531470E+03 0.  0.
         24    2    5    5    0    0 -0.11205984691E+02  0.14383163018E+02  0.12846563622E+03  0.15105705720E+03  0.77345752100E+02 0.  0.
          5    1    5    5  501    0 -0.23405297626E+02 -0.10823193988E+03  0.11089298697E+03  0.15678426364E+03  0.47000000000E+01 0. -1.
        -11    1    6    6    0    0 -0.31132114475E+02  0.33696350311E+02  0.50139101909E+02  0.67960150943E+02  0.00000000000E+00 0.  1.
         12    1    6    6    0    0  0.19926129784E+02 -0.19313187293E+02  0.78326534314E+02  0.83096906255E+02  0.00000000000E+00 0. -1.
         -5    1    3    3    0  503 -0.15708329530E+02  0.46148771820E+02 -0.17004778215E+02  0.51843160005E+02  0.47000000000E+01 0.  1.
         11    1    4    4    0    0 -0.14439572185E+02 -0.90391965817E+01  0.45206297234E+02  0.48309601834E+02  0.00000000000E+00 0. -1.
        -12    1    4    4    0    0  0.64759184033E+02  0.56739201622E+02  0.11981641826E+03  0.14754342751E+03  0.00000000000E+00 0.  1.
<mgrwt>
<rscale>  2 0.19733726E+03</rscale>
<asrwt>0</asrwt>
<pdfrwt beam="1">  1       21 0.72531850E-01 0.19860537E+03</pdfrwt>
<pdfrwt beam="2">  1       21 0.12935458E-01 0.19860537E+03</pdfrwt>
<totfact> 0.87626420E+04</totfact>
</mgrwt>
</event>
<event>
12    1  0.1026879E-001  0.2020373E+03  0.7546771E-02  0.1148119E+00
         21   -1    0    0  503  502  0.00000000000E+00  0.00000000000E+00  0.26632609349E+03  0.26632609349E+03  0.00000000000E+00 0.  1.
         21   -1    0    0  501  503 -0.00000000000E+00 -0.00000000000E+00 -0.18581941427E+03  0.18581941427E+03  0.00000000000E+00 0.  1.
          6    2    1    2  501    0 -0.64609432262E+02  0.79885999313E+02 -0.54794318478E+02  0.20933583694E+03  0.17396242027E+03 0.  0.
         24    2    3    3    0    0  0.23791676097E+02  0.67271175906E+02 -0.51041708474E+02  0.11983688828E+03  0.81634360595E+02 0.  0.
         -6    2    1    2    0  502  0.64609432262E+02 -0.79885999313E+02  0.13530099770E+03  0.24280967082E+03  0.17347629418E+03 0.  0.
        -24    2    5    5    0    0 -0.74910870557E+01  0.14043467718E+02  0.61596052013E+02  0.10325416687E+03  0.81326588410E+02 0.  0.
          5    1    3    3  501    0 -0.88401108359E+02  0.12614823407E+02 -0.37526100040E+01  0.89498948656E+02  0.47000000000E+01 0. -1.
        -11    1    4    4    0    0  0.10439365103E+02  0.81446375101E+02 -0.56427686741E+02  0.99632204591E+02  0.00000000000E+00 0.  1.
         12    1    4    4    0    0  0.13352310995E+02 -0.14175199194E+02  0.53859782678E+01  0.20204683690E+02  0.00000000000E+00 0. -1.
         -5    1    5    5    0  502  0.72100519318E+02 -0.93929467031E+02  0.73704945691E+02  0.13955550395E+03  0.47000000000E+01 0.  1.
         11    1    6    6    0    0  0.19875444042E+02 -0.10126896786E+02 -0.87783761012E+01  0.23971800127E+02  0.00000000000E+00 0. -1.
        -12    1    6    6    0    0 -0.27366531097E+02  0.24170364504E+02  0.70374428115E+02  0.79282366747E+02  0.00000000000E+00 0.  1.
<mgrwt>
<rscale>  2 0.20193262E+03</rscale>
<asrwt>0</asrwt>
<pdfrwt beam="1">  1       21 0.40973245E-01 0.20203731E+03</pdfrwt>
<pdfrwt beam="2">  1       21 0.28587602E-01 0.20203731E+03</pdfrwt>
<totfact> 0.66863060E+04</totfact>
</mgrwt>
</event>
<event>
12    1  0.1026879E-001  0.2054375E+03  0.7546771E-02  0.1145303E+00
         21   -1    0    0  501  502  0.00000000000E+00  0.00000000000E+00  0.15854777422E+04  0.15854777422E+04  0.00000000000E+00 0. -1.
         21   -1    0    0  502  503 -0.00000000000E+00 -0.00000000000E+00 -0.32193256403E+02  0.32193256403E+02  0.00000000000E+00 0.  1.
         -6    2    1    2    0  503 -0.10454364872E+03 -0.37195217316E+02  0.43816736961E+03  0.48378795316E+03  0.17247400138E+03 0.  0.
        -24    2    3    3    0    0  0.21072371590E+01 -0.33532683589E+02  0.12501245735E+03  0.15291650579E+03  0.81403083067E+02 0.  0.
          6    2    1    2  501    0  0.10454364872E+03  0.37195217316E+02  0.11151171162E+04  0.11338830454E+04  0.17289221862E+03 0.  0.
         24    2    5    5    0    0  0.50079839789E+02  0.89393323795E+02  0.69126540764E+03  0.70334465036E+03  0.79666032290E+02 0.  0.
          5    1    5    5  501    0  0.54463808928E+02 -0.52198106479E+02  0.42385170854E+03  0.43053839508E+03  0.47000000000E+01 0. -1.
        -11    1    6    6    0    0  0.27663647497E+02 -0.79397747411E+01  0.19667968578E+03  0.19877428459E+03  0.00000000000E+00 0.  1.
         12    1    6    6    0    0  0.22416192292E+02  0.97333098536E+02  0.49458572186E+03  0.50457036577E+03  0.00000000000E+00 0. -1.
         -5    1    3    3    0  503 -0.10665088588E+03 -0.36625337265E+01  0.31315491226E+03  0.33087144737E+03  0.47000000000E+01 0.  1.
         11    1    4    4    0    0 -0.72148504946E+01 -0.29570675450E+01  0.12036265494E+03  0.12061495355E+03  0.00000000000E+00 0. -1.
        -12    1    4    4    0    0  0.93220876537E+01 -0.30575616044E+02  0.46498024149E+01  0.32301552242E+02  0.00000000000E+00 0.  1.
<mgrwt>
<rscale>  2 0.20534951E+03</rscale>
<asrwt>0</asrwt>
<pdfrwt beam="1">  1       21 0.24391959E+00 0.20543753E+03</pdfrwt>
<pdfrwt beam="2">  1       21 0.49528099E-02 0.20543753E+03</pdfrwt>
<totfact> 0.19527599E+04</totfact>
</mgrwt>
</event>
<event>
12    1  0.1026879E-001  0.2041771E+03  0.7546771E-02  0.1146300E+00
         21   -1    0    0  501  502  0.00000000000E+00  0.00000000000E+00  0.34725497660E+03  0.34725497660E+03  0.00000000000E+00 0.  1.
         21   -1    0    0  502  503 -0.00000000000E+00 -0.00000000000E+00 -0.23453815287E+03  0.23453815287E+03  0.00000000000E+00 0.  1.
         -6    2    1    2    0  503  0.25162670060E+02 -0.10491982510E+03 -0.14699085140E+03  0.25143518650E+03  0.17312427024E+03 0.  0.
        -24    2    3    3    0    0 -0.19218149310E+01 -0.77139674105E+02 -0.13489124561E+02  0.11233052379E+03  0.80510666373E+02 0.  0.
          6    2    1    2  501    0 -0.25162670060E+02  0.10491982510E+03  0.25970767513E+03  0.33035794297E+03  0.17334060200E+03 0.  0.
         24    2    5    5    0    0 -0.10214361111E+02  0.52127659694E+02  0.39754636982E+02  0.10361603318E+03  0.79587845123E+02 0.  0.
          5    1    5    5  501    0 -0.14948308949E+02  0.52792165408E+02  0.21995303815E+03  0.22674190980E+03  0.47000000000E+01 0. -1.
        -11    1    6    6    0    0 -0.15734883266E+02  0.64114877460E+02  0.53193068549E+02  0.84780933026E+02  0.00000000000E+00 0.  1.
         12    1    6    6    0    0  0.55205221555E+01 -0.11987217767E+02 -0.13438431567E+02  0.18835100149E+02  0.00000000000E+00 0. -1.
         -5    1    3    3    0  503  0.27084484991E+02 -0.27780150997E+02 -0.13350172684E+03  0.13910466271E+03  0.47000000000E+01 0.  1.
         11    1    4    4    0    0 -0.40828355674E+02 -0.47302899603E+02 -0.72786192519E+01  0.62908641982E+02  0.00000000000E+00 0. -1.
        -12    1    4    4    0    0  0.38906540743E+02 -0.29836774502E+02 -0.62105053096E+01  0.49421881808E+02  0.00000000000E+00 0.  1.
<mgrwt>
<rscale>  2 0.20413119E+03</rscale>
<asrwt>0</asrwt>
<pdfrwt beam="1">  1       21 0.53423843E-01 0.20417711E+03</pdfrwt>
<pdfrwt beam="2">  1       21 0.36082793E-01 0.20417711E+03</pdfrwt>
<totfact> 0.24402766E+04</totfact>
</mgrwt>
</event>
<event>
12    1  0.1026879E-001  0.1928405E+03  0.7546771E-02  0.1157199E+00
         21   -1    0    0  501  502  0.00000000000E+00  0.00000000000E+00  0.21993572724E+03  0.21993572724E+03  0.00000000000E+00 0.  1.
         21   -1    0    0  502  503 -0.00000000000E+00 -0.00000000000E+00 -0.18543101637E+03  0.18543101637E+03  0.00000000000E+00 0. -1.
         -6    2    1    2    0  503  0.69214253606E+02  0.21429452106E+02 -0.51181546694E+02  0.19951696203E+03  0.17871103238E+03 0.  0.
        -24    2    3    3    0    0  0.10272484267E+03  0.12775115238E+02 -0.80085838695E+02  0.15418038494E+03  0.81500016385E+02 0.  0.
          6    2    1    2  501    0 -0.69214253606E+02 -0.21429452106E+02  0.85686257569E+02  0.20584978158E+03  0.17257509531E+03 0.  0.
         24    2    5    5    0    0 -0.41956268605E+02 -0.49742383280E+01 -0.21685336647E+02  0.93758207184E+02  0.80841054339E+02 0.  0.
          5    1    5    5  501    0 -0.27257985000E+02 -0.16455213778E+02  0.10737159422E+03  0.11209157440E+03  0.47000000000E+01 0. -1.
        -13    1    6    6    0    0 -0.25235371771E+01  0.21133085808E+02  0.21110548732E+02  0.29977171705E+02  0.00000000000E+00 0.  1.
         14    1    6    6    0    0 -0.39432731428E+02 -0.26107324136E+02 -0.42795885379E+02  0.63781035479E+02  0.00000000000E+00 0. -1.
         -5    1    3    3    0  503 -0.33510589062E+02  0.86543368678E+01  0.28904292002E+02  0.45336577088E+02  0.47000000000E+01 0.  1.
         11    1    4    4    0    0  0.35175423132E+02 -0.90386988985E+01  0.11692917175E+02  0.38154066393E+02  0.00000000000E+00 0. -1.
        -12    1    4    4    0    0  0.67549419536E+02  0.21813814137E+02 -0.91778755870E+02  0.11602631855E+03  0.00000000000E+00 0.  1.
<mgrwt>
<rscale>  2 0.19140657E+03</rscale>
<asrwt>0</asrwt>
<pdfrwt beam="1">  1       21 0.33836266E-01 0.19284052E+03</pdfrwt>
<pdfrwt beam="2">  1       21 0.28527849E-01 0.19284052E+03</pdfrwt>
<totfact> 0.98877977E+04</totfact>
</mgrwt>
</event>
<event>
12    1  0.1026879E-001  0.2505700E+03  0.7546771E-02  0.1113040E+00
         21   -1    0    0  503  502  0.00000000000E+00  0.00000000000E+00  0.31722905427E+03  0.31722905427E+03  0.00000000000E+00 0. -1.
         21   -1    0    0  501  503 -0.00000000000E+00 -0.00000000000E+00 -0.20643454078E+03  0.20643454078E+03  0.00000000000E+00 0.  1.
          6    2    1    2  501    0  0.94235183419E+02 -0.15383894283E+03  0.82215885566E+00  0.25057135059E+03  0.17389259808E+03 0.  0.
         24    2    3    3    0    0  0.74624752110E+02 -0.10142256474E+03 -0.66258467013E+02  0.16308451687E+03  0.79693066986E+02 0.  0.
         -6    2    1    2    0  502 -0.94235183419E+02  0.15383894283E+03  0.10997235463E+03  0.27309224446E+03  0.17302822045E+03 0.  0.
        -24    2    5    5    0    0 -0.10471423425E+03  0.12158023933E+03  0.14062308111E+03  0.22713583585E+03  0.77903860867E+02 0.  0.
          5    1    3    3  501    0  0.19610431309E+02 -0.52416378091E+02  0.67080625868E+02  0.87486833725E+02  0.47000000000E+01 0. -1.
        -13    1    4    4    0    0  0.69204346775E+01  0.85314672779E+00 -0.36112381218E+02  0.36779401200E+02  0.00000000000E+00 0.  1.
         14    1    4    4    0    0  0.67704317433E+02 -0.10227571147E+03 -0.30146085795E+02  0.12630511567E+03  0.00000000000E+00 0. -1.
         -5    1    5    5    0  502  0.10479050828E+02  0.32258703501E+02 -0.30650726480E+02  0.45956408602E+02  0.47000000000E+01 0.  1.
         13    1    6    6    0    0 -0.41556686566E+02  0.18887214738E+02  0.80202020832E+02  0.92282442666E+02  0.00000000000E+00 0. -1.
        -14    1    6    6    0    0 -0.63157547681E+02  0.10269302459E+03  0.60421060282E+02  0.13485339319E+03  0.00000000000E+00 0.  1.
<mgrwt>
<rscale>  2 0.25042009E+03</rscale>
<asrwt>0</asrwt>
<pdfrwt beam="1">  1       21 0.48804470E-01 0.25057000E+03</pdfrwt>
<pdfrwt beam="2">  1       21 0.31759160E-01 0.25057000E+03</pdfrwt>
<totfact> 0.37160279E+04</totfact>
</mgrwt>
</event>
<event>
12    1  0.1026879E-001  0.2627082E+03  0.7546771E-02  0.1105843E+00
         21   -1    0    0  501  502  0.00000000000E+00  0.00000000000E+00  0.18221920826E+04  0.18221920826E+04  0.00000000000E+00 0.  1.
         21   -1    0    0  502  503 -0.00000000000E+00 -0.00000000000E+00 -0.58352143118E+02  0.58352143118E+02  0.00000000000E+00 0.  1.
         -6    2    1    2    0  503  0.15511623466E+03  0.12076578255E+03  0.32308032385E+03  0.41640903909E+03  0.17427039820E+03 0.  0.
        -24    2    3    3    0    0  0.92789301478E+02  0.11054005037E+03  0.11627632848E+03  0.20012405418E+03  0.75501624429E+02 0.  0.
          6    2    1    2  501    0 -0.15511623466E+03 -0.12076578255E+03  0.14407596156E+04  0.14641351866E+04  0.17105015108E+03 0.  0.
         24    2    5    5    0    0 -0.77480043947E+02 -0.98956591477E+02  0.12181596133E+04  0.12273317450E+04  0.81454310047E+02 0.  0.
          5    1    5    5  501    0 -0.77636190715E+02 -0.21809191076E+02  0.22260000239E+03  0.23680344167E+03  0.47000000000E+01 0. -1.
        -11    1    6    6    0    0 -0.48163255656E+02 -0.53486756895E+02  0.34140965914E+03  0.34891415522E+03  0.00000000000E+00 0.  1.
         12    1    6    6    0    0 -0.29316788291E+02 -0.45469834582E+02  0.87674995411E+03  0.87841758974E+03  0.00000000000E+00 0. -1.
         -5    1    3    3    0  503  0.62326933184E+02  0.10225732184E+02  0.20680399537E+03  0.21628498491E+03  0.47000000000E+01 0.  1.
         11    1    4    4    0    0  0.44476832134E+02  0.10243084708E+03  0.95403312150E+02  0.14687429659E+03  0.00000000000E+00 0. -1.
        -12    1    4    4    0    0  0.48312469343E+02  0.81092032866E+01  0.20873016328E+02  0.53249757583E+02  0.00000000000E+00 0.  1.
<mgrwt>
<rscale>  2 0.26217531E+03</rscale>
<asrwt>0</asrwt>
<pdfrwt beam="1">  1       21 0.28033720E+00 0.26270819E+03</pdfrwt>
<pdfrwt beam="2">  1       21 0.89772542E-02 0.26270819E+03</pdfrwt>
<totfact> 0.40596141E+03</totfact>
</mgrwt>
</event>
<event>
12    1  0.1026879E-001  0.1860815E+03  0.7546771E-02  0.1162163E+00
         21   -1    0    0  501  502  0.00000000000E+00  0.00000000000E+00  0.10640040148E+03  0.10640040148E+03  0.00000000000E+00 0. -1.
         21   -1    0    0  502  503 -0.00000000000E+00 -0.00000000000E+00 -0.47729660925E+03  0.47729660925E+03  0.00000000000E+00 0. -1.
         -6    2    1    2    0  503  0.35162009374E+02  0.56559378989E+02 -0.35038122585E+03  0.39648804567E+03  0.17320634132E+03 0.  0.
        -24    2    3    3    0    0  0.38151060985E+02 -0.27840713055E+02 -0.23648491491E+03  0.25461919914E+03  0.81701975725E+02 0.  0.
          6    2    1    2  501    0 -0.35162009374E+02 -0.56559378989E+02 -0.20514981915E+02  0.18720896506E+03  0.17375558081E+03 0.  0.
         24    2    5    5    0    0 -0.69023256379E+01  0.27325379356E+02  0.22887184837E+02  0.88511951501E+02  0.80723130963E+02 0.  0.
          5    1    5    5  501    0 -0.28259683736E+02 -0.83884758346E+02 -0.43402166751E+02  0.98697013563E+02  0.47000000000E+01 0. -1.
        -13    1    6    6    0    0 -0.74100254494E+01 -0.26124066284E+02 -0.59187999391E+01  0.27792220298E+02  0.00000000000E+00 0.  1.
         14    1    6    6    0    0  0.50769981146E+00  0.53449445640E+02  0.28805984776E+02  0.60719731202E+02  0.00000000000E+00 0. -1.
         -5    1    3    3    0  503 -0.29890516114E+01  0.84400092044E+02 -0.11389631095E+03  0.14186884652E+03  0.47000000000E+01 0.  1.
         11    1    4    4    0    0  0.70580545407E+01 -0.43754406101E+01 -0.20323459934E+03  0.20340418625E+03  0.00000000000E+00 0. -1.
        -12    1    4    4    0    0  0.31093006445E+02 -0.23465272444E+02 -0.33250315563E+02  0.51215012894E+02  0.00000000000E+00 0.  1.
<mgrwt>
<rscale>  2 0.18595320E+03</rscale>
<asrwt>0</asrwt>
<pdfrwt beam="1">  1       21 0.16369292E-01 0.18608152E+03</pdfrwt>
<pdfrwt beam="2">  1       21 0.73430248E-01 0.18608152E+03</pdfrwt>
<totfact> 0.55903531E+04</totfact>
</mgrwt>
</event>
<event>
12    1  0.1026879E-001  0.2454135E+03  0.7546771E-02  0.1116308E+00
         21   -1    0    0  501  502  0.00000000000E+00  0.00000000000E+00  0.23015046997E+03  0.23015046997E+03  0.00000000000E+00 0. -1.
         21   -1    0    0  502  503 -0.00000000000E+00 -0.00000000000E+00 -0.57671584896E+03  0.57671584896E+03  0.00000000000E+00 0.  1.
         -6    2    1    2    0  503 -0.97866545797E+02  0.14288404267E+03 -0.47160240700E+03  0.53143566206E+03  0.17326662167E+03 0.  0.
        -24    2    3    3    0    0  0.12820222215E+02 -0.56458902140E+01 -0.13497236687E+03  0.14717718721E+03  0.56985528365E+02 0.  0.
          6    2    1    2  501    0  0.97866545797E+02 -0.14288404267E+03  0.12503702801E+03  0.27543065687E+03  0.17387949256E+03 0.  0.
         24    2    5    5    0    0  0.33086392086E+02 -0.13931641666E+03  0.13082847901E+03  0.21012501259E+03  0.80824852005E+02 0.  0.
          5    1    5    5  501    0  0.64780153711E+02 -0.35676260023E+01 -0.57914509984E+01  0.65305644280E+02  0.47000000000E+01 0. -1.
        -11    1    6    6    0    0 -0.37711380319E+01 -0.74515081835E+02  0.10964731945E+03  0.13262448328E+03  0.00000000000E+00 0.  1.
         12    1    6    6    0    0  0.36857530118E+02 -0.64801334828E+02  0.21181159553E+02  0.77500529301E+02  0.00000000000E+00 0. -1.
         -5    1    3    3    0  503 -0.11068676801E+03  0.14852993288E+03 -0.33663004013E+03  0.38425847485E+03  0.47000000000E+01 0.  1.
         13    1    4    4    0    0 -0.76735759623E+01 -0.12385919134E+02 -0.12008429538E+03  0.12096500633E+03  0.00000000000E+00 0. -1.
        -14    1    4    4    0    0  0.20493798178E+02  0.67400289196E+01 -0.14888071490E+02  0.26212180876E+02  0.00000000000E+00 0.  1.
<mgrwt>
<rscale>  2 0.24530497E+03</rscale>
<asrwt>0</asrwt>
<pdfrwt beam="1">  1       21 0.35407765E-01 0.24541350E+03</pdfrwt>
<pdfrwt beam="2">  1       21 0.88725515E-01 0.24541350E+03</pdfrwt>
<totfact> 0.80636030E+03</totfact>
</mgrwt>
</event>
<event>
12    1  0.1026879E-001  0.1783692E+03  0.7546771E-02  0.1169626E+00
         21   -1    0    0  503  502  0.00000000000E+00  0.00000000000E+00  0.12607432719E+03  0.12607432719E+03  0.00000000000E+00 0.  1.
         21   -1    0    0  501  503 -0.00000000000E+00 -0.00000000000E+00 -0.26921429962E+03  0.26921429962E+03  0.00000000000E+00 0.  1.
          6    2    1    2  501    0 -0.20189757068E+01  0.46599775751E+02 -0.19983901533E+02  0.17853306615E+03  0.17116975207E+03 0.  0.
         24    2    3    3    0    0 -0.52794187654E+02  0.73857343887E+02 -0.27610971230E+02  0.12021189194E+03  0.73799727204E+02 0.  0.
         -6    2    1    2    0  502  0.20189757068E+01 -0.46599775751E+02 -0.12315607090E+03  0.21675556066E+03  0.17216253923E+03 0.  0.
        -24    2    5    5    0    0 -0.42146365148E+02  0.23787787736E+02 -0.74430980608E+02  0.12031277529E+03  0.81197401945E+02 0.  0.
          5    1    3    3  501    0  0.50775211948E+02 -0.27257568136E+02  0.76270696969E+01  0.58321174209E+02  0.47000000000E+01 0. -1.
        -13    1    4    4    0    0 -0.51995201467E+02  0.55317709837E+02 -0.50172633089E+02  0.90999137954E+02  0.00000000000E+00 0.  1.
         14    1    4    4    0    0 -0.79898618740E+00  0.18539634050E+02  0.22561661859E+02  0.29212753986E+02  0.00000000000E+00 0. -1.
         -5    1    5    5    0  502  0.44165340855E+02 -0.70387563487E+02 -0.48725090290E+02  0.96442785372E+02  0.47000000000E+01 0.  1.
         11    1    6    6    0    0 -0.47230729464E+02 -0.16136738959E+02 -0.58824966892E+02  0.77146049022E+02  0.00000000000E+00 0. -1.
        -12    1    6    6    0    0  0.50843643161E+01  0.39924526696E+02 -0.15606013716E+02  0.43166726266E+02  0.00000000000E+00 0.  1.
<mgrwt>
<rscale>  2 0.17812916E+03</rscale>
<asrwt>0</asrwt>
<pdfrwt beam="1">  1       21 0.19396051E-01 0.17836915E+03</pdfrwt>
<pdfrwt beam="2">  1       21 0.41417584E-01 0.17836915E+03</pdfrwt>
<totfact> 0.13785581E+05</totfact>
</mgrwt>
</event>
<event>
12    1  0.1026879E-001  0.1917963E+03  0.7546771E-02  0.1157730E+00
         21   -1    0    0  501  502  0.00000000000E+00  0.00000000000E+00  0.42590423339E+02  0.42590423339E+02  0.00000000000E+00 0.  1.
         21   -1    0    0  502  503 -0.00000000000E+00 -0.00000000000E+00 -0.10049232832E+04  0.10049232832E+04  0.00000000000E+00 0.  1.
         -6    2    1    2    0  503 -0.19538688752E+02 -0.76499942033E+02 -0.69346364185E+03  0.71949818331E+03  0.17479076556E+03 0.  0.
        -24    2    3    3    0    0 -0.78657312777E+02 -0.38872397961E+02 -0.38776364603E+03  0.40583367907E+03  0.81500268111E+02 0.  0.
          6    2    1    2  501    0  0.19538688752E+02  0.76499942033E+02 -0.26886921805E+03  0.32801552327E+03  0.17049787565E+03 0.  0.
         24    2    5    5    0    0 -0.32837672375E+00 -0.21678752807E+02 -0.16035488119E+03  0.18026164780E+03  0.79438640423E+02 0.  0.
          5    1    5    5  501    0  0.19867065476E+02  0.98178694840E+02 -0.10851433685E+03  0.14775387546E+03  0.47000000000E+01 0. -1.
        -11    1    6    6    0    0 -0.57952860179E+01 -0.45833796520E+02 -0.54020139722E+02  0.71080923876E+02  0.00000000000E+00 0.  1.
         12    1    6    6    0    0  0.54669092942E+01  0.24155043713E+02 -0.10633474147E+03  0.10918072393E+03  0.00000000000E+00 0. -1.
         -5    1    3    3    0  503  0.59118624025E+02 -0.37627544072E+02 -0.30569999582E+03  0.31366450424E+03  0.47000000000E+01 0.  1.
         11    1    4    4    0    0 -0.89867094241E+02 -0.35959167552E+02 -0.25809277814E+03  0.27564658258E+03  0.00000000000E+00 0. -1.
        -12    1    4    4    0    0  0.11209781464E+02 -0.29132304083E+01 -0.12967086789E+03  0.13018709649E+03  0.00000000000E+00 0.  1.
<mgrwt>
<rscale>  2 0.19081275E+03</rscale>
<asrwt>0</asrwt>
<pdfrwt beam="1">  1       21 0.65523735E-02 0.19179628E+03</pdfrwt>
<pdfrwt beam="2">  1       21 0.15460356E+00 0.19179628E+03</pdfrwt>
<totfact> 0.46802451E+04</totfact>
</mgrwt>
</event>
<event>
12    1  0.1026879E-001  0.2327650E+03  0.7546771E-02  0.1125551E+00
         21   -1    0    0  501  502  0.00000000000E+00  0.00000000000E+00  0.48507582149E+03  0.48507582149E+03  0.00000000000E+00 0. -1.
         21   -1    0    0  502  503 -0.00000000000E+00 -0.00000000000E+00 -0.26382650114E+03  0.26382650114E+03  0.00000000000E+00 0.  1.
         -6    2    1    2    0  503  0.14916972422E+03  0.95358098131E+01 -0.17633109106E+03  0.28819661349E+03  0.17211070873E+03 0.  0.
        -24    2    3    3    0    0  0.90876957899E+02 -0.21558694378E+02 -0.18386986738E+03  0.22153449573E+03  0.80907390813E+02 0.  0.
          6    2    1    2  501    0 -0.14916972422E+03 -0.95358098131E+01  0.39758041142E+03  0.46070570913E+03  0.17842933780E+03 0.  0.
         24    2    5    5    0    0 -0.55609031352E+02  0.27127047156E+01  0.72440302497E+02  0.12211774451E+03  0.81027297639E+02 0.  0.
          5    1    5    5  501    0 -0.93560692870E+02 -0.12248514529E+02  0.32514010892E+03  0.33858796462E+03  0.47000000000E+01 0. -1.
        -13    1    6    6    0    0 -0.27982841537E+02  0.39972214124E+02  0.21790557994E+02  0.53438242301E+02  0.00000000000E+00 0.  1.
         14    1    6    6    0    0 -0.27626189814E+02 -0.37259509408E+02  0.50649744503E+02  0.68679502206E+02  0.00000000000E+00 0. -1.
         -5    1    3    3    0  503  0.58292766322E+02  0.31094504191E+02  0.75387763144E+01  0.66662117763E+02  0.47000000000E+01 0.  1.
         11    1    4    4    0    0  0.28203139156E+02  0.72931565232E+01 -0.46594616394E+01  0.29501148674E+02  0.00000000000E+00 0. -1.
        -12    1    4    4    0    0  0.62673818744E+02 -0.28851850901E+02 -0.17921040574E+03  0.19203334706E+03  0.00000000000E+00 0.  1.
<mgrwt>
<rscale>  2 0.23155374E+03</rscale>
<asrwt>0</asrwt>
<pdfrwt beam="1">  1       21 0.74627049E-01 0.23276505E+03</pdfrwt>
<pdfrwt beam="2">  1       21 0.40588692E-01 0.23276505E+03</pdfrwt>
<totfact> 0.91556995E+03</totfact>
</mgrwt>
</event>
<event>
12    1  0.1026879E-001  0.2562744E+03  0.7546771E-02  0.1112000E+00
         21   -1    0    0  503  502  0.00000000000E+00  0.00000000000E+00  0.36841683667E+03  0.36841683667E+03  0.00000000000E+00 0.  1.
         21   -1    0    0  501  503 -0.00000000000E+00 -0.00000000000E+00 -0.19007370485E+03  0.19007370485E+03  0.00000000000E+00 0.  1.
          6    2    1    2  501    0  0.16470916235E+03  0.26819644983E+02  0.18371975351E+03  0.30215978254E+03  0.17233451435E+03 0.  0.
         24    2    3    3    0    0  0.85929947239E+02  0.40837726610E+02  0.18320693686E+03  0.22200353309E+03  0.81664626637E+02 0.  0.
         -6    2    1    2    0  502 -0.16470916235E+03 -0.26819644983E+02 -0.53766216857E+01  0.25633075899E+03  0.19449459742E+03 0.  0.
        -24    2    5    5    0    0 -0.17562953320E+03  0.32840591885E+02  0.14591318618E+02  0.19230414731E+03  0.69596990509E+02 0.  0.
          5    1    3    3  501    0  0.78779215107E+02 -0.14018081627E+02  0.51281665416E+00  0.80156249452E+02  0.47000000000E+01 0. -1.
        -13    1    4    4    0    0  0.77883453313E+02  0.61720254739E+00  0.83483444669E+02  0.11417398466E+03  0.00000000000E+00 0.  1.
         14    1    4    4    0    0  0.80464939262E+01  0.40220524063E+02  0.99723492187E+02  0.10782954843E+03  0.00000000000E+00 0. -1.
         -5    1    5    5    0  502  0.10920370850E+02 -0.59660236868E+02 -0.19967940304E+02  0.64026611675E+02  0.47000000000E+01 0.  1.
         13    1    6    6    0    0 -0.51539519749E+02  0.11012984268E+02  0.36916718411E+02  0.64346344237E+02  0.00000000000E+00 0. -1.
        -14    1    6    6    0    0 -0.12409001345E+03  0.21827607617E+02 -0.22325399793E+02  0.12795780307E+03  0.00000000000E+00 0.  1.
<mgrwt>
<rscale>  2 0.25207644E+03</rscale>
<asrwt>0</asrwt>
<pdfrwt beam="1">  1       21 0.56679513E-01 0.25627436E+03</pdfrwt>
<pdfrwt beam="2">  1       21 0.29242109E-01 0.25627436E+03</pdfrwt>
<totfact> 0.31773491E+04</totfact>
</mgrwt>
</event>
<event>
12    1  0.1026879E-001  0.2548871E+03  0.7546771E-02  0.1110357E+00
         21   -1    0    0  501  502  0.00000000000E+00  0.00000000000E+00  0.83466162601E+02  0.83466162601E+02  0.00000000000E+00 0. -1.
         21   -1    0    0  502  503 -0.00000000000E+00 -0.00000000000E+00 -0.85865312968E+03  0.85865312968E+03  0.00000000000E+00 0.  1.
         -6    2    1    2    0  503 -0.78623651578E+02  0.16923262839E+03 -0.24220122741E+03  0.35160900234E+03  0.17362630812E+03 0.  0.
        -24    2    3    3    0    0 -0.95056600511E+02  0.49268804699E+02 -0.12081788542E+03  0.18009408603E+03  0.79835743676E+02 0.  0.
          6    2    1    2  501    0  0.78623651578E+02 -0.16923262839E+03 -0.53298573966E+03  0.59051028993E+03  0.17264774175E+03 0.  0.
         24    2    5    5    0    0  0.80921080212E+02 -0.19564513723E+03 -0.47893950301E+03  0.53012830174E+03  0.82630066058E+02 0.  0.
          5    1    5    5  501    0 -0.22974286340E+01  0.26412508843E+02 -0.54046236653E+02  0.60381988193E+02  0.47000000000E+01 0. -1.
        -11    1    6    6    0    0  0.84030406431E+02 -0.12227491890E+03 -0.37109893382E+03  0.39965820857E+03  0.00000000000E+00 0.  1.
         12    1    6    6    0    0 -0.31093262184E+01 -0.73370218337E+02 -0.10784056919E+03  0.13047009317E+03  0.00000000000E+00 0. -1.
         -5    1    3    3    0  503  0.16432948933E+02  0.11996382369E+03 -0.12138334199E+03  0.17151491631E+03  0.47000000000E+01 0.  1.
         13    1    4    4    0    0 -0.32674695504E+02 -0.20946335085E+02 -0.26564147777E+02  0.47032314709E+02  0.00000000000E+00 0. -1.
        -14    1    4    4    0    0 -0.62381905007E+02  0.70215139784E+02 -0.94253737644E+02  0.13306177132E+03  0.00000000000E+00 0.  1.
<mgrwt>
<rscale>  2 0.25472059E+03</rscale>
<asrwt>0</asrwt>
<pdfrwt beam="1">  1       21 0.12840947E-01 0.25488714E+03</pdfrwt>
<pdfrwt beam="2">  1       21 0.13210049E+00 0.25488714E+03</pdfrwt>
<totfact> 0.20806686E+04</totfact>
</mgrwt>
</event>
<event>
12    1  0.1026879E-001  0.1921814E+03  0.7546771E-02  0.1156969E+00
         21   -1    0    0  501  502  0.00000000000E+00  0.00000000000E+00  0.27007467158E+03  0.27007467158E+03  0.00000000000E+00 0.  1.
         21   -1    0    0  502  503 -0.00000000000E+00 -0.00000000000E+00 -0.38047837438E+03  0.38047837438E+03  0.00000000000E+00 0.  1.
         -6    2    1    2    0  503  0.61458629070E+02  0.57189694977E+02 -0.31621332945E+03  0.36896595681E+03  0.17057896490E+03 0.  0.
        -24    2    3    3    0    0  0.15794672104E+01 -0.16894288016E+02 -0.21371498852E+03  0.22895899108E+03  0.80375441472E+02 0.  0.
          6    2    1    2  501    0 -0.61458629070E+02 -0.57189694977E+02  0.20580962665E+03  0.28158708914E+03  0.17287527889E+03 0.  0.
         24    2    5    5    0    0  0.17207272062E+02 -0.64754002649E+02  0.16035669603E+03  0.19029852659E+03  0.77524758559E+02 0.  0.
          5    1    5    5  501    0 -0.78665901132E+02  0.75643076719E+01  0.45452930629E+02  0.91288562559E+02  0.47000000000E+01 0. -1.
        -13    1    6    6    0    0 -0.27195837467E+02 -0.41706751201E+02  0.10148662113E+03  0.11304247405E+03  0.00000000000E+00 0.  1.
         14    1    6    6    0    0  0.44403109528E+02 -0.23047251447E+02  0.58870074900E+02  0.77256052538E+02  0.00000000000E+00 0. -1.
         -5    1    3    3    0  503  0.59879161860E+02  0.74083982993E+02 -0.10249834093E+03  0.14000696573E+03  0.47000000000E+01 0.  1.
         11    1    4    4    0    0 -0.18479697390E+02 -0.40857052225E+02 -0.80692991141E+02  0.92315528225E+02  0.00000000000E+00 0. -1.
        -12    1    4    4    0    0  0.20059164601E+02  0.23962764209E+02 -0.13302199738E+03  0.13664346285E+03  0.00000000000E+00 0.  1.
<mgrwt>
<rscale>  2 0.19166355E+03</rscale>
<asrwt>0</asrwt>
<pdfrwt beam="1">  1       21 0.41549950E-01 0.19218139E+03</pdfrwt>
<pdfrwt beam="2">  1       21 0.58535134E-01 0.19218139E+03</pdfrwt>
<totfact> 0.15242635E+04</totfact>
</mgrwt>
</event>
<event>
12    1  0.1026879E-001  0.1760523E+03  0.7546771E-02  0.1171828E+00
         21   -1    0    0  501  502  0.00000000000E+00  0.00000000000E+00  0.47997422013E+03  0.47997422013E+03  0.00000000000E+00 0. -1.
         21   -1    0    0  502  503 -0.00000000000E+00 -0.00000000000E+00 -0.64627728654E+02  0.64627728654E+02  0.00000000000E+00 0. -1.
         -6    2    1    2    0  503 -0.18678722983E+02  0.23169723002E+02  0.22566342229E+03  0.28621389761E+03  0.17351854157E+03 0.  0.
        -24    2    3    3    0    0 -0.72695837247E+02  0.87810389481E+01  0.19254887307E+03  0.22107139050E+03  0.80222813338E+02 0.  0.
          6    2    1    2  501    0  0.18678722983E+02 -0.23169723002E+02  0.18968306919E+03  0.25838805117E+03  0.17291323691E+03 0.  0.
         24    2    5    5    0    0  0.30631492312E+01 -0.41438752493E+02  0.27931510500E+02  0.94793245879E+02  0.80492466070E+02 0.  0.
          5    1    5    5  501    0  0.15615573752E+02  0.18269029492E+02  0.16175155869E+03  0.16359480529E+03  0.47000000000E+01 0. -1.
        -13    1    6    6    0    0 -0.36093584160E+02 -0.18643530166E+02  0.28253949306E+02  0.49483468815E+02  0.00000000000E+00 0.  1.
         14    1    6    6    0    0  0.39156733391E+02 -0.22795222327E+02 -0.32243880605E+00  0.45309777064E+02  0.00000000000E+00 0. -1.
         -5    1    3    3    0  503  0.54017114263E+02  0.14388684054E+02  0.33114549217E+02  0.65142507105E+02  0.47000000000E+01 0.  1.
         13    1    4    4    0    0 -0.13165322114E+02  0.72283904938E+01 -0.41284343012E+01  0.15576241693E+02  0.00000000000E+00 0. -1.
        -14    1    4    4    0    0 -0.59530515133E+02  0.15526484543E+01  0.19667730737E+03  0.20549514881E+03  0.00000000000E+00 0.  1.
<mgrwt>
<rscale>  2 0.17590298E+03</rscale>
<asrwt>0</asrwt>
<pdfrwt beam="1">  1       21 0.73842185E-01 0.17605231E+03</pdfrwt>
<pdfrwt beam="2">  1       21 0.99427278E-02 0.17605231E+03</pdfrwt>
<totfact> 0.13572405E+05</totfact>
</mgrwt>
</event>
<event>
12    1  0.1026879E-001  0.1857396E+03  0.7546771E-02  0.1162869E+00
         21   -1    0    0  503  502  0.00000000000E+00  0.00000000000E+00  0.39651829882E+03  0.39651829882E+03  0.00000000000E+00 0. -1.
         21   -1    0    0  501  503 -0.00000000000E+00 -0.00000000000E+00 -0.21835021940E+03  0.21835021940E+03  0.00000000000E+00 0. -1.
          6    2    1    2  501    0  0.60480525180E+02 -0.27770460235E+02 -0.15048171203E+03  0.23736368441E+03  0.17107799575E+03 0.  0.
         24    2    3    3    0    0  0.93337033789E+02  0.20147471976E+02 -0.90846731087E+02  0.15397244183E+03  0.79603151895E+02 0.  0.
         -6    2    1    2    0  502 -0.60480525180E+02  0.27770460235E+02  0.32864979145E+03  0.37750483382E+03  0.17340738666E+03 0.  0.
        -24    2    5    5    0    0 -0.55013847862E+02  0.81653047124E+02  0.26599366284E+03  0.29455244878E+03  0.79465545061E+02 0.  0.
          5    1    3    3  501    0 -0.32856508609E+02 -0.47917932211E+02 -0.59634980944E+02  0.83391242571E+02  0.47000000000E+01 0. -1.
        -13    1    4    4    0    0  0.86745472251E+02  0.41331566092E+02 -0.52051476549E+02  0.10928143265E+03  0.00000000000E+00 0.  1.
         14    1    4    4    0    0  0.65915615383E+01 -0.21184094116E+02 -0.38795254538E+02  0.44691009182E+02  0.00000000000E+00 0. -1.
         -5    1    5    5    0  502 -0.54666773185E+01 -0.53882586889E+02  0.62656128611E+02  0.82952385037E+02  0.47000000000E+01 0.  1.
         11    1    6    6    0    0 -0.36807492953E+01  0.72299512269E+02  0.17936535827E+03  0.19342362611E+03  0.00000000000E+00 0. -1.
        -12    1    6    6    0    0 -0.51333098567E+02  0.93535348551E+01  0.86628304562E+02  0.10112882267E+03  0.00000000000E+00 0.  1.
<mgrwt>
<rscale>  2 0.18519403E+03</rscale>
<asrwt>0</asrwt>
<pdfrwt beam="1">  1       21 0.61002815E-01 0.18573964E+03</pdfrwt>
<pdfrwt beam="2">  1       21 0.33592342E-01 0.18573964E+03</pdfrwt>
<totfact> 0.21429618E+04</totfact>
</mgrwt>
</event>
<event>
12    1  0.1026879E-001  0.2923573E+03  0.7546771E-02  0.1089384E+00
         21   -1    0    0  501  502  0.00000000000E+00  0.00000000000E+00  0.99558412551E+03  0.99558412551E+03  0.00000000000E+00 0.  1.
         21   -1    0    0  502  503 -0.00000000000E+00 -0.00000000000E+00 -0.90099851716E+02  0.90099851716E+02  0.00000000000E+00 0. -1.
         -6    2    1    2    0  503  0.77461764934E+01  0.23366611376E+03  0.57993759365E+03  0.64946164557E+03  0.17553620871E+03 0.  0.
        -24    2    3    3    0    0 -0.43617919218E+02  0.21692251727E+03  0.43495264650E+03  0.49466712612E+03  0.80955911406E+02 0.  0.
          6    2    1    2  501    0 -0.77461764934E+01 -0.23366611376E+03  0.32554668014E+03  0.43622233165E+03  0.17219008599E+03 0.  0.
         24    2    5    5    0    0 -0.25674059416E+02 -0.19465885136E+03  0.32991542555E+03  0.39281551834E+03  0.83118094849E+02 0.  0.
          5    1    5    5  501    0  0.17927882922E+02 -0.39007262396E+02 -0.43687454092E+01  0.43406813315E+02  0.47000000000E+01 0. -1.
        -11    1    6    6    0    0 -0.63240597163E+01 -0.86327395657E+02  0.22373744758E+03  0.23989759987E+03  0.00000000000E+00 0.  1.
         12    1    6    6    0    0 -0.19349999699E+02 -0.10833145571E+03  0.10617797796E+03  0.15291791847E+03  0.00000000000E+00 0. -1.
         -5    1    3    3    0  503  0.51364095711E+02  0.16743596492E+02  0.14498494715E+03  0.15479451945E+03  0.47000000000E+01 0.  1.
         13    1    4    4    0    0 -0.18443919637E+01  0.17248156310E+03  0.29026236318E+03  0.33764705073E+03  0.00000000000E+00 0. -1.
        -14    1    4    4    0    0 -0.41773527254E+02  0.44440954167E+02  0.14469028332E+03  0.15702007538E+03  0.00000000000E+00 0.  1.
<mgrwt>
<rscale>  2 0.29185688E+03</rscale>
<asrwt>0</asrwt>
<pdfrwt beam="1">  1       21 0.15316678E+00 0.29235734E+03</pdfrwt>
<pdfrwt beam="2">  1       21 0.13861516E-01 0.29235734E+03</pdfrwt>
<totfact> 0.12047084E+04</totfact>
</mgrwt>
</event>
<event>
12    1  0.1026879E-001  0.1857386E+03  0.7546771E-02  0.1162826E+00
         21   -1    0    0  501  502  0.00000000000E+00  0.00000000000E+00  0.95963349315E+03  0.95963349315E+03  0.00000000000E+00 0. -1.
         21   -1    0    0  502  503 -0.00000000000E+00 -0.00000000000E+00 -0.37503227750E+02  0.37503227750E+02  0.00000000000E+00 0. -1.
         -6    2    1    2    0  503 -0.61393087163E+02 -0.45139269852E+01  0.34541670174E+03  0.39125113439E+03  0.17313366408E+03 0.  0.
        -24    2    3    3    0    0 -0.27057971895E+02 -0.20874942127E+01  0.63282348929E+02  0.10698599275E+03  0.81883181939E+02 0.  0.
          6    2    1    2  501    0  0.61393087163E+02  0.45139269852E+01  0.57671356367E+03  0.60588558651E+03  0.17524075649E+03 0.  0.
         24    2    5    5    0    0  0.86132175286E+02  0.50049947658E+02  0.47127794075E+03  0.48830875104E+03  0.80117351571E+02 0.  0.
          5    1    5    5  501    0 -0.24739088124E+02 -0.45536020673E+02  0.10543562291E+03  0.11757683547E+03  0.47000000000E+01 0. -1.
        -13    1    6    6    0    0  0.32028790445E+02  0.64182418825E+02  0.25157144129E+03  0.26159781417E+03  0.00000000000E+00 0.  1.
         14    1    6    6    0    0  0.54103384842E+02 -0.14132471167E+02  0.21970649946E+03  0.22671093687E+03  0.00000000000E+00 0. -1.
         -5    1    3    3    0  503 -0.34335115268E+02 -0.24264327725E+01  0.28213435281E+03  0.28426514164E+03  0.47000000000E+01 0.  1.
         11    1    4    4    0    0 -0.37781225934E+02  0.31244435681E+02  0.24745765438E+02  0.54918018002E+02  0.00000000000E+00 0. -1.
        -12    1    4    4    0    0  0.10723254039E+02 -0.33331929894E+02  0.38536583491E+02  0.52067974752E+02  0.00000000000E+00 0.  1.
<mgrwt>
<rscale>  2 0.18523988E+03</rscale>
<asrwt>0</asrwt>
<pdfrwt beam="1">  1       21 0.14763590E+00 0.18573855E+03</pdfrwt>
<pdfrwt beam="2">  1       21 0.57697281E-02 0.18573855E+03</pdfrwt>
<totfact> 0.65937095E+04</totfact>
</mgrwt>
</event>
<event>
12    1  0.1026879E-001  0.1955991E+03  0.7546771E-02  0.1153583E+00
         21   -1    0    0  503  502  0.00000000000E+00  0.00000000000E+00  0.63103323721E+03  0.63103323721E+03  0.00000000000E+00 0.  1.
         21   -1    0    0  501  503 -0.00000000000E+00 -0.00000000000E+00 -0.10290661534E+03  0.10290661534E+03  0.00000000000E+00 0. -1.
          6    2    1    2  501    0 -0.67127230768E+02 -0.62370060286E+02  0.28684260268E+02  0.19769118890E+03  0.17280894030E+03 0.  0.
         24    2    3    3    0    0  0.15008832161E+02 -0.56903858950E+02  0.50973677294E+02  0.11227971249E+03  0.80901816132E+02 0.  0.
         -6    2    1    2    0  502  0.67127230768E+02  0.62370060286E+02  0.49944236161E+03  0.53624866366E+03  0.17240611119E+03 0.  0.
        -24    2    5    5    0    0 -0.29928420916E+02  0.39300448997E+02  0.25811147370E+03  0.27506923501E+03  0.81248480138E+02 0.  0.
          5    1    3    3  501    0 -0.82136062929E+02 -0.54662013354E+01 -0.22289417026E+02  0.85411476406E+02  0.47000000000E+01 0. -1.
        -11    1    4    4    0    0  0.94533553826E+01 -0.24407868419E+02 -0.20711075515E+02  0.33377516650E+02  0.00000000000E+00 0.  1.
         12    1    4    4    0    0  0.55554767784E+01 -0.32495990531E+02  0.71684752809E+02  0.78902195839E+02  0.00000000000E+00 0. -1.
         -5    1    5    5    0  502  0.97055651684E+02  0.23069611289E+02  0.24133088791E+03  0.26117942864E+03  0.47000000000E+01 0.  1.
         13    1    6    6    0    0  0.10693061952E+02 -0.57934106562E+01  0.25842910577E+01  0.12433171004E+02  0.00000000000E+00 0. -1.
        -14    1    6    6    0    0 -0.40621482868E+02  0.45093859653E+02  0.25552718264E+03  0.26263606401E+03  0.00000000000E+00 0.  1.
<mgrwt>
<rscale>  2 0.19551012E+03</rscale>
<asrwt>0</asrwt>
<pdfrwt beam="1">  1       21 0.97082034E-01 0.19559913E+03</pdfrwt>
<pdfrwt beam="2">  1       21 0.15831787E-01 0.19559913E+03</pdfrwt>
<totfact> 0.31245961E+04</totfact>
</mgrwt>
</event>
<event>
12    1  0.1026879E-001  0.2526460E+03  0.7546771E-02  0.1112111E+00
         21   -1    0    0  503  502  0.00000000000E+00  0.00000000000E+00  0.35083828711E+03  0.35083828711E+03  0.00000000000E+00 0. -1.
         21   -1    0    0  501  503 -0.00000000000E+00 -0.00000000000E+00 -0.29885014654E+03  0.29885014654E+03  0.00000000000E+00 0. -1.
          6    2    1    2  501    0  0.79442868192E+02  0.16381050490E+03 -0.17912750692E+03  0.30727869732E+03  0.17084637329E+03 0.  0.
         24    2    3    3    0    0 -0.32565429683E+01  0.47713612276E+02 -0.23621054918E+02  0.96276262026E+02  0.80149675768E+02 0.  0.
         -6    2    1    2    0  502 -0.79442868192E+02 -0.16381050490E+03  0.23111564749E+03  0.34240973633E+03  0.17517115687E+03 0.  0.
        -24    2    5    5    0    0 -0.81593459477E+01 -0.62432023753E+02  0.35296232230E+02  0.11062045622E+03  0.83825585641E+02 0.  0.
          5    1    3    3  501    0  0.82699411160E+02  0.11609689263E+03 -0.15550645200E+03  0.21100243529E+03  0.47000000000E+01 0. -1.
        -11    1    4    4    0    0  0.26640049066E+02  0.22928270898E+02  0.17883798249E+02  0.39436379910E+02  0.00000000000E+00 0.  1.
         12    1    4    4    0    0 -0.29896592034E+02  0.24785341378E+02 -0.41504853167E+02  0.56839882116E+02  0.00000000000E+00 0. -1.
         -5    1    5    5    0  502 -0.71283522244E+02 -0.10137848115E+03  0.19581941526E+03  0.23178928012E+03  0.47000000000E+01 0.  1.
         11    1    6    6    0    0  0.18523753854E+02 -0.64088443282E+02  0.46826330452E+02  0.81505602524E+02  0.00000000000E+00 0. -1.
        -12    1    6    6    0    0 -0.26683099801E+02  0.16564195288E+01 -0.11530098222E+02  0.29114853695E+02  0.00000000000E+00 0.  1.
<mgrwt>
<rscale>  2 0.25189787E+03</rscale>
<asrwt>0</asrwt>
<pdfrwt beam="1">  1       21 0.53975121E-01 0.25264597E+03</pdfrwt>
<pdfrwt beam="2">  1       21 0.45976946E-01 0.25264597E+03</pdfrwt>
<totfact> 0.14212306E+04</totfact>
</mgrwt>
</event>
<event>
12    1  0.1026879E-001  0.2651958E+03  0.7546771E-02  0.1104536E+00
         21   -1    0    0  503  502  0.00000000000E+00  0.00000000000E+00  0.47699217370E+03  0.47699217370E+03  0.00000000000E+00 0. -1.
         21   -1    0    0  501  503 -0.00000000000E+00 -0.00000000000E+00 -0.23298374525E+03  0.23298374525E+03  0.00000000000E+00 0.  1.
          6    2    1    2  501    0 -0.25252960987E+02 -0.19688542453E+03 -0.95791004685E+02  0.27893943581E+03  0.17096698465E+03 0.  0.
         24    2    3    3    0    0 -0.40149903587E+02 -0.21149294235E+03 -0.60716378330E+02  0.23785880911E+03  0.80926232180E+02 0.  0.
         -6    2    1    2    0  502  0.25252960987E+02  0.19688542453E+03  0.33979943314E+03  0.43103648314E+03  0.17586134483E+03 0.  0.
        -24    2    5    5    0    0  0.16625110645E+02  0.12122982961E+03  0.94770454671E+02  0.17440542669E+03  0.80391217737E+02 0.  0.
          5    1    3    3  501    0  0.14896942600E+02  0.14607517818E+02 -0.35074626355E+02  0.41080626694E+02  0.47000000000E+01 0. -1.
        -11    1    4    4    0    0 -0.72945749393E+01 -0.20385937359E+02 -0.36504197251E+02  0.42442357174E+02  0.00000000000E+00 0.  1.
         12    1    4    4    0    0 -0.32855328648E+02 -0.19110700499E+03 -0.24212181079E+02  0.19541645194E+03  0.00000000000E+00 0. -1.
         -5    1    5    5    0  502  0.86278503422E+01  0.75655594915E+02  0.24502897847E+03  0.25663105644E+03  0.47000000000E+01 0.  1.
         13    1    6    6    0    0  0.20524753122E+02  0.12451211093E+03  0.10422230906E+03  0.16366679860E+03  0.00000000000E+00 0. -1.
        -14    1    6    6    0    0 -0.38996424769E+01 -0.32822813108E+01 -0.94518543863E+01  0.10738628096E+02  0.00000000000E+00 0.  1.
<mgrwt>
<rscale>  2 0.26438707E+03</rscale>
<asrwt>0</asrwt>
<pdfrwt beam="1">  1       21 0.73383411E-01 0.26519577E+03</pdfrwt>
<pdfrwt beam="2">  1       21 0.35843653E-01 0.26519577E+03</pdfrwt>
<totfact> 0.12005336E+04</totfact>
</mgrwt>
</event>
<event>
12    1  0.1026879E-001  0.2230153E+03  0.7546771E-02  0.1131803E+00
         21   -1    0    0  503  502  0.00000000000E+00  0.00000000000E+00  0.24244298531E+03  0.24244298531E+03  0.00000000000E+00 0. -1.
         21   -1    0    0  501  503 -0.00000000000E+00 -0.00000000000E+00 -0.62860047844E+03  0.62860047844E+03  0.00000000000E+00 0. -1.
          6    2    1    2  501    0 -0.13368177596E+03 -0.42555657835E+02 -0.55073733796E+03  0.59387501854E+03  0.17231982179E+03 0.  0.
         24    2    3    3    0    0 -0.78940927080E+02  0.35069167283E+02 -0.22250847613E+03  0.25214639851E+03  0.81278950948E+02 0.  0.
         -6    2    1    2    0  502  0.13368177596E+03  0.42555657835E+02  0.16457984483E+03  0.27716844522E+03  0.17336095426E+03 0.  0.
        -24    2    5    5    0    0  0.49842892171E+02  0.20926526551E+02  0.16451650528E+03  0.19045701710E+03  0.79284055392E+02 0.  0.
          5    1    3    3  501    0 -0.54740848876E+02 -0.77624825118E+02 -0.32822886183E+03  0.34172862003E+03  0.47000000000E+01 0. -1.
        -11    1    4    4    0    0  0.26500623875E-01  0.37835013309E+02 -0.52924841860E+02  0.65057880540E+02  0.00000000000E+00 0.  1.
         12    1    4    4    0    0 -0.78967427703E+02 -0.27658460258E+01 -0.16958363427E+03  0.18708851797E+03  0.00000000000E+00 0. -1.
         -5    1    5    5    0  502  0.83838883784E+02  0.21629131284E+02  0.63339556382E-01  0.86711428118E+02  0.47000000000E+01 0.  1.
         13    1    6    6    0    0  0.57784125935E+02  0.10589672594E+02  0.56002690026E+02  0.81163093003E+02  0.00000000000E+00 0. -1.
        -14    1    6    6    0    0 -0.79412337642E+01  0.10336853957E+02  0.10851381525E+03  0.10929392409E+03  0.00000000000E+00 0.  1.
<mgrwt>
<rscale>  2 0.22281293E+03</rscale>
<asrwt>0</asrwt>
<pdfrwt beam="1">  1       21 0.37298920E-01 0.22301529E+03</pdfrwt>
<pdfrwt beam="2">  1       21 0.96707767E-01 0.22301529E+03</pdfrwt>
<totfact> 0.60230265E+03</totfact>
</mgrwt>
</event>
<event>
12    1  0.1026879E-001  0.1935013E+03  0.7546771E-02  0.1155612E+00
         21   -1    0    0  501  502  0.00000000000E+00  0.00000000000E+00  0.20110730295E+03  0.20110730295E+03  0.00000000000E+00 0.  1.
         21   -1    0    0  502  503 -0.00000000000E+00 -0.00000000000E+00 -0.23765309670E+03  0.23765309670E+03  0.00000000000E+00 0.  1.
         -6    2    1    2    0  503  0.85332262049E+02 -0.15079441330E+02 -0.12157722731E+03  0.22852519595E+03  0.17301375230E+03 0.  0.
        -24    2    3    3    0    0  0.56132580752E+02  0.56774712866E+02 -0.54754588310E+02  0.12604107061E+03  0.80709676601E+02 0.  0.
          6    2    1    2  501    0 -0.85332262049E+02  0.15079441330E+02  0.85031433560E+02  0.21023520369E+03  0.17163773385E+03 0.  0.
         24    2    5    5    0    0 -0.11311838755E+03  0.29182457045E+02  0.10090714972E+03  0.17494933987E+03  0.82326382489E+02 0.  0.
          5    1    5    5  501    0  0.27786125497E+02 -0.14103015715E+02 -0.15875716163E+02  0.35285863827E+02  0.47000000000E+01 0. -1.
        -13    1    6    6    0    0 -0.91210015794E+02  0.22485494388E+02  0.11466028728E+03  0.14822903197E+03  0.00000000000E+00 0.  1.
         14    1    6    6    0    0 -0.21908371752E+02  0.66969626570E+01 -0.13753137554E+02  0.26720307899E+02  0.00000000000E+00 0. -1.
         -5    1    3    3    0  503  0.29199681298E+02 -0.71854154196E+02 -0.66822639002E+02  0.10248412534E+03  0.47000000000E+01 0.  1.
         11    1    4    4    0    0  0.24134156632E+02  0.14374103673E+02  0.19894049655E+02  0.34421586024E+02  0.00000000000E+00 0. -1.
        -12    1    4    4    0    0  0.31998424120E+02  0.42400609193E+02 -0.74648637965E+02  0.91619484588E+02  0.00000000000E+00 0.  1.
<mgrwt>
<rscale>  2 0.19319320E+03</rscale>
<asrwt>0</asrwt>
<pdfrwt beam="1">  1       21 0.30939585E-01 0.19350127E+03</pdfrwt>
<pdfrwt beam="2">  1       21 0.36562015E-01 0.19350127E+03</pdfrwt>
<totfact> 0.72364273E+04</totfact>
</mgrwt>
</event>
<event>
12    1  0.1026879E-001  0.2371983E+03  0.7546771E-02  0.1122095E+00
         21   -1    0    0  503  502  0.00000000000E+00  0.00000000000E+00  0.37340785332E+03  0.37340785332E+03  0.00000000000E+00 0. -1.
         21   -1    0    0  501  503 -0.00000000000E+00 -0.00000000000E+00 -0.21291390406E+03  0.21291390406E+03  0.00000000000E+00 0. -1.
          6    2    1    2  501    0 -0.13316825223E+03  0.82325716158E+02 -0.79947496342E+02  0.25030906164E+03  0.17819011539E+03 0.  0.
         24    2    3    3    0    0 -0.14218406496E+03  0.10241987791E+03 -0.29448396845E+02  0.19501612117E+03  0.80361307364E+02 0.  0.
         -6    2    1    2    0  502  0.13316825223E+03 -0.82325716158E+02  0.24044144560E+03  0.33601269574E+03  0.17487462935E+03 0.  0.
        -24    2    5    5    0    0  0.27196656345E+02 -0.82788910241E+02  0.17545110279E+03  0.21161000950E+03  0.80012779452E+02 0.  0.
          5    1    3    3  501    0  0.90158127217E+01 -0.20094161750E+02 -0.50499099496E+02  0.55292940467E+02  0.47000000000E+01 0. -1.
        -11    1    4    4    0    0 -0.30744809299E+02  0.51335442839E+02  0.19617371650E+02  0.62971519441E+02  0.00000000000E+00 0.  1.
         12    1    4    4    0    0 -0.11143925566E+03  0.51084435070E+02 -0.49065768495E+02  0.13204460173E+03  0.00000000000E+00 0. -1.
         -5    1    5    5    0  502  0.10597159589E+03  0.46319408261E+00  0.64990342816E+02  0.12440268624E+03  0.47000000000E+01 0.  1.
         11    1    6    6    0    0  0.34653362249E+02 -0.58345196884E+02  0.17312370664E+03  0.18594847489E+03  0.00000000000E+00 0. -1.
        -12    1    6    6    0    0 -0.74567059041E+01 -0.24443713357E+02  0.23273961511E+01  0.25661534608E+02  0.00000000000E+00 0.  1.
<mgrwt>
<rscale>  2 0.23657571E+03</rscale>
<asrwt>0</asrwt>
<pdfrwt beam="1">  1       21 0.57447362E-01 0.23719828E+03</pdfrwt>
<pdfrwt beam="2">  1       21 0.32755985E-01 0.23719828E+03</pdfrwt>
<totfact> 0.24908182E+04</totfact>
</mgrwt>
</event>
<event>
12    1  0.1026879E-001  0.2427807E+03  0.7546771E-02  0.1117990E+00
         21   -1    0    0  503  502  0.00000000000E+00  0.00000000000E+00  0.50850572619E+03  0.50850572619E+03  0.00000000000E+00 0. -1.
         21   -1    0    0  501  503 -0.00000000000E+00 -0.00000000000E+00 -0.11741790830E+03  0.11741790830E+03  0.00000000000E+00 0.  1.
          6    2    1    2  501    0  0.19547816844E+02  0.16906810913E+03  0.15881434746E+03  0.28992748066E+03  0.17282882982E+03 0.  0.
         24    2    3    3    0    0  0.27021878429E+02  0.49116391299E+02  0.13592595980E+03  0.16749282668E+03  0.80220811717E+02 0.  0.
         -6    2    1    2    0  502 -0.19547816844E+02 -0.16906810913E+03  0.23227347043E+03  0.33599615382E+03  0.17313667331E+03 0.  0.
        -24    2    5    5    0    0 -0.30347275854E+02 -0.19589974423E+03  0.21833687422E+03  0.30354798483E+03  0.71921634489E+02 0.  0.
          5    1    3    3  501    0 -0.74740615847E+01  0.11995171783E+03  0.22888387659E+02  0.12243465399E+03  0.47000000000E+01 0. -1.
        -13    1    4    4    0    0  0.37507378933E+02 -0.66140452034E+01  0.34996709890E+02  0.51723483753E+02  0.00000000000E+00 0.  1.
         14    1    4    4    0    0 -0.10485500505E+02  0.55730436503E+02  0.10092924991E+03  0.11576934292E+03  0.00000000000E+00 0. -1.
         -5    1    5    5    0  502  0.10799459010E+02  0.26831635098E+02  0.13936596207E+02  0.32448168989E+02  0.47000000000E+01 0.  1.
         11    1    6    6    0    0  0.41570665322E+01 -0.12802647845E+03  0.98578829074E+02  0.16163491556E+03  0.00000000000E+00 0. -1.
        -12    1    6    6    0    0 -0.34504342386E+02 -0.67873265773E+02  0.11975804515E+03  0.14191306926E+03  0.00000000000E+00 0.  1.
<mgrwt>
<rscale>  2 0.24272578E+03</rscale>
<asrwt>0</asrwt>
<pdfrwt beam="1">  1       21 0.78231649E-01 0.24278066E+03</pdfrwt>
<pdfrwt beam="2">  1       21 0.18064294E-01 0.24278066E+03</pdfrwt>
<totfact> 0.39370432E+04</totfact>
</mgrwt>
</event>
<event>
12    1  0.1026879E-001  0.1835814E+03  0.7546771E-02  0.1164831E+00
         21   -1    0    0  501  502  0.00000000000E+00  0.00000000000E+00  0.84365821608E+03  0.84365821608E+03  0.00000000000E+00 0.  1.
         21   -1    0    0  502  503 -0.00000000000E+00 -0.00000000000E+00 -0.40664003664E+02  0.40664003664E+02  0.00000000000E+00 0.  1.
         -6    2    1    2    0  503  0.19157924134E+02  0.56385690293E+02  0.32582927169E+03  0.37306051901E+03  0.17164808309E+03 0.  0.
        -24    2    3    3    0    0 -0.32209918282E+02  0.22774899051E+02  0.16034929653E+03  0.19649876578E+03  0.10650677535E+03 0.  0.
          6    2    1    2  501    0 -0.19157924134E+02 -0.56385690293E+02  0.47716494072E+03  0.51126170073E+03  0.17365417891E+03 0.  0.
         24    2    5    5    0    0 -0.46248025488E+02 -0.54127713717E+02  0.47021334495E+03  0.48281197782E+03  0.83295419490E+02 0.  0.
          5    1    5    5  501    0  0.27090101354E+02 -0.22579765757E+01  0.69515957696E+01  0.28449722904E+02  0.47000000000E+01 0. -1.
        -11    1    6    6    0    0 -0.68060056277E+02 -0.24234182117E+02  0.29291693340E+03  0.30169487353E+03  0.00000000000E+00 0.  1.
         12    1    6    6    0    0  0.21812030789E+02 -0.29893531600E+02  0.17729641155E+03  0.18111710429E+03  0.00000000000E+00 0. -1.
         -5    1    3    3    0  503  0.51367842417E+02  0.33610791242E+02  0.16547997517E+03  0.17656175323E+03  0.47000000000E+01 0.  1.
         13    1    4    4    0    0 -0.84497012635E+01  0.16780899130E+02  0.16935329250E+03  0.17039229357E+03  0.00000000000E+00 0. -1.
        -14    1    4    4    0    0 -0.23760217019E+02  0.59939999205E+01 -0.90039959754E+01  0.26106472212E+02  0.00000000000E+00 0.  1.
<mgrwt>
<rscale>  2 0.18310548E+03</rscale>
<asrwt>0</asrwt>
<pdfrwt beam="1">  1       21 0.12979356E+00 0.18358144E+03</pdfrwt>
<pdfrwt beam="2">  1       21 0.62560012E-02 0.18358144E+03</pdfrwt>
<totfact> 0.80001042E+04</totfact>
</mgrwt>
</event>
<event>
12    1  0.1026879E-001  0.2184288E+03  0.7546771E-02  0.1135257E+00
         21   -1    0    0  501  502  0.00000000000E+00  0.00000000000E+00  0.60756457716E+03  0.60756457716E+03  0.00000000000E+00 0. -1.
         21   -1    0    0  502  503 -0.00000000000E+00 -0.00000000000E+00 -0.84836629790E+02  0.84836629790E+02  0.00000000000E+00 0.  1.
         -6    2    1    2    0  503 -0.12841852599E+03  0.36221315326E+02  0.35795697572E+03  0.41879451520E+03  0.17161686397E+03 0.  0.
        -24    2    3    3    0    0 -0.11572065503E+03  0.35001045961E+02  0.37191723654E+03  0.39930852366E+03  0.80675417671E+02 0.  0.
          6    2    1    2  501    0  0.12841852599E+03 -0.36221315326E+02  0.16477097165E+03  0.27360669175E+03  0.17293885384E+03 0.  0.
         24    2    5    5    0    0  0.14392149309E+03 -0.60889501777E+02  0.98656104190E+02  0.20120415649E+03  0.79556006024E+02 0.  0.
          5    1    5    5  501    0 -0.15502967104E+02  0.24668186451E+02  0.66114867463E+02  0.72402535255E+02  0.47000000000E+01 0. -1.
        -11    1    6    6    0    0  0.98170128499E+02 -0.77060500012E+00  0.42037501868E+02  0.10679475420E+03  0.00000000000E+00 0.  1.
         12    1    6    6    0    0  0.45751364595E+02 -0.60118896777E+02  0.56618602322E+02  0.94409402291E+02  0.00000000000E+00 0. -1.
         -5    1    3    3    0  503 -0.12697870963E+02  0.12202693649E+01 -0.13960260818E+02  0.19485991544E+02  0.47000000000E+01 0.  1.
         13    1    4    4    0    0 -0.54517143508E+02  0.57379026261E+02  0.18011265210E+03  0.19673596275E+03  0.00000000000E+00 0. -1.
        -14    1    4    4    0    0 -0.61203511519E+02 -0.22377980300E+02  0.19180458443E+03  0.20257256091E+03  0.00000000000E+00 0.  1.
<mgrwt>
<rscale>  2 0.21816706E+03</rscale>
<asrwt>0</asrwt>
<pdfrwt beam="1">  1       21 0.93471471E-01 0.21842882E+03</pdfrwt>
<pdfrwt beam="2">  1       21 0.13051790E-01 0.21842882E+03</pdfrwt>
<totfact> 0.47935661E+04</totfact>
</mgrwt>
</event>
<event>
12    1  0.1026879E-001  0.2004761E+03  0.7546771E-02  0.1150200E+00
         21   -1    0    0  501  502  0.00000000000E+00  0.00000000000E+00  0.32669897352E+03  0.32669897352E+03  0.00000000000E+00 0.  1.
         21   -1    0    0  502  503 -0.00000000000E+00 -0.00000000000E+00 -0.17312270660E+03  0.17312270660E+03  0.00000000000E+00 0.  1.
         -6    2    1    2    0  503 -0.95304196987E+02  0.27852836401E+02 -0.61477874181E+02  0.20581668405E+03  0.16947657054E+03 0.  0.
        -24    2    3    3    0    0 -0.82552762454E+02  0.71805185148E+02 -0.92653807127E+01  0.13622758636E+03  0.80629800962E+02 0.  0.
          6    2    1    2  501    0  0.95304196987E+02 -0.27852836401E+02  0.21505414110E+03  0.29400499607E+03  0.17416079826E+03 0.  0.
         24    2    5    5    0    0  0.39602128588E+02 -0.58938324370E+02  0.20535672981E+03  0.22931220071E+03  0.73284679489E+02 0.  0.
          5    1    5    5  501    0  0.55702068399E+02  0.31085487969E+02  0.96974112933E+01  0.64692795364E+02  0.47000000000E+01 0. -1.
        -13    1    6    6    0    0  0.17569126552E+02 -0.81647165297E+01  0.31011939511E+01  0.19620249941E+02  0.00000000000E+00 0.  1.
         14    1    6    6    0    0  0.22033002036E+02 -0.50773607841E+02  0.20225553586E+03  0.20969195077E+03  0.00000000000E+00 0. -1.
         -5    1    3    3    0  503 -0.12751434533E+02 -0.43952348746E+02 -0.52212493468E+02  0.69589097689E+02  0.47000000000E+01 0.  1.
         13    1    4    4    0    0 -0.51788326257E+02  0.57814260681E+02  0.31069617103E+02  0.83605266470E+02  0.00000000000E+00 0. -1.
        -14    1    4    4    0    0 -0.30764436197E+02  0.13990924466E+02 -0.40334997815E+02  0.52622319891E+02  0.00000000000E+00 0.  1.
<mgrwt>
<rscale>  2 0.19945437E+03</rscale>
<asrwt>0</asrwt>
<pdfrwt beam="1">  1       21 0.50261380E-01 0.20047607E+03</pdfrwt>
<pdfrwt beam="2">  1       21 0.26634263E-01 0.20047607E+03</pdfrwt>
<totfact> 0.50377201E+04</totfact>
</mgrwt>
</event>
<event>
12    1  0.1026879E-001  0.2100362E+03  0.7546771E-02  0.1143526E+00
         21   -1    0    0  503  502  0.00000000000E+00  0.00000000000E+00  0.36893800402E+03  0.36893800402E+03  0.00000000000E+00 0. -1.
         21   -1    0    0  501  503 -0.00000000000E+00 -0.00000000000E+00 -0.34975852290E+03  0.34975852290E+03  0.00000000000E+00 0. -1.
          6    2    1    2  501    0  0.49403189307E+02 -0.88323850697E+02 -0.28544769791E+03  0.34867909084E+03  0.17278582821E+03 0.  0.
         24    2    3    3    0    0 -0.37474965734E+02 -0.38361024056E+02 -0.16053369166E+03  0.18846143630E+03  0.82889719447E+02 0.  0.
         -6    2    1    2    0  502 -0.49403189307E+02  0.88323850697E+02  0.30462717903E+03  0.37001743608E+03  0.18404729576E+03 0.  0.
        -24    2    5    5    0    0 -0.86145652473E+02  0.23103676803E+02  0.13529328409E+03  0.18481555256E+03  0.88868793315E+02 0.  0.
          5    1    3    3  501    0  0.86878155041E+02 -0.49962826641E+02 -0.12491400626E+03  0.16021765455E+03  0.47000000000E+01 0. -1.
        -11    1    4    4    0    0 -0.61827295417E+02 -0.40390577209E+02 -0.11259704105E+03  0.13465551173E+03  0.00000000000E+00 0.  1.
         12    1    4    4    0    0  0.24352329683E+02  0.20295531526E+01 -0.47936650608E+02  0.53805924567E+02  0.00000000000E+00 0. -1.
         -5    1    5    5    0  502  0.36742463166E+02  0.65220173894E+02  0.16933389494E+03  0.18520188352E+03  0.47000000000E+01 0.  1.
         11    1    6    6    0    0 -0.13379519534E+02  0.27301103991E+02  0.98663793841E+02  0.10324197808E+03  0.00000000000E+00 0. -1.
        -12    1    6    6    0    0 -0.72766132938E+02 -0.41974271877E+01  0.36629490253E+02  0.81573574483E+02  0.00000000000E+00 0.  1.
<mgrwt>
<rscale>  2 0.20754350E+03</rscale>
<asrwt>0</asrwt>
<pdfrwt beam="1">  1       21 0.56759693E-01 0.21003615E+03</pdfrwt>
<pdfrwt beam="2">  1       21 0.53809003E-01 0.21003615E+03</pdfrwt>
<totfact> 0.94180974E+03</totfact>
</mgrwt>
</event>
<event>
12    1  0.1026879E-001  0.2073833E+03  0.7546771E-02  0.1143801E+00
         21   -1    0    0  503  502  0.00000000000E+00  0.00000000000E+00  0.49040485420E+03  0.49040485420E+03  0.00000000000E+00 0.  1.
         21   -1    0    0  501  503 -0.00000000000E+00 -0.00000000000E+00 -0.18152365483E+03  0.18152365483E+03  0.00000000000E+00 0.  1.
          6    2    1    2  501    0  0.10966385228E+03  0.36721916540E+02 -0.87360578438E+02  0.22503269863E+03  0.17214292067E+03 0.  0.
         24    2    3    3    0    0  0.10726932895E+03  0.30839112724E+02  0.48035273969E+00  0.13683711874E+03  0.79160637433E+02 0.  0.
         -6    2    1    2    0  502 -0.10966385228E+03 -0.36721916540E+02  0.39624177781E+03  0.44689581040E+03  0.17127071911E+03 0.  0.
        -24    2    5    5    0    0 -0.12261556928E+02 -0.28066029615E+02  0.88274696534E+02  0.12374268158E+03  0.81128178833E+02 0.  0.
          5    1    3    3  501    0  0.23945233362E+01  0.58828038161E+01 -0.87840931177E+02  0.88195579894E+02  0.47000000000E+01 0. -1.
        -11    1    4    4    0    0  0.62352921643E+02  0.25756354962E+02 -0.38038784884E+02  0.77448213755E+02  0.00000000000E+00 0.  1.
         12    1    4    4    0    0  0.44916407303E+02  0.50827577617E+01  0.38519137624E+02  0.59388904980E+02  0.00000000000E+00 0. -1.
         -5    1    5    5    0  502 -0.97402295355E+02 -0.86558869248E+01  0.30796708127E+03  0.32315312882E+03  0.47000000000E+01 0.  1.
         11    1    6    6    0    0  0.19411976078E+02  0.20263073377E+02  0.20936338996E+02  0.35010673351E+02  0.00000000000E+00 0. -1.
        -12    1    6    6    0    0 -0.31673533006E+02 -0.48329102992E+02  0.67338357538E+02  0.88732008233E+02  0.00000000000E+00 0.  1.
<mgrwt>
<rscale>  2 0.20720224E+03</rscale>
<asrwt>0</asrwt>
<pdfrwt beam="1">  1       21 0.75446900E-01 0.20738333E+03</pdfrwt>
<pdfrwt beam="2">  1       21 0.27926716E-01 0.20738333E+03</pdfrwt>
<totfact> 0.19040911E+04</totfact>
</mgrwt>
</event>
<event>
12    1  0.1026879E-001  0.1731027E+03  0.7546771E-02  0.1174863E+00
         21   -1    0    0  501  502  0.00000000000E+00  0.00000000000E+00  0.16185964555E+04  0.16185964555E+04  0.00000000000E+00 0.  1.
         21   -1    0    0  502  503 -0.00000000000E+00 -0.00000000000E+00 -0.21779491258E+02  0.21779491258E+02  0.00000000000E+00 0.  1.
         -6    2    1    2    0  503 -0.81602646144E+01 -0.15219068664E+02  0.47481732259E+03  0.50510164494E+03  0.17140003476E+03 0.  0.
        -24    2    3    3    0    0  0.26726643520E+02 -0.20700197114E+02  0.45819262717E+03  0.46578740291E+03  0.76646001067E+02 0.  0.
          6    2    1    2  501    0  0.81602646144E+01  0.15219068664E+02  0.11219996417E+04  0.11352743019E+04  0.17223917831E+03 0.  0.
         24    2    5    5    0    0 -0.57471522656E+02 -0.51869924655E+01  0.51939530279E+03  0.52874481528E+03  0.80434559228E+02 0.  0.
          5    1    5    5  501    0  0.65631787270E+02  0.20406061130E+02  0.60260433890E+03  0.60652948658E+03  0.47000000000E+01 0. -1.
        -11    1    6    6    0    0 -0.93939069449E+01  0.29000003256E+02  0.30040303357E+03  0.30194573727E+03  0.00000000000E+00 0.  1.
         12    1    6    6    0    0 -0.48077615711E+02 -0.34186995721E+02  0.21899226922E+03  0.22679907801E+03  0.00000000000E+00 0. -1.
         -5    1    3    3    0  503 -0.34886908134E+02  0.54811284495E+01  0.16624695417E+02  0.39314242024E+02  0.47000000000E+01 0.  1.
         11    1    4    4    0    0  0.37608310321E+02  0.19188769827E+02  0.24767150265E+03  0.25124443698E+03  0.00000000000E+00 0. -1.
        -12    1    4    4    0    0 -0.10881666802E+02 -0.39888966941E+02  0.21052112453E+03  0.21454296593E+03  0.00000000000E+00 0.  1.
<mgrwt>
<rscale>  2 0.17289359E+03</rscale>
<asrwt>0</asrwt>
<pdfrwt beam="1">  1       21 0.24901474E+00 0.17310270E+03</pdfrwt>
<pdfrwt beam="2">  1       21 0.33506922E-02 0.17310270E+03</pdfrwt>
<totfact> 0.36075956E+04</totfact>
</mgrwt>
</event>
<event>
12    1  0.1026879E-001  0.2358485E+03  0.7546771E-02  0.1122688E+00
         21   -1    0    0  501  502  0.00000000000E+00  0.00000000000E+00  0.62747285132E+03  0.62747285132E+03  0.00000000000E+00 0. -1.
         21   -1    0    0  502  503 -0.00000000000E+00 -0.00000000000E+00 -0.88479972017E+02  0.88479972017E+02  0.00000000000E+00 0. -1.
         -6    2    1    2    0  503  0.18316966571E+02 -0.15914286688E+03  0.26078806520E+03  0.35123041204E+03  0.17230909450E+03 0.  0.
        -24    2    3    3    0    0 -0.10292221721E+02 -0.57033527366E+02  0.40592314624E+02  0.10678601868E+03  0.79979776869E+02 0.  0.
          6    2    1    2  501    0 -0.18316966571E+02  0.15914286688E+03  0.27820481410E+03  0.36472241130E+03  0.17309695367E+03 0.  0.
         24    2    5    5    0    0 -0.59107332771E+02  0.47104963103E+02  0.91991912481E+02  0.14355803671E+03  0.80211243637E+02 0.  0.
          5    1    5    5  501    0  0.40790366199E+02  0.11203790377E+03  0.18621290162E+03  0.22116437459E+03  0.47000000000E+01 0. -1.
        -11    1    6    6    0    0  0.74507270674E+01 -0.20471634199E+01 -0.97364962892E+01  0.12429946576E+02  0.00000000000E+00 0.  1.
         12    1    6    6    0    0 -0.66558059838E+02  0.49152126523E+02  0.10172840877E+03  0.13112809013E+03  0.00000000000E+00 0. -1.
         -5    1    3    3    0  503  0.28609188293E+02 -0.10210933951E+03  0.22019575058E+03  0.24444439336E+03  0.47000000000E+01 0.  1.
         13    1    4    4    0    0  0.22684424469E+01 -0.48339009330E+02  0.63139408024E+02  0.79551181636E+02  0.00000000000E+00 0. -1.
        -14    1    4    4    0    0 -0.12560664168E+02 -0.86945180359E+01 -0.22547093400E+02  0.27234837048E+02  0.00000000000E+00 0.  1.
<mgrwt>
<rscale>  2 0.23570397E+03</rscale>
<asrwt>0</asrwt>
<pdfrwt beam="1">  1       21 0.96534282E-01 0.23584851E+03</pdfrwt>
<pdfrwt beam="2">  1       21 0.13612304E-01 0.23584851E+03</pdfrwt>
<totfact> 0.40842690E+04</totfact>
</mgrwt>
</event>
<event>
12    1  0.1026879E-001  0.2082032E+03  0.7546771E-02  0.1143028E+00
         21   -1    0    0  503  502  0.00000000000E+00  0.00000000000E+00  0.31197573442E+02  0.31197573442E+02  0.00000000000E+00 0. -1.
         21   -1    0    0  501  503 -0.00000000000E+00 -0.00000000000E+00 -0.13909507738E+04  0.13909507738E+04  0.00000000000E+00 0. -1.
          6    2    1    2  501    0  0.66149418205E+02 -0.93172493788E+02 -0.64935338312E+03  0.68186699542E+03  0.17385604432E+03 0.  0.
         24    2    3    3    0    0  0.87808295387E+02 -0.10484960423E+03 -0.38737954476E+03  0.41869814496E+03  0.80879469859E+02 0.  0.
         -6    2    1    2    0  502 -0.66149418205E+02  0.93172493788E+02 -0.71039981726E+03  0.74028135184E+03  0.17404516770E+03 0.  0.
        -24    2    5    5    0    0 -0.67131734904E+02  0.12846944249E+03 -0.64328926260E+03  0.66430269641E+03  0.80411004247E+02 0.  0.
          5    1    3    3  501    0 -0.21658877182E+02  0.11677110444E+02 -0.26197383836E+03  0.26316885046E+03  0.47000000000E+01 0. -1.
        -13    1    4    4    0    0  0.14023328013E+02 -0.75392620186E+02 -0.15157770943E+03  0.16987201919E+03  0.00000000000E+00 0.  1.
         14    1    4    4    0    0  0.73784967374E+02 -0.29456984046E+02 -0.23580183533E+03  0.24882612577E+03  0.00000000000E+00 0. -1.
         -5    1    5    5    0  502  0.98231669862E+00 -0.35296948705E+02 -0.67110554659E+02  0.75978655427E+02  0.47000000000E+01 0.  1.
         13    1    6    6    0    0 -0.58380209470E+02  0.34253867468E+02 -0.33702072465E+03  0.34375070202E+03  0.00000000000E+00 0. -1.
        -14    1    6    6    0    0 -0.87515254342E+01  0.94215575025E+02 -0.30626853795E+03  0.32055199439E+03  0.00000000000E+00 0.  1.
<mgrwt>
<rscale>  2 0.20816369E+03</rscale>
<asrwt>0</asrwt>
<pdfrwt beam="1">  1       21 0.47996256E-02 0.20820322E+03</pdfrwt>
<pdfrwt beam="2">  1       21 0.21399247E+00 0.20820322E+03</pdfrwt>
<totfact> 0.31231493E+04</totfact>
</mgrwt>
</event>
<event>
12    1  0.1026879E-001  0.2276026E+03  0.7546771E-02  0.1128968E+00
         21   -1    0    0  501  502  0.00000000000E+00  0.00000000000E+00  0.14741714532E+03  0.14741714532E+03  0.00000000000E+00 0.  1.
         21   -1    0    0  502  503 -0.00000000000E+00 -0.00000000000E+00 -0.45517937209E+03  0.45517937209E+03  0.00000000000E+00 0. -1.
         -6    2    1    2    0  503  0.85442580460E+02 -0.11869762432E+03 -0.72425933341E+01  0.22771785280E+03  0.17439439426E+03 0.  0.
        -24    2    3    3    0    0  0.18851651004E+02  0.53561451443E+01 -0.17779608540E+02  0.86449284835E+02  0.82300008094E+02 0.  0.
          6    2    1    2  501    0 -0.85442580460E+02  0.11869762432E+03 -0.30051963343E+03  0.37487866460E+03  0.16980106749E+03 0.  0.
         24    2    5    5    0    0 -0.11431037650E+03  0.51694119821E+02 -0.22425712288E+03  0.26923359951E+03  0.80351289591E+02 0.  0.
          5    1    5    5  501    0  0.28867796044E+02  0.67003504501E+02 -0.76262510551E+02  0.10564506510E+03  0.47000000000E+01 0. -1.
        -13    1    6    6    0    0 -0.23936126641E+02  0.52651926423E+02 -0.10105536812E+03  0.11643603798E+03  0.00000000000E+00 0.  1.
         14    1    6    6    0    0 -0.90374249863E+02 -0.95780660219E+00 -0.12320175476E+03  0.15279756153E+03  0.00000000000E+00 0. -1.
         -5    1    3    3    0  503  0.66590929455E+02 -0.12405376947E+03  0.10537015205E+02  0.14126856796E+03  0.47000000000E+01 0.  1.
         13    1    4    4    0    0  0.31586268367E+02 -0.32027070872E+02 -0.71127613839E+01  0.45541376709E+02  0.00000000000E+00 0. -1.
        -14    1    4    4    0    0 -0.12734617363E+02  0.37383216016E+02 -0.10666847156E+02  0.40907908127E+02  0.00000000000E+00 0.  1.
<mgrwt>
<rscale>  2 0.22672254E+03</rscale>
<asrwt>0</asrwt>
<pdfrwt beam="1">  1       21 0.22679561E-01 0.22760265E+03</pdfrwt>
<pdfrwt beam="2">  1       21 0.70027596E-01 0.22760265E+03</pdfrwt>
<totfact> 0.33134239E+04</totfact>
</mgrwt>
</event>
<event>
12    1  0.1026879E-001  0.1977430E+03  0.7546771E-02  0.1152118E+00
         21   -1    0    0  503  502  0.00000000000E+00  0.00000000000E+00  0.12359091266E+04  0.12359091266E+04  0.00000000000E+00 0.  1.
         21   -1    0    0  501  503 -0.00000000000E+00 -0.00000000000E+00 -0.33257041431E+02  0.33257041431E+02  0.00000000000E+00 0.  1.
          6    2    1    2  501    0 -0.83149758026E+02  0.31194878223E+02  0.44421319386E+03  0.48537293271E+03  0.17428287214E+03 0.  0.
         24    2    3    3    0    0 -0.68737808371E+02  0.67748739038E+02  0.42129446800E+03  0.43964277824E+03  0.80510656103E+02 0.  0.
         -6    2    1    2    0  502  0.83149758026E+02 -0.31194878223E+02  0.75843889134E+03  0.78379323535E+03  0.17667846841E+03 0.  0.
        -24    2    5    5    0    0  0.10596349136E+03 -0.27847289182E+02  0.37364974964E+03  0.39828519866E+03  0.83745035979E+02 0.  0.
          5    1    3    3  501    0 -0.14411949655E+02 -0.36553860815E+02  0.22918725862E+02  0.45730154476E+02  0.47000000000E+01 0. -1.
        -11    1    4    4    0    0 -0.47094419017E+02  0.53291471949E+01  0.88882235334E+02  0.10072902199E+03  0.00000000000E+00 0.  1.
         12    1    4    4    0    0 -0.21643389354E+02  0.62419591843E+02  0.33241223267E+03  0.33891375625E+03  0.00000000000E+00 0. -1.
         -5    1    5    5    0  502 -0.22813733338E+02 -0.33475890413E+01  0.38478914169E+03  0.38550803668E+03  0.47000000000E+01 0.  1.
         13    1    6    6    0    0  0.11747769808E+02 -0.34466499617E+02  0.55232107192E+02  0.66155387961E+02  0.00000000000E+00 0. -1.
        -14    1    6    6    0    0  0.94215721556E+02  0.66192104355E+01  0.31841764245E+03  0.33212981070E+03  0.00000000000E+00 0.  1.
<mgrwt>
<rscale>  2 0.19720643E+03</rscale>
<asrwt>0</asrwt>
<pdfrwt beam="1">  1       21 0.19013983E+00 0.19774297E+03</pdfrwt>
<pdfrwt beam="2">  1       21 0.51164689E-02 0.19774297E+03</pdfrwt>
<totfact> 0.40126065E+04</totfact>
</mgrwt>
</event>
<event>
11    1  0.1026879E-001  0.1890490E+03  0.7546771E-02  0.1160779E+00
         21   -1    0    0  503  502  0.00000000000E+00  0.00000000000E+00  0.56522970908E+02  0.56522970908E+02  0.00000000000E+00 0. -1.
         21   -1    0    0  501  503 -0.00000000000E+00 -0.00000000000E+00 -0.89087230818E+03  0.89087230818E+03  0.00000000000E+00 0. -1.
          6    2    1    2  501    0 -0.22341224798E+02 -0.43579954804E+02 -0.67761513920E+03  0.70182426533E+03  0.17605873949E+03 0.  0.
         24    2    3    3    0    0  0.78175723097E+01  0.19446582020E+02 -0.16429466420E+03  0.18374908021E+03  0.79572003897E+02 0.  0.
         -6    2    1    2    0  502  0.22341224798E+02  0.43579954804E+02 -0.15673419808E+03  0.24557101376E+03  0.18259564936E+03 0.  0.
          5    1    3    3  501    0 -0.30158797108E+02 -0.63026536824E+02 -0.51332047499E+03  0.51807518512E+03  0.47000000000E+01 0. -1.
        -11    1    4    4    0    0  0.32109417767E+02  0.29105773164E+02 -0.14477897114E+03  0.15112614342E+03  0.00000000000E+00 0.  1.
         12    1    4    4    0    0 -0.24291845457E+02 -0.96591911438E+01 -0.19515693066E+02  0.32622936795E+02  0.00000000000E+00 0. -1.
         -5    1    5    5    0  502  0.45506727120E+02  0.49063071572E+02 -0.18432742688E+03  0.19615488143E+03  0.47000000000E+01 0.  1.
         13    1    5    5    0    0 -0.12037331561E+02  0.12295862719E+02  0.21572710628E+02  0.27594699400E+02  0.00000000000E+00 0. -1.
        -14    1    5    5    0    0 -0.11128170761E+02 -0.17778979487E+02  0.60205181798E+01  0.21821432933E+02  0.00000000000E+00 0.  1.
<mgrwt>
<rscale>  2 0.18745238E+03</rscale>
<asrwt>0</asrwt>
<pdfrwt beam="1">  1       21 0.86958414E-02 0.18904897E+03</pdfrwt>
<pdfrwt beam="2">  1       21 0.13705728E+00 0.18904897E+03</pdfrwt>
<totfact> 0.39293394E+04</totfact>
</mgrwt>
</event>
<event>
12    1  0.1026879E-001  0.1868549E+03  0.7546771E-02  0.1161356E+00
         21   -1    0    0  501  502  0.00000000000E+00  0.00000000000E+00  0.18380033081E+03  0.18380033081E+03  0.00000000000E+00 0.  1.
         21   -1    0    0  502  503 -0.00000000000E+00 -0.00000000000E+00 -0.19902349717E+03  0.19902349717E+03  0.00000000000E+00 0.  1.
         -6    2    1    2    0  503 -0.46859004913E+02  0.51370856554E+02  0.33500707896E+02  0.18972084661E+03  0.17331177388E+03 0.  0.
        -24    2    3    3    0    0  0.19404605548E+02 -0.93317883832E+01 -0.20976768585E+02  0.84527868627E+02  0.79001992149E+02 0.  0.
          6    2    1    2  501    0  0.46859004913E+02 -0.51370856554E+02 -0.48723874255E+02  0.19310298136E+03  0.17343590817E+03 0.  0.
         24    2    5    5    0    0 -0.29152335643E+01  0.30330919883E+02 -0.17947758364E+01  0.86439560419E+02  0.80870965726E+02 0.  0.
          5    1    5    5  501    0  0.49774238478E+02 -0.81701776438E+02 -0.46929098418E+02  0.10666342094E+03  0.47000000000E+01 0. -1.
        -11    1    6    6    0    0  0.13557505180E+02 -0.10103866687E+01 -0.35216985922E+02  0.37750005634E+02  0.00000000000E+00 0.  1.
         12    1    6    6    0    0 -0.16472738744E+02  0.31341306552E+02  0.33422210086E+02  0.48689554785E+02  0.00000000000E+00 0. -1.
         -5    1    3    3    0  503 -0.66263610462E+02  0.60702644938E+02  0.54477476481E+02  0.10519297799E+03  0.47000000000E+01 0.  1.
         11    1    4    4    0    0 -0.83647054027E+01 -0.35459876865E+02 -0.27755521602E+02  0.45801093253E+02  0.00000000000E+00 0. -1.
        -12    1    4    4    0    0  0.27769310951E+02  0.26128088482E+02  0.67787530165E+01  0.38726775374E+02  0.00000000000E+00 0.  1.
<mgrwt>
<rscale>  2 0.18682607E+03</rscale>
<asrwt>0</asrwt>
<pdfrwt beam="1">  1       21 0.28276974E-01 0.18685488E+03</pdfrwt>
<pdfrwt beam="2">  1       21 0.30619000E-01 0.18685488E+03</pdfrwt>
<totfact> 0.12265085E+05</totfact>
</mgrwt>
</event>
<event>
12    1  0.1026879E-001  0.1914215E+03  0.7546771E-02  0.1157226E+00
         21   -1    0    0  501  502  0.00000000000E+00  0.00000000000E+00  0.31819455520E+03  0.31819455520E+03  0.00000000000E+00 0.  1.
         21   -1    0    0  502  503 -0.00000000000E+00 -0.00000000000E+00 -0.12574160529E+03  0.12574160529E+03  0.00000000000E+00 0.  1.
         -6    2    1    2    0  503 -0.53566381198E+02 -0.61538324192E+02  0.31450930467E+02  0.19380849589E+03  0.17296314495E+03 0.  0.
        -24    2    3    3    0    0 -0.73906135371E+02 -0.75967523626E+02  0.68135553594E+02  0.14920178148E+03  0.79909551638E+02 0.  0.
          6    2    1    2  501    0  0.53566381198E+02  0.61538324192E+02  0.16100201944E+03  0.25012766460E+03  0.17316430289E+03 0.  0.
         24    2    5    5    0    0 -0.78125089916E+01  0.99985448629E+02  0.10623629608E+03  0.15920503819E+03  0.63261112429E+02 0.  0.
          5    1    5    5  501    0  0.61378890189E+02 -0.38447124437E+02  0.54765723361E+02  0.90922626412E+02  0.47000000000E+01 0. -1.
        -13    1    6    6    0    0  0.23889426954E+02  0.51574234146E+02  0.32503840591E+02  0.65475995610E+02  0.00000000000E+00 0.  1.
         14    1    6    6    0    0 -0.31701935946E+02  0.48411214483E+02  0.73732455489E+02  0.93729042579E+02  0.00000000000E+00 0. -1.
         -5    1    3    3    0  503  0.20339754173E+02  0.14429199434E+02 -0.36684623126E+02  0.44606714405E+02  0.47000000000E+01 0.  1.
         13    1    4    4    0    0 -0.78042434192E+02 -0.42171298155E+02  0.72903154030E+02  0.11482120793E+03  0.00000000000E+00 0. -1.
        -14    1    4    4    0    0  0.41362988211E+01 -0.33796225472E+02 -0.47676004363E+01  0.34380573555E+02  0.00000000000E+00 0.  1.
<mgrwt>
<rscale>  2 0.19137602E+03</rscale>
<asrwt>0</asrwt>
<pdfrwt beam="1">  1       21 0.48953008E-01 0.19142152E+03</pdfrwt>
<pdfrwt beam="2">  1       21 0.19344862E-01 0.19142152E+03</pdfrwt>
<totfact> 0.97858735E+04</totfact>
</mgrwt>
</event>
<event>
12    1  0.1026879E-001  0.2459633E+03  0.7546771E-02  0.1116646E+00
         21   -1    0    0  501  502  0.00000000000E+00  0.00000000000E+00  0.11794996004E+04  0.11794996004E+04  0.00000000000E+00 0. -1.
         21   -1    0    0  502  503 -0.00000000000E+00 -0.00000000000E+00 -0.82422605982E+02  0.82422605982E+02  0.00000000000E+00 0. -1.
         -6    2    1    2    0  503  0.81651125698E+02  0.14478216126E+03  0.15154796013E+03  0.28492522235E+03  0.17489087331E+03 0.  0.
        -24    2    3    3    0    0  0.65796756787E+02  0.16675418374E+03  0.87397785298E+02  0.21512933625E+03  0.80660321373E+02 0.  0.
          6    2    1    2  501    0 -0.81651125698E+02 -0.14478216126E+03  0.94552903425E+03  0.97699698399E+03  0.18129857024E+03 0.  0.
         24    2    5    5    0    0 -0.11575729085E+03 -0.15594811007E+03  0.81986728523E+03  0.84622667360E+03  0.78725182078E+02 0.  0.
          5    1    5    5  501    0  0.34106165151E+02  0.11165948818E+02  0.12566174901E+03  0.13077031039E+03  0.47000000000E+01 0. -1.
        -11    1    6    6    0    0 -0.30625428025E+02  0.10229243420E+01  0.10370107713E+03  0.10813360539E+03  0.00000000000E+00 0.  1.
         12    1    6    6    0    0 -0.85131862824E+02 -0.15697103442E+03  0.71616620810E+03  0.73809306821E+03  0.00000000000E+00 0. -1.
         -5    1    3    3    0  503  0.15854368912E+02 -0.21972022482E+02  0.64150174833E+02  0.69795886101E+02  0.47000000000E+01 0.  1.
         13    1    4    4    0    0  0.65111879351E+01  0.12170233274E+03  0.59371505083E+02  0.13556853978E+03  0.00000000000E+00 0. -1.
        -14    1    4    4    0    0  0.59285568851E+02  0.45051850996E+02  0.28026280215E+02  0.79560796470E+02  0.00000000000E+00 0.  1.
<mgrwt>
<rscale>  2 0.24478380E+03</rscale>
<asrwt>0</asrwt>
<pdfrwt beam="1">  1       21 0.18146146E+00 0.24596331E+03</pdfrwt>
<pdfrwt beam="2">  1       21 0.12680402E-01 0.24596331E+03</pdfrwt>
<totfact> 0.90867880E+03</totfact>
</mgrwt>
</event>
<event>
12    1  0.1026879E-001  0.1768610E+03  0.7546771E-02  0.1171372E+00
         21   -1    0    0  501  502  0.00000000000E+00  0.00000000000E+00  0.14233787428E+03  0.14233787428E+03  0.00000000000E+00 0. -1.
         21   -1    0    0  502  503 -0.00000000000E+00 -0.00000000000E+00 -0.27034331203E+03  0.27034331203E+03  0.00000000000E+00 0. -1.
         -6    2    1    2    0  503  0.25811701840E+02 -0.20608550587E+02 -0.15511669195E+03  0.23375429873E+03  0.17172340477E+03 0.  0.
        -24    2    3    3    0    0  0.41731900902E+02 -0.74312876782E+02 -0.83631689850E+02  0.14281584199E+03  0.78346346230E+02 0.  0.
          6    2    1    2  501    0 -0.25811701840E+02  0.20608550587E+02  0.27111254199E+02  0.17892688758E+03  0.17374940197E+03 0.  0.
         24    2    5    5    0    0 -0.38956887549E+02  0.31495487479E+02 -0.44522008226E+02  0.10513843599E+03  0.81007880396E+02 0.  0.
          5    1    5    5  501    0  0.13145185709E+02 -0.10886936892E+02  0.71633262425E+02  0.73788451589E+02  0.47000000000E+01 0. -1.
        -11    1    6    6    0    0 -0.51691519627E+02 -0.88377624489E+01 -0.30016000606E+02  0.60424163534E+02  0.00000000000E+00 0.  1.
         12    1    6    6    0    0  0.12734632078E+02  0.40333249928E+02 -0.14506007620E+02  0.44714272452E+02  0.00000000000E+00 0. -1.
         -5    1    3    3    0  503 -0.15920199062E+02  0.53704326195E+02 -0.71485002096E+02  0.90938456744E+02  0.47000000000E+01 0.  1.
         13    1    4    4    0    0 -0.58821079685E+01 -0.12647491762E+02 -0.59710092574E+02  0.61317643442E+02  0.00000000000E+00 0. -1.
        -14    1    4    4    0    0  0.47614008871E+02 -0.61665385020E+02 -0.23921597276E+02  0.81498198549E+02  0.00000000000E+00 0.  1.
<mgrwt>
<rscale>  2 0.17636139E+03</rscale>
<asrwt>0</asrwt>
<pdfrwt beam="1">  1       21 0.21898135E-01 0.17686099E+03</pdfrwt>
<pdfrwt beam="2">  1       21 0.41591278E-01 0.17686099E+03</pdfrwt>
<totfact> 0.10901084E+05</totfact>
</mgrwt>
</event>
<event>
12    1  0.1026879E-001  0.3931177E+03  0.7546771E-02  0.1046216E+00
         21   -1    0    0  503  502  0.00000000000E+00  0.00000000000E+00  0.38255795382E+03  0.38255795382E+03  0.00000000000E+00 0.  1.
         21   -1    0    0  501  503 -0.00000000000E+00 -0.00000000000E+00 -0.45134931475E+03  0.45134931475E+03  0.00000000000E+00 0. -1.
          6    2    1    2  501    0  0.14977404157E+03 -0.31958298288E+03 -0.16994602305E+03  0.42827934958E+03  0.17313579655E+03 0.  0.
         24    2    3    3    0    0  0.17224141614E+03 -0.25101267107E+03 -0.16503743397E+03  0.35580276833E+03  0.81754442516E+02 0.  0.
         -6    2    1    2    0  502 -0.14977404157E+03  0.31958298288E+03  0.10115466213E+03  0.40562791899E+03  0.17244186416E+03 0.  0.
        -24    2    5    5    0    0 -0.12272938325E+03  0.27408041488E+03  0.23717593140E+02  0.31171047177E+03  0.80114409761E+02 0.  0.
          5    1    3    3  501    0 -0.22467374571E+02 -0.68570311815E+02 -0.49085890880E+01  0.72476581248E+02  0.47000000000E+01 0. -1.
        -13    1    4    4    0    0  0.16514888056E+03 -0.20514878196E+03 -0.11446309143E+03  0.28716193131E+03  0.00000000000E+00 0.  1.
         14    1    4    4    0    0  0.70925355817E+01 -0.45863889108E+02 -0.50574342534E+02  0.68640837028E+02  0.00000000000E+00 0. -1.
         -5    1    5    5    0  502 -0.27044658320E+02  0.45502568001E+02  0.77437068990E+02  0.93917447219E+02  0.47000000000E+01 0.  1.
         13    1    6    6    0    0 -0.12016214143E+03  0.23386248221E+03  0.44018421669E+02  0.26658623795E+03  0.00000000000E+00 0. -1.
        -14    1    6    6    0    0 -0.25672418268E+01  0.40217932672E+02 -0.20300828529E+02  0.45124233821E+02  0.00000000000E+00 0.  1.
<mgrwt>
<rscale>  2 0.39304143E+03</rscale>
<asrwt>0</asrwt>
<pdfrwt beam="1">  1       21 0.58855070E-01 0.39311773E+03</pdfrwt>
<pdfrwt beam="2">  1       21 0.69438356E-01 0.39311773E+03</pdfrwt>
<totfact> 0.45642690E+03</totfact>
</mgrwt>
</event>
<event>
12    1  0.1026879E-001  0.1753723E+03  0.7546771E-02  0.1172513E+00
         21   -1    0    0  503  502  0.00000000000E+00  0.00000000000E+00  0.31298196163E+03  0.31298196163E+03  0.00000000000E+00 0. -1.
         21   -1    0    0  501  503 -0.00000000000E+00 -0.00000000000E+00 -0.19147969752E+03  0.19147969752E+03  0.00000000000E+00 0. -1.
          6    2    1    2  501    0 -0.48741455756E+01 -0.31400114803E+02 -0.11561376846E+03  0.20953888115E+03  0.17184375097E+03 0.  0.
         24    2    3    3    0    0 -0.50581881512E+02 -0.60377582706E+02 -0.50591251470E+02  0.12481044149E+03  0.82548121411E+02 0.  0.
         -6    2    1    2    0  502  0.48741455756E+01  0.31400114803E+02  0.23711603257E+03  0.29492277801E+03  0.17246943955E+03 0.  0.
        -24    2    5    5    0    0 -0.29215708832E+02  0.56917012915E+02  0.73471569878E+02  0.12576359134E+03  0.79531788142E+02 0.  0.
          5    1    3    3  501    0  0.45707735937E+02  0.28977467903E+02 -0.65022516994E+02  0.84728439658E+02  0.47000000000E+01 0. -1.
        -11    1    4    4    0    0  0.10594985349E+02 -0.38065124087E+02 -0.44342618935E+02  0.59392552061E+02  0.00000000000E+00 0.  1.
         12    1    4    4    0    0 -0.61176866862E+02 -0.22312458619E+02 -0.62486325355E+01  0.65417889428E+02  0.00000000000E+00 0. -1.
         -5    1    5    5    0  502  0.34089854408E+02 -0.25516898112E+02  0.16364446269E+03  0.16915918667E+03  0.47000000000E+01 0.  1.
         13    1    6    6    0    0  0.17399147223E+02 -0.99218373812E+01  0.95180639712E+01  0.22175813917E+02  0.00000000000E+00 0. -1.
        -14    1    6    6    0    0 -0.46614856056E+02  0.66838850296E+02  0.63953505907E+02  0.10358777742E+03  0.00000000000E+00 0.  1.
<mgrwt>
<rscale>  2 0.17521824E+03</rscale>
<asrwt>0</asrwt>
<pdfrwt beam="1">  1       21 0.48151071E-01 0.17537227E+03</pdfrwt>
<pdfrwt beam="2">  1       21 0.29458415E-01 0.17537227E+03</pdfrwt>
<totfact> 0.45884248E+04</totfact>
</mgrwt>
</event>
<event>
12    1  0.1026879E-001  0.3884308E+03  0.7546771E-02  0.1047867E+00
         21   -1    0    0  503  502  0.00000000000E+00  0.00000000000E+00  0.81642177824E+02  0.81642177824E+02  0.00000000000E+00 0. -1.
         21   -1    0    0  501  503 -0.00000000000E+00 -0.00000000000E+00 -0.18480192188E+04  0.18480192188E+04  0.00000000000E+00 0. -1.
          6    2    1    2  501    0 -0.31231736220E+03 -0.15329224200E+03 -0.87089399416E+03  0.95356285991E+03  0.17258369725E+03 0.  0.
         24    2    3    3    0    0 -0.20533759517E+03 -0.14087893772E+03 -0.73442839994E+03  0.77965567467E+03  0.80420726870E+02 0.  0.
         -6    2    1    2    0  502  0.31231736220E+03  0.15329224200E+03 -0.89548304686E+03  0.97609853675E+03  0.17273627312E+03 0.  0.
        -24    2    5    5    0    0  0.23888766317E+03  0.75467255649E+02 -0.75238890594E+03  0.79736221597E+03  0.83275538975E+02 0.  0.
          5    1    3    3  501    0 -0.10697976703E+03 -0.12413304284E+02 -0.13646559421E+03  0.17390718525E+03  0.47000000000E+01 0. -1.
        -11    1    4    4    0    0 -0.82538700624E+02 -0.91317029082E+02 -0.27033978669E+03  0.29704383038E+03  0.00000000000E+00 0.  1.
         12    1    4    4    0    0 -0.12279889455E+03 -0.49561908638E+02 -0.46408861326E+03  0.48261184428E+03  0.00000000000E+00 0. -1.
         -5    1    5    5    0  502  0.73429699029E+02  0.77824986355E+02 -0.14309414092E+03  0.17873632078E+03  0.47000000000E+01 0.  1.
         13    1    6    6    0    0  0.66186334371E+02  0.59857217451E+02 -0.29516670137E+03  0.30836163662E+03  0.00000000000E+00 0. -1.
        -14    1    6    6    0    0  0.17270132880E+03  0.15610038198E+02 -0.45722220457E+03  0.48900057935E+03  0.00000000000E+00 0.  1.
<mgrwt>
<rscale>  2 0.38841382E+03</rscale>
<asrwt>0</asrwt>
<pdfrwt beam="1">  1       21 0.12560335E-01 0.38843077E+03</pdfrwt>
<pdfrwt beam="2">  1       21 0.28431066E+00 0.38843077E+03</pdfrwt>
<totfact> 0.19292108E+03</totfact>
</mgrwt>
</event>
<event>
12    1  0.1026879E-001  0.1930814E+03  0.7546771E-02  0.1155796E+00
         21   -1    0    0  501  502  0.00000000000E+00  0.00000000000E+00  0.10047409349E+04  0.10047409349E+04  0.00000000000E+00 0.  1.
         21   -1    0    0  502  503 -0.00000000000E+00 -0.00000000000E+00 -0.49751814109E+02  0.49751814109E+02  0.00000000000E+00 0.  1.
         -6    2    1    2    0  503  0.76784759057E+02  0.41200148759E+02  0.21053794360E+03  0.28541018501E+03  0.17187028986E+03 0.  0.
        -24    2    3    3    0    0  0.45476836813E+02 -0.22353149196E+02  0.44340268436E+02  0.10468120310E+03  0.80151661937E+02 0.  0.
          6    2    1    2  501    0 -0.76784759057E+02 -0.41200148759E+02  0.74445117717E+03  0.76908256397E+03  0.17229940085E+03 0.  0.
         24    2    5    5    0    0 -0.10673847670E+03 -0.69727564689E+02  0.57490306460E+03  0.59449822579E+03  0.81606195237E+02 0.  0.
          5    1    5    5  501    0  0.29953717641E+02  0.28527415930E+02  0.16954811258E+03  0.17458433818E+03  0.47000000000E+01 0. -1.
        -11    1    6    6    0    0 -0.71483360805E+02 -0.79947777973E+02  0.49618332515E+03  0.50764102497E+03  0.00000000000E+00 0.  1.
         12    1    6    6    0    0 -0.35255115892E+02  0.10220213284E+02  0.78719739449E+02  0.86857200825E+02  0.00000000000E+00 0. -1.
         -5    1    3    3    0  503  0.31307922244E+02  0.63553297956E+02  0.16619767516E+03  0.18072898192E+03  0.47000000000E+01 0.  1.
         13    1    4    4    0    0 -0.18254018314E+02  0.11304795248E+02  0.17756209519E+02  0.27861991255E+02  0.00000000000E+00 0. -1.
        -14    1    4    4    0    0  0.63730855127E+02 -0.33657944444E+02  0.26584058917E+02  0.76819211841E+02  0.00000000000E+00 0.  1.
<mgrwt>
<rscale>  2 0.19298564E+03</rscale>
<asrwt>0</asrwt>
<pdfrwt beam="1">  1       21 0.15457551E+00 0.19308142E+03</pdfrwt>
<pdfrwt beam="2">  1       21 0.76541260E-02 0.19308142E+03</pdfrwt>
<totfact> 0.35768538E+04</totfact>
</mgrwt>
</event>
<event>
12    1  0.1026879E-001  0.2070898E+03  0.7546771E-02  0.1144138E+00
         21   -1    0    0  501  502  0.00000000000E+00  0.00000000000E+00  0.40820753266E+02  0.40820753266E+02  0.00000000000E+00 0.  1.
         21   -1    0    0  502  503 -0.00000000000E+00 -0.00000000000E+00 -0.16139859201E+04  0.16139859201E+04  0.00000000000E+00 0. -1.
         -6    2    1    2    0  503  0.85054637049E+02  0.73578132370E+02 -0.12765942947E+04  0.12930879197E+04  0.17243938688E+03 0.  0.
        -24    2    3    3    0    0  0.62363035501E+02  0.27330286725E+02 -0.36283239195E+03  0.37786298735E+03  0.80603968828E+02 0.  0.
          6    2    1    2  501    0 -0.85054637049E+02 -0.73578132370E+02 -0.29657087212E+03  0.36171875359E+03  0.17389117763E+03 0.  0.
         24    2    5    5    0    0 -0.94085541004E+02 -0.11154225298E+03 -0.25614726161E+03  0.30533622112E+03  0.79530026231E+02 0.  0.
          5    1    5    5  501    0  0.90309039551E+01  0.37964120613E+02 -0.40423610517E+02  0.56382532467E+02  0.47000000000E+01 0. -1.
        -11    1    6    6    0    0 -0.19412900462E+02 -0.82987572463E+02 -0.11528013929E+03  0.14336425078E+03  0.00000000000E+00 0.  1.
         12    1    6    6    0    0 -0.74672640542E+02 -0.28554680520E+02 -0.14086712232E+03  0.16197197034E+03  0.00000000000E+00 0. -1.
         -5    1    3    3    0  503  0.22691601548E+02  0.46247845645E+02 -0.91376190271E+03  0.91522493238E+03  0.47000000000E+01 0.  1.
         11    1    4    4    0    0  0.35783142961E+02 -0.22226874619E+02 -0.22656768422E+03  0.23045039121E+03  0.00000000000E+00 0. -1.
        -12    1    4    4    0    0  0.26579892540E+02  0.49557161344E+02 -0.13626470773E+03  0.14741259614E+03  0.00000000000E+00 0.  1.
<mgrwt>
<rscale>  2 0.20678471E+03</rscale>
<asrwt>0</asrwt>
<pdfrwt beam="1">  1       21 0.62801168E-02 0.20708977E+03</pdfrwt>
<pdfrwt beam="2">  1       21 0.24830549E+00 0.20708977E+03</pdfrwt>
<totfact> 0.12245077E+04</totfact>
</mgrwt>
</event>
<event>
12    1  0.1026879E-001  0.2419790E+03  0.7546771E-02  0.1118632E+00
         21   -1    0    0  501  502  0.00000000000E+00  0.00000000000E+00  0.80679237523E+03  0.80679237523E+03  0.00000000000E+00 0. -1.
         21   -1    0    0  502  503 -0.00000000000E+00 -0.00000000000E+00 -0.75372469835E+02  0.75372469835E+02  0.00000000000E+00 0. -1.
         -6    2    1    2    0  503  0.14173023956E+03 -0.90600065735E+02  0.27604132114E+03  0.36648714952E+03  0.17267943442E+03 0.  0.
        -24    2    3    3    0    0  0.97225600853E+02 -0.38894513661E+02  0.71568686728E+02  0.15088270800E+03  0.81718504627E+02 0.  0.
          6    2    1    2  501    0 -0.14173023956E+03  0.90600065735E+02  0.45537858426E+03  0.51567769555E+03  0.17394826232E+03 0.  0.
         24    2    5    5    0    0 -0.75599123738E+02 -0.19382310319E+02  0.17643738738E+03  0.20859508640E+03  0.79314922566E+02 0.  0.
          5    1    5    5  501    0 -0.66131115825E+02  0.10998237605E+03  0.27894119688E+03  0.30708260915E+03  0.47000000000E+01 0. -1.
        -11    1    6    6    0    0  0.11213999217E+02  0.10075215347E+02  0.86081292879E+01  0.17359828126E+02  0.00000000000E+00 0.  1.
         12    1    6    6    0    0 -0.86813122955E+02 -0.29457525666E+02  0.16782925809E+03  0.19123525827E+03  0.00000000000E+00 0. -1.
         -5    1    3    3    0  503  0.44504638710E+02 -0.51705552073E+02  0.20447263441E+03  0.21560444152E+03  0.47000000000E+01 0.  1.
         11    1    4    4    0    0  0.41096719541E+01 -0.20239700832E+02 -0.12424271207E+02  0.24101813384E+02  0.00000000000E+00 0. -1.
        -12    1    4    4    0    0  0.93115928899E+02 -0.18654812829E+02  0.83992957935E+02  0.12678089461E+03  0.00000000000E+00 0.  1.
<mgrwt>
<rscale>  2 0.24175104E+03</rscale>
<asrwt>0</asrwt>
<pdfrwt beam="1">  1       21 0.12412190E+00 0.24197899E+03</pdfrwt>
<pdfrwt beam="2">  1       21 0.11595765E-01 0.24197899E+03</pdfrwt>
<totfact> 0.29475513E+04</totfact>
</mgrwt>
</event>
<event>
12    1  0.1026879E-001  0.2033906E+03  0.7546771E-02  0.1146915E+00
         21   -1    0    0  501  502  0.00000000000E+00  0.00000000000E+00  0.17934016408E+03  0.17934016408E+03  0.00000000000E+00 0. -1.
         21   -1    0    0  502  503 -0.00000000000E+00 -0.00000000000E+00 -0.30847342568E+03  0.30847342568E+03  0.00000000000E+00 0.  1.
         -6    2    1    2    0  503 -0.39908390924E+02  0.10034464634E+03 -0.18708960091E+03  0.27635166312E+03  0.17235427244E+03 0.  0.
        -24    2    3    3    0    0 -0.83699640695E+02  0.27839220639E+02 -0.11603627380E+03  0.16569283787E+03  0.78797510284E+02 0.  0.
          6    2    1    2  501    0  0.39908390924E+02 -0.10034464634E+03  0.57956339303E+02  0.21146192664E+03  0.17232376922E+03 0.  0.
         24    2    5    5    0    0 -0.16536068226E+02 -0.10993211387E+03  0.38711368244E+02  0.15087846839E+03  0.94378127655E+02 0.  0.
          5    1    5    5  501    0  0.56444459151E+02  0.95874675302E+01  0.19244971059E+02  0.60583458250E+02  0.47000000000E+01 0. -1.
        -13    1    6    6    0    0  0.18944324873E+02 -0.34921327133E+01  0.33397680087E+02  0.38554992815E+02  0.00000000000E+00 0.  1.
         14    1    6    6    0    0 -0.35480393099E+02 -0.10643998116E+03  0.53136881567E+01  0.11232347557E+03  0.00000000000E+00 0. -1.
         -5    1    3    3    0  503  0.43791249770E+02  0.72505425699E+02 -0.71053327111E+02  0.11065882525E+03  0.47000000000E+01 0.  1.
         13    1    4    4    0    0 -0.60229722068E+00  0.18550323453E+02  0.44018908315E+01  0.19074954916E+02  0.00000000000E+00 0. -1.
        -14    1    4    4    0    0 -0.83097343474E+02  0.92888971866E+01 -0.12043816463E+03  0.14661788295E+03  0.00000000000E+00 0.  1.
<mgrwt>
<rscale>  2 0.20338411E+03</rscale>
<asrwt>0</asrwt>
<pdfrwt beam="1">  1       21 0.27590795E-01 0.20339057E+03</pdfrwt>
<pdfrwt beam="2">  1       21 0.47457450E-01 0.20339057E+03</pdfrwt>
<totfact> 0.52958610E+04</totfact>
</mgrwt>
</event>
<event>
12    1  0.1026879E-001  0.3213944E+03  0.7546771E-02  0.1075240E+00
         21   -1    0    0  503  502  0.00000000000E+00  0.00000000000E+00  0.35172805877E+03  0.35172805877E+03  0.00000000000E+00 0. -1.
         21   -1    0    0  501  503 -0.00000000000E+00 -0.00000000000E+00 -0.29340819340E+03  0.29340819340E+03  0.00000000000E+00 0.  1.
          6    2    1    2  501    0  0.19484793789E+03 -0.18815897447E+03  0.55365357005E+01  0.31943634400E+03  0.16923181164E+03 0.  0.
         24    2    3    3    0    0  0.13023246503E+03 -0.10716366788E+03 -0.61371222304E+02  0.19600969736E+03  0.78796115821E+02 0.  0.
         -6    2    1    2    0  502 -0.19484793789E+03  0.18815897447E+03  0.52783329675E+02  0.32569990817E+03  0.17298795251E+03 0.  0.
        -24    2    5    5    0    0 -0.98776584932E+02  0.78794037666E+02  0.91330435761E+02  0.17504014695E+03  0.79576946703E+02 0.  0.
          5    1    3    3  501    0  0.64615472857E+02 -0.80995306586E+02  0.66907758004E+02  0.12342664665E+03  0.47000000000E+01 0. -1.
        -13    1    4    4    0    0 -0.40828630484E+01 -0.22032802023E+02 -0.23641365083E+02  0.32573429028E+02  0.00000000000E+00 0.  1.
         14    1    4    4    0    0  0.13431532808E+03 -0.85130865862E+02 -0.37729857221E+02  0.16343626833E+03  0.00000000000E+00 0. -1.
         -5    1    5    5    0  502 -0.96071352957E+02  0.10936493680E+03 -0.38547106087E+02  0.15065976121E+03  0.47000000000E+01 0.  1.
         11    1    6    6    0    0 -0.41609637999E+02 -0.87755061880E+01  0.13289672957E+02  0.44553191699E+02  0.00000000000E+00 0. -1.
        -12    1    6    6    0    0 -0.57166946933E+02  0.87569543854E+02  0.78040762805E+02  0.13048695525E+03  0.00000000000E+00 0.  1.
<mgrwt>
<rscale>  2 0.32089170E+03</rscale>
<asrwt>0</asrwt>
<pdfrwt beam="1">  1       21 0.54112009E-01 0.32139438E+03</pdfrwt>
<pdfrwt beam="2">  1       21 0.45139722E-01 0.32139438E+03</pdfrwt>
<totfact> 0.14241889E+04</totfact>
</mgrwt>
</event>
<event>
12    1  0.1026879E-001  0.1841549E+03  0.7546771E-02  0.1164074E+00
         21   -1    0    0  501  502  0.00000000000E+00  0.00000000000E+00  0.12844383829E+04  0.12844383829E+04  0.00000000000E+00 0.  1.
         21   -1    0    0  502  503 -0.00000000000E+00 -0.00000000000E+00 -0.36112832713E+02  0.36112832713E+02  0.00000000000E+00 0.  1.
         -6    2    1    2    0  503 -0.39831410407E+02 -0.49194773353E+02  0.28052863760E+03  0.33557318319E+03  0.17293460551E+03 0.  0.
        -24    2    3    3    0    0 -0.56685535120E+02 -0.52544068989E+02  0.86860215509E+02  0.14108712452E+03  0.79917148282E+02 0.  0.
          6    2    1    2  501    0  0.39831410407E+02  0.49194773353E+02  0.96779691263E+03  0.98497803247E+03  0.17188424409E+03 0.  0.
         24    2    5    5    0    0  0.23620580307E+02  0.96018730038E+02  0.79477937268E+03  0.80494349949E+03  0.80512469905E+02 0.  0.
          5    1    5    5  501    0  0.16210830100E+02 -0.46823956685E+02  0.17301753995E+03  0.18003453297E+03  0.47000000000E+01 0. -1.
        -11    1    6    6    0    0  0.44219974080E+02  0.44678155642E+02  0.26829203927E+03  0.27555791049E+03  0.00000000000E+00 0.  1.
         12    1    6    6    0    0 -0.20599393773E+02  0.51340574397E+02  0.52648733341E+03  0.52938558900E+03  0.00000000000E+00 0. -1.
         -5    1    3    3    0  503  0.16854124713E+02  0.33492956353E+01  0.19366842209E+03  0.19448605867E+03  0.47000000000E+01 0.  1.
         11    1    4    4    0    0  0.39280952333E+01 -0.46184145829E+02  0.56246704921E+02  0.72884134574E+02  0.00000000000E+00 0. -1.
        -12    1    4    4    0    0 -0.60613630353E+02 -0.63599231599E+01  0.30613510589E+02  0.68202989948E+02  0.00000000000E+00 0.  1.
<mgrwt>
<rscale>  2 0.18390795E+03</rscale>
<asrwt>0</asrwt>
<pdfrwt beam="1">  1       21 0.19760587E+00 0.18415495E+03</pdfrwt>
<pdfrwt beam="2">  1       21 0.55558214E-02 0.18415495E+03</pdfrwt>
<totfact> 0.31471109E+04</totfact>
</mgrwt>
</event>
<event>
12    1  0.1026879E-001  0.2456790E+03  0.7546771E-02  0.1116152E+00
         21   -1    0    0  501  502  0.00000000000E+00  0.00000000000E+00  0.98574908518E+02  0.98574908518E+02  0.00000000000E+00 0. -1.
         21   -1    0    0  502  503 -0.00000000000E+00 -0.00000000000E+00 -0.69213880592E+03  0.69213880592E+03  0.00000000000E+00 0.  1.
         -6    2    1    2    0  503 -0.15761610917E+03  0.74058922496E+02 -0.43187654310E+03  0.49660320445E+03  0.17253936455E+03 0.  0.
        -24    2    3    3    0    0 -0.59213370727E+02  0.39185389186E+02 -0.88523960826E+02  0.13769883277E+03  0.77992043871E+02 0.  0.
          6    2    1    2  501    0  0.15761610917E+03 -0.74058922496E+02 -0.16168735430E+03  0.29411050999E+03  0.17329347844E+03 0.  0.
         24    2    5    5    0    0  0.18397900153E+03 -0.69885938149E+02 -0.11826514101E+03  0.24292462815E+03  0.79331040762E+02 0.  0.
          5    1    5    5  501    0 -0.26362892360E+02 -0.41729843471E+01 -0.43422213295E+02  0.51185881836E+02  0.47000000000E+01 0. -1.
        -11    1    6    6    0    0 -0.80958563465E+00  0.54311978298E+01 -0.19526808622E+02  0.20284220314E+02  0.00000000000E+00 0.  1.
         12    1    6    6    0    0  0.18478858717E+03 -0.75317135979E+02 -0.98738332386E+02  0.22264040784E+03  0.00000000000E+00 0. -1.
         -5    1    3    3    0  503 -0.98402738446E+02  0.34873533311E+02 -0.34335258228E+03  0.35890437169E+03  0.47000000000E+01 0.  1.
         11    1    4    4    0    0  0.16138229524E+02  0.23254716500E+02 -0.27099608139E+02  0.39186898996E+02  0.00000000000E+00 0. -1.
        -12    1    4    4    0    0 -0.75351600251E+02  0.15930672686E+02 -0.61424352687E+02  0.98511933773E+02  0.00000000000E+00 0.  1.
<mgrwt>
<rscale>  2 0.24554610E+03</rscale>
<asrwt>0</asrwt>
<pdfrwt beam="1">  1       21 0.15165370E-01 0.24567904E+03</pdfrwt>
<pdfrwt beam="2">  1       21 0.10648290E+00 0.24567904E+03</pdfrwt>
<totfact> 0.26389565E+04</totfact>
</mgrwt>
</event>
<event>
12    1  0.1026879E-001  0.1835595E+03  0.7546771E-02  0.1164783E+00
         21   -1    0    0  503  502  0.00000000000E+00  0.00000000000E+00  0.27122447918E+02  0.27122447918E+02  0.00000000000E+00 0. -1.
         21   -1    0    0  501  503 -0.00000000000E+00 -0.00000000000E+00 -0.12550393800E+04  0.12550393800E+04  0.00000000000E+00 0. -1.
          6    2    1    2  501    0 -0.12847198384E+02 -0.54452663997E+02 -0.52870545520E+03  0.55966376625E+03  0.17482542654E+03 0.  0.
         24    2    3    3    0    0  0.28476910352E+02 -0.15375507399E+01 -0.44065257567E+03  0.44883466011E+03  0.80402494878E+02 0.  0.
         -6    2    1    2    0  502  0.12847198384E+02  0.54452663997E+02 -0.69921147683E+03  0.72249806163E+03  0.17313756552E+03 0.  0.
        -24    2    5    5    0    0 -0.52865000905E+02  0.56197397247E+02 -0.38453871943E+03  0.40099818373E+03  0.83526408053E+02 0.  0.
          5    1    3    3  501    0 -0.41324108736E+02 -0.52915113257E+02 -0.88052879534E+02  0.11082910614E+03  0.47000000000E+01 0. -1.
        -13    1    4    4    0    0  0.26723897925E+02 -0.31677712798E+02 -0.36553421191E+03  0.36787620783E+03  0.00000000000E+00 0.  1.
         14    1    4    4    0    0  0.17530124266E+01  0.30140162058E+02 -0.75118363755E+02  0.80958452275E+02  0.00000000000E+00 0. -1.
         -5    1    5    5    0  502  0.65712199289E+02 -0.17447332496E+01 -0.31467275741E+03  0.32149987789E+03  0.47000000000E+01 0.  1.
         11    1    6    6    0    0  0.18484522807E+02  0.63422296012E+01 -0.14149745468E+03  0.14284057946E+03  0.00000000000E+00 0. -1.
        -12    1    6    6    0    0 -0.71349523712E+02  0.49855167646E+02 -0.24304126475E+03  0.25815760427E+03  0.00000000000E+00 0.  1.
<mgrwt>
<rscale>  2 0.18315642E+03</rscale>
<asrwt>0</asrwt>
<pdfrwt beam="1">  1       21 0.41726844E-02 0.18355945E+03</pdfrwt>
<pdfrwt beam="2">  1       21 0.19308298E+00 0.18355945E+03</pdfrwt>
<totfact> 0.54652714E+04</totfact>
</mgrwt>
</event>
<event>
12    1  0.1026879E-001  0.1981818E+03  0.7546771E-02  0.1151304E+00
         21   -1    0    0  501  502  0.00000000000E+00  0.00000000000E+00  0.10490893319E+04  0.10490893319E+04  0.00000000000E+00 0. -1.
         21   -1    0    0  502  503 -0.00000000000E+00 -0.00000000000E+00 -0.18019558153E+03  0.18019558153E+03  0.00000000000E+00 0. -1.
         -6    2    1    2    0  503 -0.93668346884E+02 -0.19927893178E+02 -0.11269240689E+03  0.22789216993E+03  0.17339083716E+03 0.  0.
        -24    2    3    3    0    0 -0.13383263736E+03 -0.11499565221E+02 -0.86455209838E+02  0.17895662610E+03  0.80669423537E+02 0.  0.
          6    2    1    2  501    0  0.93668346884E+02  0.19927893178E+02  0.98158615722E+03  0.10013927435E+04  0.17350839309E+03 0.  0.
         24    2    5    5    0    0  0.40170501313E+02  0.77451720001E+02  0.64821888016E+03  0.65886268413E+03  0.79371794928E+02 0.  0.
          5    1    5    5  501    0  0.53497845571E+02 -0.57523826824E+02  0.33336727706E+03  0.34253005933E+03  0.47000000000E+01 0. -1.
        -11    1    6    6    0    0  0.11808909718E+01 -0.60994464415E+01  0.26690145249E+01  0.67617593061E+01  0.00000000000E+00 0.  1.
         12    1    6    6    0    0  0.38989610341E+02  0.83551166443E+02  0.64554986564E+03  0.65210092482E+03  0.00000000000E+00 0. -1.
         -5    1    3    3    0  503  0.40164290472E+02 -0.84283279564E+01 -0.26237197048E+02  0.48935543833E+02  0.47000000000E+01 0.  1.
         13    1    4    4    0    0 -0.12883303287E+02  0.26846306665E+02 -0.15126802942E+02  0.33399458864E+02  0.00000000000E+00 0. -1.
        -14    1    4    4    0    0 -0.12094933407E+03 -0.38345871887E+02 -0.71328406896E+02  0.14555716723E+03  0.00000000000E+00 0.  1.
<mgrwt>
<rscale>  2 0.19815611E+03</rscale>
<asrwt>0</asrwt>
<pdfrwt beam="1">  1       21 0.16139836E+00 0.19818184E+03</pdfrwt>
<pdfrwt beam="2">  1       21 0.27722398E-01 0.19818184E+03</pdfrwt>
<totfact> 0.30380631E+03</totfact>
</mgrwt>
</event>
<event>
12    1  0.1026879E-001  0.2874091E+03  0.7546771E-02  0.1092283E+00
         21   -1    0    0  501  502  0.00000000000E+00  0.00000000000E+00  0.21746962211E+04  0.21746962211E+04  0.00000000000E+00 0. -1.
         21   -1    0    0  502  503 -0.00000000000E+00 -0.00000000000E+00 -0.62320765931E+02  0.62320765931E+02  0.00000000000E+00 0.  1.
         -6    2    1    2    0  503 -0.21296618096E+03 -0.75952804635E+02  0.34435216114E+03  0.44578547084E+03  0.17036094729E+03 0.  0.
        -24    2    3    3    0    0 -0.12308413802E+03 -0.55590379279E+02  0.31077889095E+03  0.34758840122E+03  0.77422104743E+02 0.  0.
          6    2    1    2  501    0  0.21296618096E+03  0.75952804635E+02  0.17680232941E+04  0.17912315162E+04  0.17742760105E+03 0.  0.
         24    2    5    5    0    0  0.10320747484E+03 -0.30749203957E+02  0.84607859273E+03  0.85665331484E+03  0.80053858946E+02 0.  0.
          5    1    5    5  501    0  0.10975870612E+03  0.10670200859E+03  0.92194470134E+03  0.93457820140E+03  0.47000000000E+01 0. -1.
        -11    1    6    6    0    0  0.88113316514E+02 -0.29793202391E+02  0.41442452701E+03  0.42473436410E+03  0.00000000000E+00 0.  1.
         12    1    6    6    0    0  0.15094158330E+02 -0.95600156555E+00  0.43165406572E+03  0.43191895074E+03  0.00000000000E+00 0. -1.
         -5    1    3    3    0  503 -0.89882042940E+02 -0.20362425355E+02  0.33573270190E+02  0.98197069614E+02  0.47000000000E+01 0.  1.
         13    1    4    4    0    0 -0.95295408146E+02 -0.99008675461E+01  0.24332927126E+03  0.26151171340E+03  0.00000000000E+00 0. -1.
        -14    1    4    4    0    0 -0.27788729876E+02 -0.45689511733E+02  0.67449619689E+02  0.86076687824E+02  0.00000000000E+00 0.  1.
<mgrwt>
<rscale>  2 0.28632599E+03</rscale>
<asrwt>0</asrwt>
<pdfrwt beam="1">  1       21 0.33456859E+00 0.28740907E+03</pdfrwt>
<pdfrwt beam="2">  1       21 0.95878118E-02 0.28740907E+03</pdfrwt>
<totfact> 0.16951636E+03</totfact>
</mgrwt>
</event>
<event>
12    1  0.1026879E-001  0.2141128E+03  0.7546771E-02  0.1138710E+00
         21   -1    0    0  501  502  0.00000000000E+00  0.00000000000E+00  0.25581761888E+03  0.25581761888E+03  0.00000000000E+00 0. -1.
         21   -1    0    0  502  503 -0.00000000000E+00 -0.00000000000E+00 -0.21573120961E+03  0.21573120961E+03  0.00000000000E+00 0.  1.
         -6    2    1    2    0  503 -0.43678081568E+02 -0.11723007602E+03 -0.78937467795E+02  0.22820041691E+03  0.17376317482E+03 0.  0.
        -24    2    3    3    0    0 -0.18959723560E+01 -0.14057512567E+01 -0.64462192608E+02  0.10413332841E+03  0.81748424829E+02 0.  0.
          6    2    1    2  501    0  0.43678081568E+02  0.11723007602E+03  0.11902387707E+03  0.24334841159E+03  0.17146749132E+03 0.  0.
         24    2    5    5    0    0  0.82964810058E+01  0.67780928348E+02  0.16737459204E+00  0.10975936248E+03  0.85930226302E+02 0.  0.
          5    1    5    5  501    0  0.35381600562E+02  0.49449147670E+02  0.11885650247E+03  0.13358904912E+03  0.47000000000E+01 0. -1.
        -13    1    6    6    0    0 -0.22408330064E+02  0.70713809964E+02 -0.14535020501E+02  0.75589966244E+02  0.00000000000E+00 0.  1.
         14    1    6    6    0    0  0.30704811070E+02 -0.29328816160E+01  0.14702395093E+02  0.34169396232E+02  0.00000000000E+00 0. -1.
         -5    1    3    3    0  503 -0.41782109212E+02 -0.11582432476E+03 -0.14475275187E+02  0.12406708850E+03  0.47000000000E+01 0.  1.
         13    1    4    4    0    0  0.89197139274E+01 -0.39878547715E+02 -0.24650837103E+02  0.47723407614E+02  0.00000000000E+00 0. -1.
        -14    1    4    4    0    0 -0.10815686283E+02  0.38472796458E+02 -0.39811355505E+02  0.56409920796E+02  0.00000000000E+00 0.  1.
<mgrwt>
<rscale>  2 0.21364661E+03</rscale>
<asrwt>0</asrwt>
<pdfrwt beam="1">  1       21 0.39356557E-01 0.21411284E+03</pdfrwt>
<pdfrwt beam="2">  1       21 0.33189417E-01 0.21411284E+03</pdfrwt>
<totfact> 0.53860106E+04</totfact>
</mgrwt>
</event>
<event>
12    1  0.1026879E-001  0.2095910E+03  0.7546771E-02  0.1142080E+00
         21   -1    0    0  501  502  0.00000000000E+00  0.00000000000E+00  0.27360239527E+03  0.27360239527E+03  0.00000000000E+00 0. -1.
         21   -1    0    0  502  503 -0.00000000000E+00 -0.00000000000E+00 -0.24611566582E+03  0.24611566582E+03  0.00000000000E+00 0. -1.
         -6    2    1    2    0  503  0.10064671688E+03 -0.60763702954E+02 -0.14014470100E+03  0.25133646048E+03  0.17235860853E+03 0.  0.
        -24    2    3    3    0    0  0.11366740241E+03 -0.24527499303E+02 -0.47308151156E+02  0.15072177123E+03  0.83409319424E+02 0.  0.
          6    2    1    2  501    0 -0.10064671688E+03  0.60763702954E+02  0.16763143045E+03  0.26838160061E+03  0.17351195307E+03 0.  0.
         24    2    5    5    0    0 -0.76534926772E+02  0.70309381905E+02  0.37693477311E+02  0.13579781551E+03  0.78862185263E+02 0.  0.
          5    1    5    5  501    0 -0.24111790112E+02 -0.95456789517E+01  0.12993795313E+03  0.13258378511E+03  0.47000000000E+01 0. -1.
        -11    1    6    6    0    0 -0.35574249998E+01  0.27210129706E+02 -0.19400470989E+02  0.33606914553E+02  0.00000000000E+00 0.  1.
         12    1    6    6    0    0 -0.72977501772E+02  0.43099252200E+02  0.57093948299E+02  0.10219090095E+03  0.00000000000E+00 0. -1.
         -5    1    3    3    0  503 -0.13020685521E+02 -0.36236203650E+02 -0.92836549839E+02  0.10061468925E+03  0.47000000000E+01 0.  1.
         11    1    4    4    0    0  0.14308596237E+02  0.12827429413E+02 -0.39934101656E+02  0.44317167629E+02  0.00000000000E+00 0. -1.
        -12    1    4    4    0    0  0.99358806168E+02 -0.37354928716E+02 -0.73740495006E+01  0.10640460361E+03  0.00000000000E+00 0.  1.
<mgrwt>
<rscale>  2 0.20935214E+03</rscale>
<asrwt>0</asrwt>
<pdfrwt beam="1">  1       21 0.42092676E-01 0.20959100E+03</pdfrwt>
<pdfrwt beam="2">  1       21 0.37863948E-01 0.20959100E+03</pdfrwt>
<totfact> 0.36217159E+04</totfact>
</mgrwt>
</event>
<event>
12    1  0.1026879E-001  0.2114862E+03  0.7546771E-02  0.1140501E+00
         21   -1    0    0  503  502  0.00000000000E+00  0.00000000000E+00  0.14562874175E+04  0.14562874175E+04  0.00000000000E+00 0.  1.
         21   -1    0    0  501  503 -0.00000000000E+00 -0.00000000000E+00 -0.30662063887E+02  0.30662063887E+02  0.00000000000E+00 0.  1.
          6    2    1    2  501    0 -0.11821849337E+03 -0.10543018803E+02  0.73432164265E+03  0.76401985885E+03  0.17438836664E+03 0.  0.
         24    2    3    3    0    0  0.24184783438E+01 -0.36392334463E+02  0.26786917499E+03  0.28150409677E+03  0.78488282830E+02 0.  0.
         -6    2    1    2    0  502  0.11821849337E+03  0.10543018803E+02  0.69130371099E+03  0.72292962257E+03  0.17504185483E+03 0.  0.
        -24    2    5    5    0    0  0.77226667602E+02  0.47171984001E+02  0.24713559527E+03  0.27534788043E+03  0.80940092335E+02 0.  0.
          5    1    3    3  501    0 -0.12063697172E+03  0.25849315660E+02  0.46645246766E+03  0.48251576208E+03  0.47000000000E+01 0. -1.
        -11    1    4    4    0    0  0.55603638057E+01  0.23211566608E+02  0.11383136987E+03  0.11630681509E+03  0.00000000000E+00 0.  1.
         12    1    4    4    0    0 -0.31418854620E+01 -0.59603901071E+02  0.15403780512E+03  0.16519728168E+03  0.00000000000E+00 0. -1.
         -5    1    5    5    0  502  0.40991825773E+02 -0.36628965199E+02  0.44416811573E+03  0.44758174214E+03  0.47000000000E+01 0.  1.
         11    1    6    6    0    0  0.86813070178E+02  0.29751364443E+02  0.23442760160E+03  0.25174978298E+03  0.00000000000E+00 0. -1.
        -12    1    6    6    0    0 -0.95864025763E+01  0.17420619559E+02  0.12707993665E+02  0.23598097448E+02  0.00000000000E+00 0.  1.
<mgrwt>
<rscale>  2 0.21135094E+03</rscale>
<asrwt>0</asrwt>
<pdfrwt beam="1">  1       21 0.22404416E+00 0.21148621E+03</pdfrwt>
<pdfrwt beam="2">  1       21 0.47172417E-02 0.21148621E+03</pdfrwt>
<totfact> 0.27810630E+04</totfact>
</mgrwt>
</event>
<event>
12    1  0.1026879E-001  0.2212339E+03  0.7546771E-02  0.1133767E+00
         21   -1    0    0  501  502  0.00000000000E+00  0.00000000000E+00  0.38421275379E+03  0.38421275379E+03  0.00000000000E+00 0. -1.
         21   -1    0    0  502  503 -0.00000000000E+00 -0.00000000000E+00 -0.12573427822E+03  0.12573427822E+03  0.00000000000E+00 0. -1.
         -6    2    1    2    0  503 -0.76653806816E+02  0.11186288331E+03  0.10767925631E+03  0.24220675776E+03  0.16935223796E+03 0.  0.
        -24    2    3    3    0    0  0.15326835661E+02  0.36385017744E+02  0.75723107899E+02  0.11891591381E+03  0.82753997361E+02 0.  0.
          6    2    1    2  501    0  0.76653806816E+02 -0.11186288331E+03  0.15079921925E+03  0.26774027424E+03  0.17480085573E+03 0.  0.
         24    2    5    5    0    0  0.34643354388E+02 -0.22938134065E+02  0.14362690301E+03  0.16901833513E+03  0.78817449496E+02 0.  0.
          5    1    5    5  501    0  0.42010452428E+02 -0.88924749248E+02  0.71723162457E+01  0.98721939113E+02  0.47000000000E+01 0. -1.
        -13    1    6    6    0    0 -0.21107413108E+02  0.87007983512E+01  0.22945630174E+02  0.32368637972E+02  0.00000000000E+00 0.  1.
         14    1    6    6    0    0  0.55750767496E+02 -0.31638932417E+02  0.12068127283E+03  0.13664969716E+03  0.00000000000E+00 0. -1.
         -5    1    3    3    0  503 -0.91980642477E+02  0.75477865570E+02  0.31956148416E+02  0.12329084395E+03  0.47000000000E+01 0.  1.
         13    1    4    4    0    0  0.25662515045E+01  0.51459293126E+02  0.12973396772E+02  0.53131473908E+02  0.00000000000E+00 0. -1.
        -14    1    4    4    0    0  0.12760584156E+02 -0.15074275383E+02  0.62749711127E+02  0.65784439899E+02  0.00000000000E+00 0.  1.
<mgrwt>
<rscale>  2 0.22015624E+03</rscale>
<asrwt>0</asrwt>
<pdfrwt beam="1">  1       21 0.59109654E-01 0.22123393E+03</pdfrwt>
<pdfrwt beam="2">  1       21 0.19343735E-01 0.22123393E+03</pdfrwt>
<totfact> 0.64895146E+04</totfact>
</mgrwt>
</event>
<event>
12    1  0.1026879E-001  0.2166367E+03  0.7546771E-02  0.1137024E+00
         21   -1    0    0  503  502  0.00000000000E+00  0.00000000000E+00  0.14110266165E+04  0.14110266165E+04  0.00000000000E+00 0.  1.
         21   -1    0    0  501  503 -0.00000000000E+00 -0.00000000000E+00 -0.34339580508E+02  0.34339580508E+02  0.00000000000E+00 0. -1.
          6    2    1    2  501    0  0.12628581420E+03 -0.57281274787E+01  0.84743017983E+03  0.87468243136E+03  0.17592762072E+03 0.  0.
         24    2    3    3    0    0  0.81566634309E+02 -0.57236831588E+02  0.70196237133E+03  0.71394685671E+03  0.83903353439E+02 0.  0.
         -6    2    1    2    0  502 -0.12628581420E+03  0.57281274787E+01  0.52925685614E+03  0.57068376563E+03  0.17200645994E+03 0.  0.
        -24    2    5    5    0    0 -0.14961107248E+03  0.24738117939E+02  0.50098637962E+03  0.52912949685E+03  0.77428834274E+02 0.  0.
          5    1    3    3  501    0  0.44719179892E+02  0.51508704110E+02  0.14546780850E+03  0.16073557465E+03  0.47000000000E+01 0. -1.
        -13    1    4    4    0    0  0.21758408498E+01 -0.47668267296E+02  0.33433269236E+03  0.33772081247E+03  0.00000000000E+00 0.  1.
         14    1    4    4    0    0  0.79390793459E+02 -0.95685642925E+01  0.36762967897E+03  0.37622604424E+03  0.00000000000E+00 0. -1.
         -5    1    5    5    0  502  0.23325258280E+02 -0.19009990461E+02  0.28270476518E+02  0.41554268779E+02  0.47000000000E+01 0.  1.
         11    1    6    6    0    0 -0.66307214390E+02 -0.12233391243E+02  0.12256162608E+03  0.13988443347E+03  0.00000000000E+00 0. -1.
        -12    1    6    6    0    0 -0.83303858091E+02  0.36971509182E+02  0.37842475355E+03  0.38924506337E+03  0.00000000000E+00 0.  1.
<mgrwt>
<rscale>  2 0.21583926E+03</rscale>
<asrwt>0</asrwt>
<pdfrwt beam="1">  1       21 0.21708097E+00 0.21663667E+03</pdfrwt>
<pdfrwt beam="2">  1       21 0.52830135E-02 0.21663667E+03</pdfrwt>
<totfact> 0.25230367E+04</totfact>
</mgrwt>
</event>
<event>
12    1  0.1026879E-001  0.2656397E+03  0.7546771E-02  0.1104156E+00
         21   -1    0    0  503  502  0.00000000000E+00  0.00000000000E+00  0.10486522614E+03  0.10486522614E+03  0.00000000000E+00 0. -1.
         21   -1    0    0  501  503 -0.00000000000E+00 -0.00000000000E+00 -0.86709594481E+03  0.86709594481E+03  0.00000000000E+00 0. -1.
          6    2    1    2  501    0  0.71447531951E+02  0.18513214153E+03 -0.61334937920E+03  0.66744497204E+03  0.17293545061E+03 0.  0.
         24    2    3    3    0    0  0.58419231063E+02  0.18480311216E+03 -0.61817570674E+03  0.65277431009E+03  0.80050600825E+02 0.  0.
         -6    2    1    2    0  502 -0.71447531951E+02 -0.18513214153E+03 -0.14888133947E+03  0.30451619891E+03  0.17659502402E+03 0.  0.
        -24    2    5    5    0    0 -0.89720763205E+02 -0.19829118335E+03 -0.10363903665E+03  0.25376161955E+03  0.79276105432E+02 0.  0.
          5    1    3    3  501    0  0.13028300887E+02  0.32902937008E+00  0.48263275366E+01  0.14670661942E+02  0.47000000000E+01 0. -1.
        -11    1    4    4    0    0  0.44131479058E+02  0.57243576444E+02 -0.32144990354E+03  0.32947603095E+03  0.00000000000E+00 0.  1.
         12    1    4    4    0    0  0.14287752005E+02  0.12755953571E+03 -0.29672580320E+03  0.32329827914E+03  0.00000000000E+00 0. -1.
         -5    1    5    5    0  502  0.18273231254E+02  0.13159041822E+02 -0.45242302817E+02  0.50754579363E+02  0.47000000000E+01 0.  1.
         13    1    6    6    0    0 -0.69689944919E+01 -0.22181079500E+02  0.13258269071E+02  0.26764694483E+02  0.00000000000E+00 0. -1.
        -14    1    6    6    0    0 -0.82751768713E+02 -0.17611010385E+03 -0.11689730573E+03  0.22699692506E+03  0.00000000000E+00 0.  1.
<mgrwt>
<rscale>  2 0.26503298E+03</rscale>
<asrwt>0</asrwt>
<pdfrwt beam="1">  1       21 0.16133112E-01 0.26563972E+03</pdfrwt>
<pdfrwt beam="2">  1       21 0.13339938E+00 0.26563972E+03</pdfrwt>
<totfact> 0.13296722E+04</totfact>
</mgrwt>
</event>
<event>
12    1  0.1026879E-001  0.1919940E+03  0.7546771E-02  0.1157095E+00
         21   -1    0    0  501  502  0.00000000000E+00  0.00000000000E+00  0.12985378396E+03  0.12985378396E+03  0.00000000000E+00 0. -1.
         21   -1    0    0  502  503 -0.00000000000E+00 -0.00000000000E+00 -0.44960797747E+03  0.44960797747E+03  0.00000000000E+00 0.  1.
         -6    2    1    2    0  503 -0.75408825167E+02 -0.25421877462E+02 -0.33675723295E+03  0.38671635423E+03  0.17265961286E+03 0.  0.
        -24    2    3    3    0    0 -0.10298482755E+03 -0.61902316061E+02 -0.24139593456E+03  0.28085264213E+03  0.78539403678E+02 0.  0.
          6    2    1    2  501    0  0.75408825167E+02  0.25421877462E+02  0.17003039441E+02  0.19274540720E+03  0.17472528690E+03 0.  0.
         24    2    5    5    0    0 -0.23992372128E+02  0.96335377928E+01 -0.15581416373E+02  0.86850617652E+02  0.81435927450E+02 0.  0.
          5    1    5    5  501    0  0.99401197295E+02  0.15788339669E+02  0.32584455813E+02  0.10589478955E+03  0.47000000000E+01 0. -1.
        -11    1    6    6    0    0 -0.30925928185E+02  0.27814282291E+02 -0.38575542558E+02  0.56728474482E+02  0.00000000000E+00 0.  1.
         12    1    6    6    0    0  0.69335560568E+01 -0.18180744498E+02  0.22994126185E+02  0.30122143170E+02  0.00000000000E+00 0. -1.
         -5    1    3    3    0  503  0.27576002383E+02  0.36480438599E+02 -0.95361298395E+02  0.10586371210E+03  0.47000000000E+01 0.  1.
         11    1    4    4    0    0 -0.82385223325E+02 -0.69700767875E+02 -0.13825074567E+03  0.17538184268E+03  0.00000000000E+00 0. -1.
        -12    1    4    4    0    0 -0.20599604226E+02  0.77984518146E+01 -0.10314518889E+03  0.10547079944E+03  0.00000000000E+00 0.  1.
<mgrwt>
<rscale>  2 0.19152276E+03</rscale>
<asrwt>0</asrwt>
<pdfrwt beam="1">  1       21 0.19977505E-01 0.19199398E+03</pdfrwt>
<pdfrwt beam="2">  1       21 0.69170459E-01 0.19199398E+03</pdfrwt>
<totfact> 0.44017702E+04</totfact>
</mgrwt>
</event>
<event>
12    1  0.1026879E-001  0.1881504E+03  0.7546771E-02  0.1160506E+00
         21   -1    0    0  501  502  0.00000000000E+00  0.00000000000E+00  0.59767833909E+03  0.59767833909E+03  0.00000000000E+00 0.  1.
         21   -1    0    0  502  503 -0.00000000000E+00 -0.00000000000E+00 -0.12721537837E+03  0.12721537837E+03  0.00000000000E+00 0.  1.
         -6    2    1    2    0  503  0.39731279530E+01  0.63673029328E+02 -0.31163109499E+02  0.18914257850E+03  0.17531039672E+03 0.  0.
        -24    2    3    3    0    0 -0.33306854902E+02 -0.70358784819E+01 -0.62370323177E+02  0.10320348989E+03  0.74846863279E+02 0.  0.
          6    2    1    2  501    0 -0.39731279530E+01 -0.63673029328E+02  0.50162607022E+03  0.53575113896E+03  0.17700431678E+03 0.  0.
         24    2    5    5    0    0  0.45659516039E+02 -0.34978258684E+02  0.44181634494E+03  0.45276871642E+03  0.80557792467E+02 0.  0.
          5    1    5    5  501    0 -0.49632643992E+02 -0.28694770644E+02  0.59809725284E+02  0.82982422539E+02  0.47000000000E+01 0. -1.
        -13    1    6    6    0    0 -0.20732012694E+02  0.47641732272E+01  0.80809139721E+02  0.83562137116E+02  0.00000000000E+00 0.  1.
         14    1    6    6    0    0  0.66391528733E+02 -0.39742431911E+02  0.36100720522E+03  0.36920657930E+03  0.00000000000E+00 0. -1.
         -5    1    3    3    0  503  0.37279982855E+02  0.70708907810E+02  0.31207213678E+02  0.85939088608E+02  0.47000000000E+01 0.  1.
         11    1    4    4    0    0 -0.44852869617E+02 -0.49099617720E+01 -0.58755417060E+01  0.45501754118E+02  0.00000000000E+00 0. -1.
        -12    1    4    4    0    0  0.11546014715E+02 -0.21259167098E+01 -0.56494781471E+02  0.57701735772E+02  0.00000000000E+00 0.  1.
<mgrwt>
<rscale>  2 0.18775095E+03</rscale>
<asrwt>0</asrwt>
<pdfrwt beam="1">  1       21 0.91950512E-01 0.18815039E+03</pdfrwt>
<pdfrwt beam="2">  1       21 0.19571597E-01 0.18815039E+03</pdfrwt>
<totfact> 0.24088821E+04</totfact>
</mgrwt>
</event>
<event>
12    1  0.1026879E-001  0.2243920E+03  0.7546771E-02  0.1130879E+00
         21   -1    0    0  503  502  0.00000000000E+00  0.00000000000E+00  0.53196319765E+03  0.53196319765E+03  0.00000000000E+00 0. -1.
         21   -1    0    0  501  503 -0.00000000000E+00 -0.00000000000E+00 -0.13215350804E+03  0.13215350804E+03  0.00000000000E+00 0.  1.
          6    2    1    2  501    0 -0.22674716855E+02  0.13646427655E+03  0.22175003209E+02  0.22548502272E+03  0.17667802111E+03 0.  0.
         24    2    3    3    0    0 -0.21883026717E+02  0.97990182914E+02 -0.54249084421E+02  0.13979013475E+03  0.80730265738E+02 0.  0.
         -6    2    1    2    0  502  0.22674716855E+02 -0.13646427655E+03  0.37763468641E+03  0.43863168298E+03  0.17508042545E+03 0.  0.
        -24    2    5    5    0    0  0.44236197425E+02 -0.12082508880E+02  0.20556229723E+03  0.22516805917E+03  0.79636478095E+02 0.  0.
          5    1    3    3  501    0 -0.79169013861E+00  0.38474093635E+02  0.76424087630E+02  0.85694887971E+02  0.47000000000E+01 0. -1.
        -11    1    4    4    0    0 -0.43929351555E+02  0.90152736129E+02 -0.58364070398E+02  0.11603304906E+03  0.00000000000E+00 0.  1.
         12    1    4    4    0    0  0.22046324838E+02  0.78374467844E+01  0.41149859767E+01  0.23757085691E+02  0.00000000000E+00 0. -1.
         -5    1    5    5    0  502 -0.21561480570E+02 -0.12438176767E+03  0.17207238918E+03  0.21346362381E+03  0.47000000000E+01 0.  1.
         13    1    6    6    0    0 -0.10493416617E+01 -0.15411402403E+02  0.16034157679E+03  0.16108393368E+03  0.00000000000E+00 0. -1.
        -14    1    6    6    0    0  0.45285539087E+02  0.33288935224E+01  0.45220720437E+02  0.64084125486E+02  0.00000000000E+00 0.  1.
<mgrwt>
<rscale>  2 0.22407740E+03</rscale>
<asrwt>0</asrwt>
<pdfrwt beam="1">  1       21 0.81840491E-01 0.22439199E+03</pdfrwt>
<pdfrwt beam="2">  1       21 0.20331309E-01 0.22439199E+03</pdfrwt>
<totfact> 0.28740164E+04</totfact>
</mgrwt>
</event>
<event>
12    1  0.1026879E-001  0.1969606E+03  0.7546771E-02  0.1152455E+00
         21   -1    0    0  503  502  0.00000000000E+00  0.00000000000E+00  0.12310505836E+03  0.12310505836E+03  0.00000000000E+00 0. -1.
         21   -1    0    0  501  503 -0.00000000000E+00 -0.00000000000E+00 -0.82903806444E+03  0.82903806444E+03  0.00000000000E+00 0. -1.
          6    2    1    2  501    0  0.86596889324E+02  0.34577377607E+02 -0.72793489298E+03  0.75395745672E+03  0.17282367271E+03 0.  0.
         24    2    3    3    0    0  0.30894680265E+02  0.66892055850E+02 -0.60836367251E+03  0.61806653985E+03  0.80441663635E+02 0.  0.
         -6    2    1    2    0  502 -0.86596889324E+02 -0.34577377607E+02  0.22001886905E+02  0.19818566608E+03  0.17349022719E+03 0.  0.
        -24    2    5    5    0    0 -0.90890413604E+02  0.34989505127E+02  0.19354710079E+01  0.12550322961E+03  0.79132685031E+02 0.  0.
          5    1    3    3  501    0  0.55702209059E+02 -0.32314678243E+02 -0.11957122047E+03  0.13589091687E+03  0.47000000000E+01 0. -1.
        -11    1    4    4    0    0 -0.29226576802E+01  0.11801881197E+01  0.16738471893E+01  0.35688284249E+01  0.00000000000E+00 0.  1.
         12    1    4    4    0    0  0.33817337945E+02  0.65711867731E+02 -0.61003751970E+03  0.61449771142E+03  0.00000000000E+00 0. -1.
         -5    1    5    5    0  502  0.42935242801E+01 -0.69566882734E+02  0.20066415897E+02  0.72682436469E+02  0.47000000000E+01 0.  1.
         11    1    6    6    0    0 -0.30531320597E+02 -0.46326218686E+01  0.34495945488E+02  0.46298952234E+02  0.00000000000E+00 0. -1.
        -12    1    6    6    0    0 -0.60359093007E+02  0.39622126995E+02 -0.32560474481E+02  0.79204277376E+02  0.00000000000E+00 0.  1.
<mgrwt>
<rscale>  2 0.19681371E+03</rscale>
<asrwt>0</asrwt>
<pdfrwt beam="1">  1       21 0.18939240E-01 0.19696059E+03</pdfrwt>
<pdfrwt beam="2">  1       21 0.12754432E+00 0.19696059E+03</pdfrwt>
<totfact> 0.11551891E+04</totfact>
</mgrwt>
</event>
<event>
12    1  0.1026879E-001  0.2147939E+03  0.7546771E-02  0.1138859E+00
         21   -1    0    0  501  502  0.00000000000E+00  0.00000000000E+00  0.11251231410E+04  0.11251231410E+04  0.00000000000E+00 0. -1.
         21   -1    0    0  502  503 -0.00000000000E+00 -0.00000000000E+00 -0.51128872130E+02  0.51128872130E+02  0.00000000000E+00 0. -1.
         -6    2    1    2    0  503 -0.11989783927E+03  0.42687543270E+02  0.81662809007E+03  0.84440385191E+03  0.17302805965E+03 0.  0.
        -24    2    3    3    0    0 -0.12196674931E+03  0.21760652290E+02  0.49077480399E+03  0.51783889788E+03  0.10930600166E+03 0.  0.
          6    2    1    2  501    0  0.11989783927E+03 -0.42687543270E+02  0.25736617881E+03  0.33184816123E+03  0.16639751771E+03 0.  0.
         24    2    5    5    0    0  0.10917916035E+03 -0.63039894620E+02  0.26727070003E+03  0.30636683819E+03  0.80826326623E+02 0.  0.
          5    1    5    5  501    0  0.10718678918E+02  0.20352351350E+02 -0.99045212212E+01  0.25481323039E+02  0.47000000000E+01 0. -1.
        -11    1    6    6    0    0 -0.10478349611E+02 -0.15428112108E+02  0.18666510724E+02  0.26386759490E+02  0.00000000000E+00 0.  1.
         12    1    6    6    0    0  0.11965750997E+03 -0.47611782512E+02  0.24860418931E+03  0.27998007870E+03  0.00000000000E+00 0. -1.
         -5    1    3    3    0  503  0.20689100398E+01  0.20926890981E+02  0.32585328608E+03  0.32656495404E+03  0.47000000000E+01 0.  1.
         13    1    4    4    0    0 -0.55901895869E+02 -0.15305202284E+02  0.72796865800E+02  0.93051893312E+02  0.00000000000E+00 0. -1.
        -14    1    4    4    0    0 -0.66064853442E+02  0.37065854573E+02  0.41797793819E+03  0.42478700456E+03  0.00000000000E+00 0.  1.
<mgrwt>
<rscale>  2 0.21345535E+03</rscale>
<asrwt>0</asrwt>
<pdfrwt beam="1">  1       21 0.17309585E+00 0.21479392E+03</pdfrwt>
<pdfrwt beam="2">  1       21 0.78659812E-02 0.21479392E+03</pdfrwt>
<totfact> 0.24718970E+04</totfact>
</mgrwt>
</event>
<event>
12    1  0.1026879E-001  0.2165345E+03  0.7546771E-02  0.1137823E+00
         21   -1    0    0  501  502  0.00000000000E+00  0.00000000000E+00  0.45237496874E+03  0.45237496874E+03  0.00000000000E+00 0.  1.
         21   -1    0    0  502  503 -0.00000000000E+00 -0.00000000000E+00 -0.18434221337E+03  0.18434221337E+03  0.00000000000E+00 0. -1.
         -6    2    1    2    0  503  0.10928615587E+03  0.51487751656E+02 -0.79640684404E+02  0.23071592482E+03  0.17970182781E+03 0.  0.
        -24    2    3    3    0    0  0.69768229399E+02  0.10490397600E+03 -0.58139818477E+02  0.16072066233E+03  0.81107600093E+02 0.  0.
          6    2    1    2  501    0 -0.10928615587E+03 -0.51487751656E+02  0.34767343977E+03  0.40600125729E+03  0.17136437133E+03 0.  0.
         24    2    5    5    0    0 -0.14095129797E+03 -0.41614724210E+02  0.32567894858E+03  0.36592625838E+03  0.78969584988E+02 0.  0.
          5    1    5    5  501    0  0.31665142095E+02 -0.98730274465E+01  0.21994491191E+02  0.40074998909E+02  0.47000000000E+01 0. -1.
        -11    1    6    6    0    0 -0.49779616421E+02  0.23255089800E+02  0.10780211600E+03  0.12099630419E+03  0.00000000000E+00 0.  1.
         12    1    6    6    0    0 -0.91171681548E+02 -0.64869814010E+02  0.21787683258E+03  0.24492995419E+03  0.00000000000E+00 0. -1.
         -5    1    3    3    0  503  0.39517926475E+02 -0.53416224345E+02 -0.21500865928E+02  0.69995262495E+02  0.47000000000E+01 0.  1.
         11    1    4    4    0    0  0.33724507796E+02  0.10793355160E+03 -0.37840190121E+02  0.11924292002E+03  0.00000000000E+00 0. -1.
        -12    1    4    4    0    0  0.36043721603E+02 -0.30295756014E+01 -0.20299628356E+02  0.41477742305E+02  0.00000000000E+00 0.  1.
<mgrwt>
<rscale>  2 0.21479681E+03</rscale>
<asrwt>0</asrwt>
<pdfrwt beam="1">  1       21 0.69596149E-01 0.21653452E+03</pdfrwt>
<pdfrwt beam="2">  1       21 0.28360341E-01 0.21653452E+03</pdfrwt>
<totfact> 0.21999251E+04</totfact>
</mgrwt>
</event>
<event>
12    1  0.1026879E-001  0.2316337E+03  0.7546771E-02  0.1125911E+00
         21   -1    0    0  501  502  0.00000000000E+00  0.00000000000E+00  0.25596603955E+04  0.25596603955E+04  0.00000000000E+00 0.  1.
         21   -1    0    0  502  503 -0.00000000000E+00 -0.00000000000E+00 -0.22431444041E+02  0.22431444041E+02  0.00000000000E+00 0. -1.
         -6    2    1    2    0  503  0.93320448097E+01  0.15377917538E+03  0.92090561026E+03  0.94959007094E+03  0.17297120561E+03 0.  0.
        -24    2    3    3    0    0  0.89292240850E+01  0.17725786858E+03  0.88706097748E+03  0.90812972280E+03  0.79513097386E+02 0.  0.
          6    2    1    2  501    0 -0.93320448097E+01 -0.15377917538E+03  0.16163233412E+04  0.16325017686E+04  0.16978150476E+03 0.  0.
         24    2    5    5    0    0  0.48090036214E+02 -0.54908624431E+02  0.93557261085E+03  0.94220014750E+03  0.84364679543E+02 0.  0.
          5    1    5    5  501    0 -0.57422081024E+02 -0.98870550944E+02  0.68075073032E+03  0.69030162108E+03  0.47000000000E+01 0. -1.
        -11    1    6    6    0    0  0.28105417996E+02 -0.16645519543E+02  0.78183362936E+03  0.78251569431E+03  0.00000000000E+00 0.  1.
         12    1    6    6    0    0  0.19984618218E+02 -0.38263104889E+02  0.15373898149E+03  0.15968445319E+03  0.00000000000E+00 0. -1.
         -5    1    3    3    0  503  0.40282072472E+00 -0.23478693205E+02  0.33844632786E+02  0.41460348136E+02  0.47000000000E+01 0.  1.
         13    1    4    4    0    0 -0.27518212068E+02  0.13187163437E+03  0.56386402060E+03  0.57973270882E+03  0.00000000000E+00 0. -1.
        -14    1    4    4    0    0  0.36447436153E+02  0.45386234207E+02  0.32319695688E+03  0.32839701398E+03  0.00000000000E+00 0.  1.
<mgrwt>
<rscale>  2 0.23103837E+03</rscale>
<asrwt>0</asrwt>
<pdfrwt beam="1">  1       21 0.39379368E+00 0.23163368E+03</pdfrwt>
<pdfrwt beam="2">  1       21 0.34509934E-02 0.23163368E+03</pdfrwt>
<totfact> 0.45454881E+03</totfact>
</mgrwt>
</event>
<event>
12    1  0.1026879E-001  0.3689993E+03  0.7546771E-02  0.1055142E+00
         21   -1    0    0  501  502  0.00000000000E+00  0.00000000000E+00  0.12775756048E+04  0.12775756048E+04  0.00000000000E+00 0. -1.
         21   -1    0    0  502  503 -0.00000000000E+00 -0.00000000000E+00 -0.12150139246E+03  0.12150139246E+03  0.00000000000E+00 0. -1.
         -6    2    1    2    0  503 -0.50034585782E+02 -0.32176941932E+03  0.33171313273E+03  0.49617946542E+03  0.17355529520E+03 0.  0.
        -24    2    3    3    0    0  0.21233787242E+02 -0.23635780191E+03  0.18353628226E+03  0.31083439697E+03  0.81342308743E+02 0.  0.
          6    2    1    2  501    0  0.50034585782E+02  0.32176941932E+03  0.82436107964E+03  0.90289753187E+03  0.17208644469E+03 0.  0.
         24    2    5    5    0    0  0.97612158119E+02  0.26405972183E+03  0.67071915585E+03  0.73195319789E+03  0.81459362688E+02 0.  0.
          5    1    5    5  501    0 -0.47577572338E+02  0.57709697489E+02  0.15364192379E+03  0.17094433398E+03  0.47000000000E+01 0. -1.
        -11    1    6    6    0    0 -0.24119908856E+01  0.20031801234E+02  0.14870706440E+02  0.25064490235E+02  0.00000000000E+00 0.  1.
         12    1    6    6    0    0  0.10002414900E+03  0.24402792060E+03  0.65584844941E+03  0.70688870765E+03  0.00000000000E+00 0. -1.
         -5    1    3    3    0  503 -0.71268373023E+02 -0.85411617416E+02  0.14817685047E+03  0.18534506845E+03  0.47000000000E+01 0.  1.
         13    1    4    4    0    0  0.14210512522E+02 -0.52114865531E+02  0.87794738747E+02  0.10308158918E+03  0.00000000000E+00 0. -1.
        -14    1    4    4    0    0  0.70232747199E+01 -0.18424293638E+03  0.95741543509E+02  0.20775280779E+03  0.00000000000E+00 0.  1.
<mgrwt>
<rscale>  2 0.36882700E+03</rscale>
<asrwt>0</asrwt>
<pdfrwt beam="1">  1       21 0.19655008E+00 0.36899927E+03</pdfrwt>
<pdfrwt beam="2">  1       21 0.18692523E-01 0.36899927E+03</pdfrwt>
<totfact> 0.32753885E+03</totfact>
</mgrwt>
</event>
<event>
12    1  0.1026879E-001  0.1740441E+03  0.7546771E-02  0.1173759E+00
         21   -1    0    0  503  502  0.00000000000E+00  0.00000000000E+00  0.24608402369E+04  0.24608402369E+04  0.00000000000E+00 0.  1.
         21   -1    0    0  501  503 -0.00000000000E+00 -0.00000000000E+00 -0.38173739827E+02  0.38173739827E+02  0.00000000000E+00 0.  1.
          6    2    1    2  501    0 -0.11640268881E+02 -0.72266757565E-01  0.18275377298E+03  0.25236933856E+03  0.17365437059E+03 0.  0.
         24    2    3    3    0    0 -0.72321592675E+02 -0.15585180221E+02  0.11662481388E+03  0.16116625324E+03  0.83065656915E+02 0.  0.
         -6    2    1    2    0  502  0.11640268881E+02  0.72266757565E-01  0.22399127241E+04  0.22466446381E+04  0.17340016600E+03 0.  0.
        -24    2    5    5    0    0 -0.93992411863E+00 -0.44446173327E+02  0.20206243283E+04  0.20224803161E+04  0.74347878689E+02 0.  0.
          5    1    3    3  501    0  0.60681323795E+02  0.15512913464E+02  0.66128959093E+02  0.91203085323E+02  0.47000000000E+01 0. -1.
        -11    1    4    4    0    0 -0.88240552559E+02  0.89013362546E+00  0.95016245782E+02  0.12967372292E+03  0.00000000000E+00 0.  1.
         12    1    4    4    0    0  0.15918959884E+02 -0.16475313847E+02  0.21608568102E+02  0.31492530313E+02  0.00000000000E+00 0. -1.
         -5    1    5    5    0  502  0.12580192999E+02  0.44518440085E+02  0.21928839578E+03  0.22416432207E+03  0.47000000000E+01 0.  1.
         11    1    6    6    0    0 -0.54493521920E+01 -0.29611747307E+02  0.25261516679E+03  0.25440317118E+03  0.00000000000E+00 0. -1.
        -12    1    6    6    0    0  0.45094280734E+01 -0.14834426020E+02  0.17680091615E+04  0.17680771449E+04  0.00000000000E+00 0.  1.
<mgrwt>
<rscale>  2 0.17398064E+03</rscale>
<asrwt>0</asrwt>
<pdfrwt beam="1">  1       21 0.37859068E+00 0.17404408E+03</pdfrwt>
<pdfrwt beam="2">  1       21 0.58728850E-02 0.17404408E+03</pdfrwt>
<totfact> 0.24801261E+03</totfact>
</mgrwt>
</event>
<event>
12    1  0.1026879E-001  0.2236018E+03  0.7546771E-02  0.1131366E+00
         21   -1    0    0  501  502  0.00000000000E+00  0.00000000000E+00  0.22678618202E+02  0.22678618202E+02  0.00000000000E+00 0.  1.
         21   -1    0    0  502  503 -0.00000000000E+00 -0.00000000000E+00 -0.23689798148E+04  0.23689798148E+04  0.00000000000E+00 0.  1.
         -6    2    1    2    0  503  0.31452950878E+02 -0.13779750572E+03 -0.84917859463E+03  0.87792996722E+03  0.17227681520E+03 0.  0.
        -24    2    3    3    0    0 -0.20998197227E+02 -0.13683881113E+03 -0.73322389378E+03  0.75057367691E+03  0.81103523556E+02 0.  0.
          6    2    1    2  501    0 -0.31452950878E+02  0.13779750572E+03 -0.14971226020E+04  0.15137284658E+04  0.17326379341E+03 0.  0.
         24    2    5    5    0    0  0.76053837005E+01  0.28119510549E+02 -0.82708419837E+03  0.83363408379E+03  0.10014472393E+03 0.  0.
          5    1    5    5  501    0 -0.39058334578E+02  0.10967799518E+03 -0.67003840361E+03  0.68009438201E+03  0.47000000000E+01 0. -1.
        -11    1    6    6    0    0  0.17857340574E+02  0.18353595546E+02 -0.81385129407E+03  0.81425405614E+03  0.00000000000E+00 0.  1.
         12    1    6    6    0    0 -0.10251956873E+02  0.97659150033E+01 -0.13232904302E+02  0.19380027654E+02  0.00000000000E+00 0. -1.
         -5    1    3    3    0  503  0.52451148104E+02 -0.95869459838E+00 -0.11595470085E+03  0.12735629031E+03  0.47000000000E+01 0.  1.
         11    1    4    4    0    0 -0.60404352927E+01  0.61248761863E+01 -0.13688502950E+03  0.13715506651E+03  0.00000000000E+00 0. -1.
        -12    1    4    4    0    0 -0.14957761934E+02 -0.14296368731E+03 -0.59633886428E+03  0.61341861040E+03  0.00000000000E+00 0.  1.
<mgrwt>
<rscale>  2 0.22341062E+03</rscale>
<asrwt>0</asrwt>
<pdfrwt beam="1">  1       21 0.34890205E-02 0.22360184E+03</pdfrwt>
<pdfrwt beam="2">  1       21 0.36445819E+00 0.22360184E+03</pdfrwt>
<totfact> 0.68111164E+03</totfact>
</mgrwt>
</event>
<event>
12    1  0.1026879E-001  0.1771407E+03  0.7546771E-02  0.1170696E+00
         21   -1    0    0  501  502  0.00000000000E+00  0.00000000000E+00  0.10269952748E+03  0.10269952748E+03  0.00000000000E+00 0.  1.
         21   -1    0    0  502  503 -0.00000000000E+00 -0.00000000000E+00 -0.67406960231E+03  0.67406960231E+03  0.00000000000E+00 0.  1.
         -6    2    1    2    0  503  0.11705369692E+02 -0.27823522273E+02 -0.57326420554E+03  0.60000888410E+03  0.17454984265E+03 0.  0.
        -24    2    3    3    0    0 -0.31464449176E+02 -0.51478417105E+02 -0.20161921398E+03  0.22508852314E+03  0.79840445966E+02 0.  0.
          6    2    1    2  501    0 -0.11705369692E+02  0.27823522273E+02  0.18941307156E+01  0.17676024570E+03  0.17415347443E+03 0.  0.
         24    2    5    5    0    0 -0.59337918301E+02  0.27318847108E+02 -0.40938349398E+02  0.11252765477E+03  0.81970828238E+02 0.  0.
          5    1    5    5  501    0  0.47632548609E+02  0.50467516533E+00  0.42832480114E+02  0.64232590923E+02  0.47000000000E+01 0. -1.
        -11    1    6    6    0    0 -0.10118401585E+02  0.33857247079E+02  0.14418925071E+02  0.38165437644E+02  0.00000000000E+00 0.  1.
         12    1    6    6    0    0 -0.49219516716E+02 -0.65383999707E+01 -0.55357274469E+02  0.74362217130E+02  0.00000000000E+00 0. -1.
         -5    1    3    3    0  503  0.43169818868E+02  0.23654894832E+02 -0.37164499156E+03  0.37492036096E+03  0.47000000000E+01 0.  1.
         13    1    4    4    0    0 -0.56717647719E+01  0.19989645945E+02 -0.23085328765E+02  0.31059415075E+02  0.00000000000E+00 0. -1.
        -14    1    4    4    0    0 -0.25792684405E+02 -0.71468063050E+02 -0.17853388522E+03  0.19402910806E+03  0.00000000000E+00 0.  1.
<mgrwt>
<rscale>  2 0.17704293E+03</rscale>
<asrwt>0</asrwt>
<pdfrwt beam="1">  1       21 0.15799927E-01 0.17714065E+03</pdfrwt>
<pdfrwt beam="2">  1       21 0.10370302E+00 0.17714065E+03</pdfrwt>
<totfact> 0.27102424E+04</totfact>
</mgrwt>
</event>
<event>
12    1  0.1026879E-001  0.1744085E+03  0.7546771E-02  0.1173488E+00
         21   -1    0    0  503  502  0.00000000000E+00  0.00000000000E+00  0.10685368528E+03  0.10685368528E+03  0.00000000000E+00 0. -1.
         21   -1    0    0  501  503 -0.00000000000E+00 -0.00000000000E+00 -0.29450258466E+03  0.29450258466E+03  0.00000000000E+00 0. -1.
          6    2    1    2  501    0 -0.20362458835E+02  0.12867798038E+02 -0.55434652717E+02  0.18300633189E+03  0.17273710324E+03 0.  0.
         24    2    3    3    0    0 -0.46253055256E+02 -0.61293082484E+01  0.25268846927E+02  0.96021517787E+02  0.80029392807E+02 0.  0.
         -6    2    1    2    0  502  0.20362458835E+02 -0.12867798038E+02 -0.13221424667E+03  0.21834993805E+03  0.17209264501E+03 0.  0.
        -24    2    5    5    0    0  0.76375235419E+02 -0.73902389306E+01 -0.11305414574E+03  0.15871241410E+03  0.80750221701E+02 0.  0.
          5    1    3    3  501    0  0.25890596422E+02  0.18997106287E+02 -0.80703499644E+02  0.86984814106E+02  0.47000000000E+01 0. -1.
        -13    1    4    4    0    0 -0.21133454496E+02 -0.39095485969E+02 -0.49673090818E+01  0.44718610014E+02  0.00000000000E+00 0.  1.
         14    1    4    4    0    0 -0.25119600760E+02  0.32966177720E+02  0.30236156009E+02  0.51302907773E+02  0.00000000000E+00 0. -1.
         -5    1    5    5    0  502 -0.56012776585E+02 -0.54775591077E+01 -0.19160100933E+02  0.59637523945E+02  0.47000000000E+01 0.  1.
         13    1    6    6    0    0  0.17127432998E+02  0.50905453306E+00  0.11446783895E+02  0.20606721213E+02  0.00000000000E+00 0. -1.
        -14    1    6    6    0    0  0.59247802421E+02 -0.78992934636E+01 -0.12450092963E+03  0.13810569289E+03  0.00000000000E+00 0.  1.
<mgrwt>
<rscale>  2 0.17424869E+03</rscale>
<asrwt>0</asrwt>
<pdfrwt beam="1">  1       21 0.16439029E-01 0.17440848E+03</pdfrwt>
<pdfrwt beam="2">  1       21 0.45308089E-01 0.17440848E+03</pdfrwt>
<totfact> 0.15595694E+05</totfact>
</mgrwt>
</event>
<event>
12    1  0.1026879E-001  0.2139356E+03  0.7546771E-02  0.1138983E+00
         21   -1    0    0  503  502  0.00000000000E+00  0.00000000000E+00  0.29928765554E+03  0.29928765554E+03  0.00000000000E+00 0.  1.
         21   -1    0    0  501  503 -0.00000000000E+00 -0.00000000000E+00 -0.17065635728E+03  0.17065635728E+03  0.00000000000E+00 0. -1.
          6    2    1    2  501    0 -0.11179394645E+03 -0.54112996187E+02 -0.15556415964E+02  0.21195460627E+03  0.17104575476E+03 0.  0.
         24    2    3    3    0    0 -0.12616144111E+03  0.24776992184E+01 -0.29097639454E+02  0.15183483878E+03  0.79273560724E+02 0.  0.
         -6    2    1    2    0  502  0.11179394645E+03  0.54112996187E+02  0.14418771423E+03  0.25798940655E+03  0.17419051105E+03 0.  0.
        -24    2    5    5    0    0  0.22671799971E+02 -0.32252836376E+02  0.70321429122E+02  0.11348981450E+03  0.79878524235E+02 0.  0.
          5    1    3    3  501    0  0.14367494656E+02 -0.56590695405E+02  0.13541223491E+02  0.60119767487E+02  0.47000000000E+01 0. -1.
        -11    1    4    4    0    0 -0.68858544853E+02 -0.37263255865E+02 -0.66525531434E+01  0.78576751653E+02  0.00000000000E+00 0.  1.
         12    1    4    4    0    0 -0.57302896255E+02  0.39740955084E+02 -0.22445086311E+02  0.73258087128E+02  0.00000000000E+00 0. -1.
         -5    1    5    5    0  502  0.89122146481E+02  0.86365832563E+02  0.73866285106E+02  0.14449959205E+03  0.47000000000E+01 0.  1.
         13    1    6    6    0    0  0.42726553520E+02 -0.17798220333E+01  0.63220016785E+02  0.76324941300E+02  0.00000000000E+00 0. -1.
        -14    1    6    6    0    0 -0.20054753548E+02 -0.30473014343E+02  0.71014123373E+01  0.37164873203E+02  0.00000000000E+00 0.  1.
<mgrwt>
<rscale>  2 0.21329456E+03</rscale>
<asrwt>0</asrwt>
<pdfrwt beam="1">  1       21 0.46044255E-01 0.21393559E+03</pdfrwt>
<pdfrwt beam="2">  1       21 0.26254824E-01 0.21393559E+03</pdfrwt>
<totfact> 0.61740327E+04</totfact>
</mgrwt>
</event>
<event>
12    1  0.1026879E-001  0.2428027E+03  0.7546771E-02  0.1118833E+00
         21   -1    0    0  503  502  0.00000000000E+00  0.00000000000E+00  0.40402831056E+03  0.40402831056E+03  0.00000000000E+00 0.  1.
         21   -1    0    0  501  503 -0.00000000000E+00 -0.00000000000E+00 -0.14842055234E+03  0.14842055234E+03  0.00000000000E+00 0.  1.
          6    2    1    2  501    0  0.17095151914E+03 -0.72232116461E+00  0.74944320440E+02  0.25410589806E+03  0.17241871307E+03 0.  0.
         24    2    3    3    0    0  0.74306492082E+02  0.57894020477E+02  0.61546191197E+02  0.14018602872E+03  0.83612299483E+02 0.  0.
         -6    2    1    2    0  502 -0.17095151914E+03  0.72232116461E+00  0.18066343778E+03  0.29834296484E+03  0.16475528300E+03 0.  0.
        -24    2    5    5    0    0 -0.15870817954E+03  0.11218856515E+02  0.20314269802E+03  0.27028082381E+03  0.80440157667E+02 0.  0.
          5    1    3    3  501    0  0.96645027058E+02 -0.58616341642E+02  0.13398129243E+02  0.11391986934E+03  0.47000000000E+01 0. -1.
        -11    1    4    4    0    0  0.52853887823E+02  0.53008460313E+01  0.64197091290E+02  0.83324059891E+02  0.00000000000E+00 0.  1.
         12    1    4    4    0    0  0.21452604259E+02  0.52593174446E+02 -0.26509000931E+01  0.56861968829E+02  0.00000000000E+00 0. -1.
         -5    1    5    5    0  502 -0.12243339595E+02 -0.10496535350E+02 -0.22479260232E+02  0.28062141034E+02  0.47000000000E+01 0.  1.
         13    1    6    6    0    0 -0.26222720203E+02 -0.18013162515E+02  0.83397620059E+01  0.32888549815E+02  0.00000000000E+00 0. -1.
        -14    1    6    6    0    0 -0.13248545934E+03  0.29232019030E+02  0.19480293601E+03  0.23739227399E+03  0.00000000000E+00 0.  1.
<mgrwt>
<rscale>  2 0.24144623E+03</rscale>
<asrwt>0</asrwt>
<pdfrwt beam="1">  1       21 0.62158201E-01 0.24280271E+03</pdfrwt>
<pdfrwt beam="2">  1       21 0.22833931E-01 0.24280271E+03</pdfrwt>
<totfact> 0.42194355E+04</totfact>
</mgrwt>
</event>
<event>
12    1  0.1026879E-001  0.2093758E+03  0.7546771E-02  0.1143600E+00
         21   -1    0    0  501  502  0.00000000000E+00  0.00000000000E+00  0.33602780242E+02  0.33602780242E+02  0.00000000000E+00 0. -1.
         21   -1    0    0  502  503 -0.00000000000E+00 -0.00000000000E+00 -0.12600670048E+04  0.12600670048E+04  0.00000000000E+00 0. -1.
         -6    2    1    2    0  503  0.78093357367E+02 -0.64897606456E+02 -0.65245039255E+03  0.68522240734E+03  0.18310641986E+03 0.  0.
        -24    2    3    3    0    0  0.38805599659E+02  0.39209312824E+02 -0.28518940183E+03  0.30144577458E+03  0.80581110186E+02 0.  0.
          6    2    1    2  501    0 -0.78093357367E+02  0.64897606456E+02 -0.57401383196E+03  0.60844737766E+03  0.17437333599E+03 0.  0.
         24    2    5    5    0    0 -0.99636808912E+02 -0.50296235964E+01 -0.38553562215E+03  0.40620973680E+03  0.80098960773E+02 0.  0.
          5    1    5    5  501    0  0.21543451545E+02  0.69927230052E+02 -0.18847820981E+03  0.20223764086E+03  0.47000000000E+01 0. -1.
        -13    1    6    6    0    0  0.79390499600E+01 -0.14440332934E+02 -0.25781232193E+02  0.30597772188E+02  0.00000000000E+00 0.  1.
         14    1    6    6    0    0 -0.10757585887E+03  0.94107093373E+01 -0.35975438996E+03  0.37561196461E+03  0.00000000000E+00 0. -1.
         -5    1    3    3    0  503  0.39287757708E+02 -0.10410691928E+03 -0.36726099072E+03  0.38377663275E+03  0.47000000000E+01 0.  1.
         11    1    4    4    0    0  0.33785276126E+02 -0.45616243661E+01 -0.22085844677E+03  0.22347417482E+03  0.00000000000E+00 0. -1.
        -12    1    4    4    0    0  0.50203235337E+01  0.43770937190E+02 -0.64330955059E+02  0.77971599764E+02  0.00000000000E+00 0.  1.
<mgrwt>
<rscale>  2 0.20745121E+03</rscale>
<asrwt>0</asrwt>
<pdfrwt beam="1">  1       21 0.51696589E-02 0.20937582E+03</pdfrwt>
<pdfrwt beam="2">  1       21 0.19385645E+00 0.20937582E+03</pdfrwt>
<totfact> 0.36986162E+04</totfact>
</mgrwt>
</event>
<event>
12    1  0.1026879E-001  0.2108333E+03  0.7546771E-02  0.1142421E+00
         21   -1    0    0  503  502  0.00000000000E+00  0.00000000000E+00  0.36529544703E+02  0.36529544703E+02  0.00000000000E+00 0. -1.
         21   -1    0    0  501  503 -0.00000000000E+00 -0.00000000000E+00 -0.12003347369E+04  0.12003347369E+04  0.00000000000E+00 0. -1.
          6    2    1    2  501    0 -0.11394044569E+03 -0.35842090487E+02 -0.47952063012E+03  0.52083631578E+03  0.16450942984E+03 0.  0.
         24    2    3    3    0    0 -0.27735897062E+02 -0.65703543232E+02 -0.31008375361E+03  0.32834248293E+03  0.81059337907E+02 0.  0.
         -6    2    1    2    0  502  0.11394044569E+03  0.35842090487E+02 -0.68428456203E+03  0.71602796578E+03  0.17373429520E+03 0.  0.
        -24    2    5    5    0    0  0.99803455977E+02  0.47616859192E+02 -0.27842906322E+03  0.30972847579E+03  0.78618638764E+02 0.  0.
          5    1    3    3  501    0 -0.86204548629E+02  0.29861452745E+02 -0.16943687651E+03  0.19249383285E+03  0.47000000000E+01 0. -1.
        -11    1    4    4    0    0 -0.13818996144E+02 -0.76645697119E+02 -0.29492806968E+03  0.30503785639E+03  0.00000000000E+00 0.  1.
         12    1    4    4    0    0 -0.13916900919E+02  0.10942153887E+02 -0.15155683925E+02  0.23304626538E+02  0.00000000000E+00 0. -1.
         -5    1    5    5    0  502  0.14136989715E+02 -0.11774768705E+02 -0.40585549881E+03  0.40629948999E+03  0.47000000000E+01 0.  1.
         11    1    6    6    0    0  0.47872206945E+02  0.53966814588E+01 -0.41687056749E+02  0.63707794413E+02  0.00000000000E+00 0. -1.
        -12    1    6    6    0    0  0.51931249032E+02  0.42220177733E+02 -0.23674200648E+03  0.24602068137E+03  0.00000000000E+00 0.  1.
<mgrwt>
<rscale>  2 0.20892392E+03</rscale>
<asrwt>0</asrwt>
<pdfrwt beam="1">  1       21 0.56199307E-02 0.21083331E+03</pdfrwt>
<pdfrwt beam="2">  1       21 0.18466686E+00 0.21083331E+03</pdfrwt>
<totfact> 0.36876468E+04</totfact>
</mgrwt>
</event>
<event>
12    1  0.1026879E-001  0.2517933E+03  0.7546771E-02  0.1112241E+00
         21   -1    0    0  503  502  0.00000000000E+00  0.00000000000E+00  0.34633104739E+03  0.34633104739E+03  0.00000000000E+00 0.  1.
         21   -1    0    0  501  503 -0.00000000000E+00 -0.00000000000E+00 -0.31535578948E+03  0.31535578948E+03  0.00000000000E+00 0. -1.
          6    2    1    2  501    0 -0.14764567689E+03  0.11028604863E+03 -0.19904659111E+03  0.32064447507E+03  0.17097097863E+03 0.  0.
         24    2    3    3    0    0 -0.95952718264E+02  0.38061335659E+02 -0.38140773995E+02  0.13679305920E+03  0.81252895278E+02 0.  0.
         -6    2    1    2    0  502  0.14764567689E+03 -0.11028604863E+03  0.23002184902E+03  0.34104236180E+03  0.17157384150E+03 0.  0.
        -24    2    5    5    0    0  0.14809840310E+03 -0.10156524332E+03  0.12271627797E+03  0.23327950649E+03  0.84329162315E+02 0.  0.
          5    1    3    3  501    0 -0.51692958622E+02  0.72224712974E+02 -0.16090581711E+03  0.18385141587E+03  0.47000000000E+01 0. -1.
        -13    1    4    4    0    0  0.20040522802E+01 -0.32847739791E+00  0.17608104482E+02  0.17724826272E+02  0.00000000000E+00 0.  1.
         14    1    4    4    0    0 -0.97956770544E+02  0.38389813057E+02 -0.55748878477E+02  0.11906823293E+03  0.00000000000E+00 0. -1.
         -5    1    5    5    0  502 -0.45272621649E+00 -0.87208053119E+01  0.10730557105E+03  0.10776285531E+03  0.47000000000E+01 0.  1.
         13    1    6    6    0    0  0.65753895293E+02 -0.87832017834E+02  0.42978484979E+02  0.11783542877E+03  0.00000000000E+00 0. -1.
        -14    1    6    6    0    0  0.82344507809E+02 -0.13733225487E+02  0.79737792992E+02  0.11544407772E+03  0.00000000000E+00 0.  1.
<mgrwt>
<rscale>  2 0.25169059E+03</rscale>
<asrwt>0</asrwt>
<pdfrwt beam="1">  1       21 0.53281700E-01 0.25179325E+03</pdfrwt>
<pdfrwt beam="2">  1       21 0.48516275E-01 0.25179325E+03</pdfrwt>
<totfact> 0.13066739E+04</totfact>
</mgrwt>
</event>
<event>
12    1  0.1026879E-001  0.2656320E+03  0.7546771E-02  0.1104097E+00
         21   -1    0    0  503  502  0.00000000000E+00  0.00000000000E+00  0.91592863745E+03  0.91592863745E+03  0.00000000000E+00 0. -1.
         21   -1    0    0  501  503 -0.00000000000E+00 -0.00000000000E+00 -0.81895033345E+02  0.81895033345E+02  0.00000000000E+00 0.  1.
          6    2    1    2  501    0  0.12959816987E+03  0.15056264107E+03  0.54696013319E+03  0.60805078694E+03  0.17633938210E+03 0.  0.
         24    2    3    3    0    0  0.33455726452E+02  0.10566071227E+03  0.17831851404E+03  0.22441256413E+03  0.79246670195E+02 0.  0.
         -6    2    1    2    0  502 -0.12959816987E+03 -0.15056264107E+03  0.28707347091E+03  0.38977288386E+03  0.17334049950E+03 0.  0.
        -24    2    5    5    0    0 -0.90099116408E+02 -0.10362714962E+03  0.28575624334E+03  0.32823476014E+03  0.84999942580E+02 0.  0.
          5    1    3    3  501    0  0.96142443421E+02  0.44901928799E+02  0.36864161915E+03  0.38363822282E+03  0.47000000000E+01 0. -1.
        -11    1    4    4    0    0  0.27904636036E+02  0.28066609123E+02  0.12920274586E+02  0.41633361086E+02  0.00000000000E+00 0.  1.
         12    1    4    4    0    0  0.55510904160E+01  0.77594103147E+02  0.16539823946E+03  0.18277920304E+03  0.00000000000E+00 0. -1.
         -5    1    5    5    0  502 -0.39499053464E+02 -0.46935491451E+02  0.13172275740E+01  0.61538123718E+02  0.47000000000E+01 0.  1.
         13    1    6    6    0    0  0.16603349261E+02 -0.19557735554E+02  0.45656279306E+02  0.52370526699E+02  0.00000000000E+00 0. -1.
        -14    1    6    6    0    0 -0.10670246567E+03 -0.84069414065E+02  0.24009996403E+03  0.27586423344E+03  0.00000000000E+00 0.  1.
<mgrwt>
<rscale>  2 0.26513532E+03</rscale>
<asrwt>0</asrwt>
<pdfrwt beam="1">  1       21 0.14091209E+00 0.26563202E+03</pdfrwt>
<pdfrwt beam="2">  1       21 0.12599237E-01 0.26563202E+03</pdfrwt>
<totfact> 0.18123033E+04</totfact>
</mgrwt>
</event>
<event>
12    1  0.1026879E-001  0.1755221E+03  0.7546771E-02  0.1172287E+00
         21   -1    0    0  503  502  0.00000000000E+00  0.00000000000E+00  0.16658736164E+04  0.16658736164E+04  0.00000000000E+00 0.  1.
         21   -1    0    0  501  503 -0.00000000000E+00 -0.00000000000E+00 -0.21389935143E+02  0.21389935143E+02  0.00000000000E+00 0.  1.
          6    2    1    2  501    0 -0.25148762932E+02  0.16160493675E+02  0.50940736294E+03  0.53869650738E+03  0.17263963570E+03 0.  0.
         24    2    3    3    0    0  0.95474206105E+01  0.33170032544E+02  0.13082687619E+03  0.15812007023E+03  0.81822251116E+02 0.  0.
         -6    2    1    2    0  502  0.25148762932E+02 -0.16160493675E+02  0.11350763183E+04  0.11485670442E+04  0.17295775408E+03 0.  0.
        -24    2    5    5    0    0  0.80212100545E+02  0.24989026183E+02  0.73914259054E+03  0.74668290548E+03  0.64382914497E+02 0.  0.
          5    1    3    3  501    0 -0.34696183542E+02 -0.17009538869E+02  0.37858048675E+03  0.38057643715E+03  0.47000000000E+01 0. -1.
        -11    1    4    4    0    0 -0.35612084470E+02  0.22866106170E+02  0.67263801847E+02  0.79470110171E+02  0.00000000000E+00 0.  1.
         12    1    4    4    0    0  0.45159505081E+02  0.10303926373E+02  0.63563074339E+02  0.78649960059E+02  0.00000000000E+00 0. -1.
         -5    1    5    5    0  502 -0.55063337613E+02 -0.41149519858E+02  0.39593372779E+03  0.40188413869E+03  0.47000000000E+01 0.  1.
         13    1    6    6    0    0 -0.76406955462E+01  0.14172399295E+02  0.78276485144E+02  0.79915237951E+02  0.00000000000E+00 0. -1.
        -14    1    6    6    0    0  0.87852796091E+02  0.10816626888E+02  0.66086610539E+03  0.66676766753E+03  0.00000000000E+00 0.  1.
<mgrwt>
<rscale>  2 0.17544368E+03</rscale>
<asrwt>0</asrwt>
<pdfrwt beam="1">  1       21 0.25628815E+00 0.17552210E+03</pdfrwt>
<pdfrwt beam="2">  1       21 0.32907606E-02 0.17552210E+03</pdfrwt>
<totfact> 0.33641740E+04</totfact>
</mgrwt>
</event>
<event>
12    1  0.1026879E-001  0.1865687E+03  0.7546771E-02  0.1161824E+00
         21   -1    0    0  503  502  0.00000000000E+00  0.00000000000E+00  0.13097746329E+03  0.13097746329E+03  0.00000000000E+00 0.  1.
         21   -1    0    0  501  503 -0.00000000000E+00 -0.00000000000E+00 -0.32688782386E+03  0.32688782386E+03  0.00000000000E+00 0.  1.
          6    2    1    2  501    0 -0.47132570939E+02 -0.49229598270E+02 -0.19831047068E+03  0.27227730125E+03  0.17367456177E+03 0.  0.
         24    2    3    3    0    0  0.58880502893E+00 -0.69938506544E+01 -0.19139184703E+03  0.20800331387E+03  0.81149730947E+02 0.  0.
         -6    2    1    2    0  502  0.47132570939E+02  0.49229598270E+02  0.24001101118E+01  0.18558798590E+03  0.17260390318E+03 0.  0.
        -24    2    5    5    0    0  0.29342481166E+02  0.20713938286E+02 -0.65425047484E+02  0.10974622853E+03  0.80459613457E+02 0.  0.
          5    1    3    3  501    0 -0.47721375968E+02 -0.42235747615E+02 -0.69186236482E+01  0.64273987383E+02  0.47000000000E+01 0. -1.
        -13    1    4    4    0    0 -0.28584556030E+01 -0.34967286327E+02 -0.16725661792E+03  0.17089662992E+03  0.00000000000E+00 0.  1.
         14    1    4    4    0    0  0.34472606320E+01  0.27973435673E+02 -0.24135229111E+02  0.37106683946E+02  0.00000000000E+00 0. -1.
         -5    1    5    5    0  502  0.17790089773E+02  0.28515659984E+02  0.67825157595E+02  0.75841757372E+02  0.47000000000E+01 0.  1.
         13    1    6    6    0    0  0.20221984628E+01  0.32677874792E+02 -0.72098112421E+02  0.79183777393E+02  0.00000000000E+00 0. -1.
        -14    1    6    6    0    0  0.27320282704E+02 -0.11963936506E+02  0.66730649373E+01  0.30562451135E+02  0.00000000000E+00 0.  1.
<mgrwt>
<rscale>  2 0.18631915E+03</rscale>
<asrwt>0</asrwt>
<pdfrwt beam="1">  1       21 0.20150379E-01 0.18656872E+03</pdfrwt>
<pdfrwt beam="2">  1       21 0.50290434E-01 0.18656872E+03</pdfrwt>
<totfact> 0.85899682E+04</totfact>
</mgrwt>
</event>
<event>
12    1  0.1026879E-001  0.1950362E+03  0.7546771E-02  0.1154037E+00
         21   -1    0    0  501  502  0.00000000000E+00  0.00000000000E+00  0.34669345220E+03  0.34669345220E+03  0.00000000000E+00 0.  1.
         21   -1    0    0  502  503 -0.00000000000E+00 -0.00000000000E+00 -0.12057962979E+03  0.12057962979E+03  0.00000000000E+00 0. -1.
         -6    2    1    2    0  503 -0.51475394628E+02 -0.73260737151E+02  0.42545732102E+02  0.19943664307E+03  0.17305485667E+03 0.  0.
        -24    2    3    3    0    0 -0.10492553926E+02  0.25332241151E+02  0.66970676332E+01  0.86709603957E+02  0.81987124440E+02 0.  0.
          6    2    1    2  501    0  0.51475394628E+02  0.73260737151E+02  0.18356809031E+03  0.26783643892E+03  0.17326933477E+03 0.  0.
         24    2    5    5    0    0  0.24282839137E+01  0.61973680216E+00  0.15630242176E+03  0.17592430325E+03  0.80700884692E+02 0.  0.
          5    1    5    5  501    0  0.49047110714E+02  0.72641000349E+02  0.27265668555E+02  0.91912135667E+02  0.47000000000E+01 0. -1.
        -13    1    6    6    0    0 -0.13129551809E+01  0.38609219106E+02  0.10569850462E+03  0.11253696961E+03  0.00000000000E+00 0.  1.
         14    1    6    6    0    0  0.37412390946E+01 -0.37989482304E+02  0.50603917142E+02  0.63387333638E+02  0.00000000000E+00 0. -1.
         -5    1    3    3    0  503 -0.40982840702E+02 -0.98592978303E+02  0.35848664468E+02  0.11272703911E+03  0.47000000000E+01 0.  1.
         11    1    4    4    0    0 -0.38023551253E+02  0.59505781285E+01 -0.20338055613E+02  0.43529717849E+02  0.00000000000E+00 0. -1.
        -12    1    4    4    0    0  0.27530997327E+02  0.19381663023E+02  0.27035123246E+02  0.43179886108E+02  0.00000000000E+00 0.  1.
<mgrwt>
<rscale>  2 0.19498854E+03</rscale>
<asrwt>0</asrwt>
<pdfrwt beam="1">  1       21 0.53337454E-01 0.19503619E+03</pdfrwt>
<pdfrwt beam="2">  1       21 0.18550712E-01 0.19503619E+03</pdfrwt>
<totfact> 0.88279520E+04</totfact>
</mgrwt>
</event>
<event>
12    1  0.1026879E-001  0.1934341E+03  0.7546771E-02  0.1156004E+00
         21   -1    0    0  501  502  0.00000000000E+00  0.00000000000E+00  0.12818774224E+04  0.12818774224E+04  0.00000000000E+00 0. -1.
         21   -1    0    0  502  503 -0.00000000000E+00 -0.00000000000E+00 -0.68600114858E+02  0.68600114858E+02  0.00000000000E+00 0.  1.
         -6    2    1    2    0  503  0.80274601837E+02 -0.92225465916E+00  0.90386638690E+02  0.21104777061E+03  0.17299293272E+03 0.  0.
        -24    2    3    3    0    0  0.11864749418E+03 -0.73347382764E+01  0.43006793802E+02  0.14956168670E+03  0.79925512549E+02 0.  0.
          6    2    1    2  501    0 -0.80274601837E+02  0.92225465916E+00  0.11228906689E+04  0.11394297667E+04  0.17598828563E+03 0.  0.
         24    2    5    5    0    0 -0.92913020166E+01  0.60029598685E+02  0.59183811644E+03  0.60038319130E+03  0.80608556095E+02 0.  0.
          5    1    5    5  501    0 -0.70983299820E+02 -0.59107344026E+02  0.53105255242E+03  0.53904657536E+03  0.47000000000E+01 0. -1.
        -13    1    6    6    0    0  0.92757284431E+00  0.27786846946E+02  0.47820869569E+02  0.55315502537E+02  0.00000000000E+00 0.  1.
         14    1    6    6    0    0 -0.10218874861E+02  0.32242751739E+02  0.54401724687E+03  0.54506768876E+03  0.00000000000E+00 0. -1.
         -5    1    3    3    0  503 -0.38372892339E+02  0.64124836172E+01  0.47379844889E+02  0.61486083907E+02  0.47000000000E+01 0.  1.
         13    1    4    4    0    0  0.38595104783E+02 -0.51307940485E+01  0.56230753676E+02  0.68394479454E+02  0.00000000000E+00 0. -1.
        -14    1    4    4    0    0  0.80052389392E+02 -0.22039442279E+01 -0.13223959874E+02  0.81167207247E+02  0.00000000000E+00 0.  1.
<mgrwt>
<rscale>  2 0.19275016E+03</rscale>
<asrwt>0</asrwt>
<pdfrwt beam="1">  1       21 0.19721189E+00 0.19343407E+03</pdfrwt>
<pdfrwt beam="2">  1       21 0.10553865E-01 0.19343407E+03</pdfrwt>
<totfact> 0.10315714E+04</totfact>
</mgrwt>
</event>
<event>
12    1  0.1026879E-001  0.2097285E+03  0.7546771E-02  0.1141989E+00
         21   -1    0    0  503  502  0.00000000000E+00  0.00000000000E+00  0.70970658964E+02  0.70970658964E+02  0.00000000000E+00 0. -1.
         21   -1    0    0  501  503 -0.00000000000E+00 -0.00000000000E+00 -0.86391750929E+03  0.86391750929E+03  0.00000000000E+00 0.  1.
          6    2    1    2  501    0 -0.11413575802E+03  0.33382365888E+02 -0.64582135938E+03  0.67870084847E+03  0.17148836657E+03 0.  0.
         24    2    3    3    0    0 -0.71277103518E+02  0.82326940331E+02 -0.34550305472E+03  0.37138080398E+03  0.81811919367E+02 0.  0.
         -6    2    1    2    0  502  0.11413575802E+03 -0.33382365888E+02 -0.14712549095E+03  0.25618731979E+03  0.17275612615E+03 0.  0.
        -24    2    5    5    0    0  0.36043933766E+02 -0.27874030848E+02 -0.15198226390E+03  0.17761026835E+03  0.79816490308E+02 0.  0.
          5    1    3    3  501    0 -0.42858654502E+02 -0.48944574443E+02 -0.30031830465E+03  0.30732004449E+03  0.47000000000E+01 0. -1.
        -13    1    4    4    0    0 -0.24086668204E+02  0.39174204390E+02 -0.26303790151E+03  0.26702757069E+03  0.00000000000E+00 0.  1.
         14    1    4    4    0    0 -0.47190435314E+02  0.43152735942E+02 -0.82465153210E+02  0.10435323329E+03  0.00000000000E+00 0. -1.
         -5    1    5    5    0  502  0.78091824254E+02 -0.55083350398E+01  0.48567729479E+01  0.78577051445E+02  0.47000000000E+01 0.  1.
         11    1    6    6    0    0 -0.24841675547E+02 -0.67866019029E+01 -0.29092426117E+02  0.38852748510E+02  0.00000000000E+00 0. -1.
        -12    1    6    6    0    0  0.60885609314E+02 -0.21087428945E+02 -0.12288983778E+03  0.13875751984E+03  0.00000000000E+00 0.  1.
<mgrwt>
<rscale>  2 0.20946723E+03</rscale>
<asrwt>0</asrwt>
<pdfrwt beam="1">  1       21 0.10918563E-01 0.20972847E+03</pdfrwt>
<pdfrwt beam="2">  1       21 0.13291039E+00 0.20972847E+03</pdfrwt>
<totfact> 0.28090767E+04</totfact>
</mgrwt>
</event>
<event>
12    1  0.1026879E-001  0.3228705E+03  0.7546771E-02  0.1074412E+00
         21   -1    0    0  501  502  0.00000000000E+00  0.00000000000E+00  0.34094849600E+03  0.34094849600E+03  0.00000000000E+00 0. -1.
         21   -1    0    0  502  503 -0.00000000000E+00 -0.00000000000E+00 -0.11318438914E+04  0.11318438914E+04  0.00000000000E+00 0.  1.
         -6    2    1    2    0  503  0.12057835957E+03 -0.24357119285E+03 -0.10246972910E+04  0.10741588664E+04  0.17305104816E+03 0.  0.
        -24    2    3    3    0    0  0.80439140678E+02 -0.55189992641E+02 -0.47495979236E+03  0.49163672870E+03  0.81261786867E+02 0.  0.
          6    2    1    2  501    0 -0.12057835957E+03  0.24357119285E+03  0.23380189568E+03  0.39863352094E+03  0.17429655995E+03 0.  0.
         24    2    5    5    0    0 -0.20914864838E+01  0.65354069734E+02  0.44517654352E+02  0.11288696176E+03  0.80536425550E+02 0.  0.
          5    1    5    5  501    0 -0.11848687309E+03  0.17821712312E+03  0.18928424133E+03  0.28574655918E+03  0.47000000000E+01 0. -1.
        -11    1    6    6    0    0  0.27532286744E+02  0.63574089388E+02  0.46020092935E+02  0.83171753670E+02  0.00000000000E+00 0.  1.
         12    1    6    6    0    0 -0.29623773227E+02  0.17799803468E+01 -0.15024385833E+01  0.29715208092E+02  0.00000000000E+00 0. -1.
         -5    1    3    3    0  503  0.40139218893E+02 -0.18838120021E+03 -0.54973749867E+03  0.58252213772E+03  0.47000000000E+01 0.  1.
         11    1    4    4    0    0  0.21241507546E+01  0.29432888949E+01 -0.19750433945E+03  0.19753769024E+03  0.00000000000E+00 0. -1.
        -12    1    4    4    0    0  0.78314989924E+02 -0.58133281536E+02 -0.27745545291E+03  0.29409903845E+03  0.00000000000E+00 0.  1.
<mgrwt>
<rscale>  2 0.32270270E+03</rscale>
<asrwt>0</asrwt>
<pdfrwt beam="1">  1       21 0.52453614E-01 0.32287050E+03</pdfrwt>
<pdfrwt beam="2">  1       21 0.17412983E+00 0.32287050E+03</pdfrwt>
<totfact> 0.61411639E+02</totfact>
</mgrwt>
</event>
<event>
11    1  0.1026879E-001  0.1974294E+03  0.7546771E-02  0.1152060E+00
         21   -1    0    0  501  502  0.00000000000E+00  0.00000000000E+00  0.13322080384E+03  0.13322080384E+03  0.00000000000E+00 0.  1.
         21   -1    0    0  502  503 -0.00000000000E+00 -0.00000000000E+00 -0.37571725220E+03  0.37571725220E+03  0.00000000000E+00 0.  1.
         -6    2    1    2    0  503 -0.88230374600E+02  0.37319199580E+02 -0.73748811704E+00  0.19680703388E+03  0.17191609301E+03 0.  0.
          6    2    1    2  501    0  0.88230374600E+02 -0.37319199580E+02 -0.24175896024E+03  0.31213102217E+03  0.17262983080E+03 0.  0.
         24    2    4    4    0    0  0.11866539103E+03 -0.62889771263E+02 -0.20424513687E+03  0.25727191804E+03  0.80225716070E+02 0.  0.
          5    1    4    4  501    0 -0.30435016432E+02  0.25570571683E+02 -0.37513823369E+02  0.54859104123E+02  0.47000000000E+01 0. -1.
        -11    1    5    5    0    0  0.32886516637E+01 -0.38320696648E+02 -0.51627754182E+02  0.64379468958E+02  0.00000000000E+00 0.  1.
         12    1    5    5    0    0  0.11537673937E+03 -0.24569074615E+02 -0.15261738269E+03  0.19289244908E+03  0.00000000000E+00 0. -1.
         -5    1    3    3    0  503  0.17447464628E+02 -0.36273158904E+02  0.38155959254E+02  0.55660787862E+02  0.47000000000E+01 0.  1.
         13    1    3    3    0    0 -0.80690358380E+02  0.43435724529E+02 -0.94002818752E+01  0.92119278114E+02  0.00000000000E+00 0. -1.
        -14    1    3    3    0    0 -0.24987480848E+02  0.30156633955E+02 -0.29493165495E+02  0.49026967901E+02  0.00000000000E+00 0.  1.
<mgrwt>
<rscale>  2 0.19727330E+03</rscale>
<asrwt>0</asrwt>
<pdfrwt beam="1">  1       21 0.20495508E-01 0.19742943E+03</pdfrwt>
<pdfrwt beam="2">  1       21 0.57802654E-01 0.19742943E+03</pdfrwt>
<totfact> 0.61751389E+04</totfact>
</mgrwt>
</event>
<event>
12    1  0.1026879E-001  0.1739741E+03  0.7546771E-02  0.1173804E+00
         21   -1    0    0  503  502  0.00000000000E+00  0.00000000000E+00  0.15557966517E+03  0.15557966517E+03  0.00000000000E+00 0.  1.
         21   -1    0    0  501  503 -0.00000000000E+00 -0.00000000000E+00 -0.26188523554E+03  0.26188523554E+03  0.00000000000E+00 0.  1.
          6    2    1    2  501    0  0.10124278438E+02 -0.11588995153E+02  0.52810150235E+02  0.18181283716E+03  0.17329220977E+03 0.  0.
         24    2    3    3    0    0  0.36420472946E+02 -0.54452917910E+02  0.72097851761E+02  0.12774888290E+03  0.82644453751E+02 0.  0.
         -6    2    1    2    0  502 -0.10124278438E+02  0.11588995153E+02 -0.15911572061E+03  0.23565206355E+03  0.17313947177E+03 0.  0.
        -24    2    5    5    0    0 -0.20946693800E+02 -0.41964330881E+02 -0.33911463921E+02  0.98965270854E+02  0.80276823570E+02 0.  0.
          5    1    3    3  501    0 -0.26296194507E+02  0.42863922757E+02 -0.19287701526E+02  0.54063954256E+02  0.47000000000E+01 0. -1.
        -11    1    4    4    0    0  0.53967637817E+02 -0.15150058207E+02  0.61913563943E+02  0.83518378788E+02  0.00000000000E+00 0.  1.
         12    1    4    4    0    0 -0.17547164872E+02 -0.39302859703E+02  0.10184287818E+02  0.44230504114E+02  0.00000000000E+00 0. -1.
         -5    1    5    5    0  502  0.10822415362E+02  0.53553326034E+02 -0.12520425669E+03  0.13668679269E+03  0.47000000000E+01 0.  1.
         13    1    6    6    0    0  0.18742381421E+02 -0.29759179360E+02  0.11907292663E+02  0.37130435441E+02  0.00000000000E+00 0. -1.
        -14    1    6    6    0    0 -0.39689075221E+02 -0.12205151521E+02 -0.45818756584E+02  0.61834835412E+02  0.00000000000E+00 0.  1.
<mgrwt>
<rscale>  2 0.17393608E+03</rscale>
<asrwt>0</asrwt>
<pdfrwt beam="1">  1       21 0.23935333E-01 0.17397412E+03</pdfrwt>
<pdfrwt beam="2">  1       21 0.40290036E-01 0.17397412E+03</pdfrwt>
<totfact> 0.98387029E+04</totfact>
</mgrwt>
</event>
<event>
12    1  0.1026879E-001  0.2642984E+03  0.7546771E-02  0.1104655E+00
         21   -1    0    0  503  502  0.00000000000E+00  0.00000000000E+00  0.11788437137E+04  0.11788437137E+04  0.00000000000E+00 0. -1.
         21   -1    0    0  501  503 -0.00000000000E+00 -0.00000000000E+00 -0.65759256619E+02  0.65759256619E+02  0.00000000000E+00 0.  1.
          6    2    1    2  501    0  0.90941998162E+01 -0.19806317456E+03  0.35887740090E+03  0.44542719093E+03  0.17407087050E+03 0.  0.
         24    2    3    3    0    0  0.20170257136E+02 -0.22191462725E+03  0.32695346791E+03  0.40380029652E+03  0.80642223597E+02 0.  0.
         -6    2    1    2    0  502 -0.90941998162E+01  0.19806317456E+03  0.75420705620E+03  0.79917577941E+03  0.17476245930E+03 0.  0.
        -24    2    5    5    0    0 -0.53984912578E+02  0.14642203778E+03  0.65930800680E+03  0.68208648579E+03  0.78747332312E+02 0.  0.
          5    1    3    3  501    0 -0.11076057320E+02  0.23851452691E+02  0.31923932989E+02  0.41626894416E+02  0.47000000000E+01 0. -1.
        -13    1    4    4    0    0  0.24467816371E+02 -0.49223718844E+02  0.36909064669E+02  0.66211234617E+02  0.00000000000E+00 0.  1.
         14    1    4    4    0    0 -0.42975592350E+01 -0.17269090841E+03  0.29004440324E+03  0.33758906190E+03  0.00000000000E+00 0. -1.
         -5    1    5    5    0  502  0.44890712762E+02  0.51641136785E+02  0.94899049405E+02  0.11708929361E+03  0.47000000000E+01 0.  1.
         13    1    6    6    0    0 -0.36928058340E+02  0.11701335788E+02  0.13125193983E+03  0.13684909375E+03  0.00000000000E+00 0. -1.
        -14    1    6    6    0    0 -0.17056854237E+02  0.13472070199E+03  0.52805606696E+03  0.54523739204E+03  0.00000000000E+00 0.  1.
<mgrwt>
<rscale>  2 0.26418413E+03</rscale>
<asrwt>0</asrwt>
<pdfrwt beam="1">  1       21 0.18136056E+00 0.26429840E+03</pdfrwt>
<pdfrwt beam="2">  1       21 0.10116810E-01 0.26429840E+03</pdfrwt>
<totfact> 0.13492451E+04</totfact>
</mgrwt>
</event>
<event>
12    1  0.1026879E-001  0.1989221E+03  0.7546771E-02  0.1150735E+00
         21   -1    0    0  501  502  0.00000000000E+00  0.00000000000E+00  0.14004579915E+03  0.14004579915E+03  0.00000000000E+00 0.  1.
         21   -1    0    0  502  503 -0.00000000000E+00 -0.00000000000E+00 -0.32164608105E+03  0.32164608105E+03  0.00000000000E+00 0. -1.
         -6    2    1    2    0  503 -0.58812395692E+02 -0.79033732001E+02 -0.98280953909E+01  0.19916472245E+03  0.17281425441E+03 0.  0.
        -24    2    3    3    0    0 -0.31347460861E+02  0.18625702401E+02 -0.33957568620E+02  0.94780771328E+02  0.80626906518E+02 0.  0.
          6    2    1    2  501    0  0.58812395692E+02  0.79033732001E+02 -0.17177218651E+03  0.26252715776E+03  0.17236471745E+03 0.  0.
         24    2    5    5    0    0  0.96572349474E+02  0.20510176501E+02 -0.95426119250E+02  0.15907846205E+03  0.80330111599E+02 0.  0.
          5    1    5    5  501    0 -0.37759953782E+02  0.58523555500E+02 -0.76346067259E+02  0.10344869571E+03  0.47000000000E+01 0. -1.
        -11    1    6    6    0    0 -0.10193416325E+02  0.12445188954E+02 -0.67054785646E+00  0.16100872613E+02  0.00000000000E+00 0.  1.
         12    1    6    6    0    0  0.10676576580E+03  0.80649875475E+01 -0.94755571394E+02  0.14297758944E+03  0.00000000000E+00 0. -1.
         -5    1    3    3    0  503 -0.27464934831E+02 -0.97659434402E+02  0.24129473230E+02  0.10438395112E+03  0.47000000000E+01 0.  1.
         11    1    4    4    0    0 -0.39497004083E+02  0.32017533941E+01 -0.54784243462E+02  0.67613444580E+02  0.00000000000E+00 0. -1.
        -12    1    4    4    0    0  0.81495432220E+01  0.15423949007E+02  0.20826674841E+02  0.27167326748E+02  0.00000000000E+00 0.  1.
<mgrwt>
<rscale>  2 0.19882441E+03</rscale>
<asrwt>0</asrwt>
<pdfrwt beam="1">  1       21 0.21545508E-01 0.19892208E+03</pdfrwt>
<pdfrwt beam="2">  1       21 0.49484012E-01 0.19892208E+03</pdfrwt>
<totfact> 0.77960835E+04</totfact>
</mgrwt>
</event>
<event>
12    1  0.1026879E-001  0.1956071E+03  0.7546771E-02  0.1154924E+00
         21   -1    0    0  501  502  0.00000000000E+00  0.00000000000E+00  0.27899605756E+02  0.27899605756E+02  0.00000000000E+00 0.  1.
         21   -1    0    0  502  503 -0.00000000000E+00 -0.00000000000E+00 -0.13311517071E+04  0.13311517071E+04  0.00000000000E+00 0. -1.
         -6    2    1    2    0  503 -0.89612608941E+02 -0.44012376486E+01 -0.60098670039E+03  0.63005281256E+03  0.16652850207E+03 0.  0.
        -24    2    3    3    0    0 -0.66248240765E+02 -0.59213906805E+02 -0.48426405577E+03  0.49891705022E+03  0.80693439140E+02 0.  0.
          6    2    1    2  501    0  0.89612608941E+02  0.44012376486E+01 -0.70226540100E+03  0.72899850033E+03  0.17381694244E+03 0.  0.
         24    2    5    5    0    0  0.53184330128E+01 -0.25355858134E+02 -0.14748817172E+03  0.16704578260E+03  0.74029233519E+02 0.  0.
          5    1    5    5  501    0  0.84294175928E+02  0.29757095782E+02 -0.55477722928E+03  0.56195271774E+03  0.47000000000E+01 0. -1.
        -11    1    6    6    0    0  0.30271124204E+02  0.12769873661E+02 -0.63229849860E+02  0.71256049197E+02  0.00000000000E+00 0.  1.
         12    1    6    6    0    0 -0.24952691191E+02 -0.38125731795E+02 -0.84258321856E+02  0.95789733398E+02  0.00000000000E+00 0. -1.
         -5    1    3    3    0  503 -0.23364368176E+02  0.54812669156E+02 -0.11672264461E+03  0.13113576235E+03  0.47000000000E+01 0.  1.
         13    1    4    4    0    0 -0.83483751531E+02 -0.50481084610E+02 -0.35279564520E+03  0.36603639702E+03  0.00000000000E+00 0. -1.
        -14    1    4    4    0    0  0.17235510767E+02 -0.87328221954E+01 -0.13146841057E+03  0.13288065319E+03  0.00000000000E+00 0.  1.
<mgrwt>
<rscale>  2 0.19397500E+03</rscale>
<asrwt>0</asrwt>
<pdfrwt beam="1">  1       21 0.42922471E-02 0.19560706E+03</pdfrwt>
<pdfrwt beam="2">  1       21 0.20479257E+00 0.19560706E+03</pdfrwt>
<totfact> 0.43473651E+04</totfact>
</mgrwt>
</event>
<event>
12    1  0.1026879E-001  0.2636940E+03  0.7546771E-02  0.1105099E+00
         21   -1    0    0  501  502  0.00000000000E+00  0.00000000000E+00  0.21971244950E+03  0.21971244950E+03  0.00000000000E+00 0. -1.
         21   -1    0    0  502  503 -0.00000000000E+00 -0.00000000000E+00 -0.56177015599E+03  0.56177015599E+03  0.00000000000E+00 0. -1.
         -6    2    1    2    0  503 -0.67507468540E+00 -0.19830254755E+03 -0.43007818731E+03  0.50448171035E+03  0.17381079594E+03 0.  0.
        -24    2    3    3    0    0 -0.46441664311E+02 -0.11583268011E+03 -0.35162844757E+03  0.38171236797E+03  0.80546438515E+02 0.  0.
          6    2    1    2  501    0  0.67507468540E+00  0.19830254755E+03  0.88020480820E+02  0.27700089515E+03  0.17221363122E+03 0.  0.
         24    2    5    5    0    0  0.20869206474E+02  0.18149775392E+03  0.16195153262E+02  0.20037732354E+03  0.80695912794E+02 0.  0.
          5    1    5    5  501    0 -0.20194131789E+02  0.16804793634E+02  0.71825327557E+02  0.76623571612E+02  0.47000000000E+01 0. -1.
        -11    1    6    6    0    0 -0.23512141140E+02  0.11581242003E+03  0.24441778080E+02  0.12067616969E+03  0.00000000000E+00 0.  1.
         12    1    6    6    0    0  0.44381347614E+02  0.65685333888E+02 -0.82466248177E+01  0.79701153849E+02  0.00000000000E+00 0. -1.
         -5    1    3    3    0  503  0.45766589626E+02 -0.82469867445E+02 -0.78449739743E+02  0.12276934238E+03  0.47000000000E+01 0.  1.
         11    1    4    4    0    0 -0.69209603880E+02 -0.77133322933E+02 -0.24498928552E+03  0.26600614428E+03  0.00000000000E+00 0. -1.
        -12    1    4    4    0    0  0.22767939569E+02 -0.38699357175E+02 -0.10663916205E+03  0.11570622369E+03  0.00000000000E+00 0.  1.
<mgrwt>
<rscale>  2 0.26343115E+03</rscale>
<asrwt>0</asrwt>
<pdfrwt beam="1">  1       21 0.33801916E-01 0.26369404E+03</pdfrwt>
<pdfrwt beam="2">  1       21 0.86426176E-01 0.26369404E+03</pdfrwt>
<totfact> 0.93061590E+03</totfact>
</mgrwt>
</event>
<event>
12    1  0.1026879E-001  0.2475164E+03  0.7546771E-02  0.1114978E+00
         21   -1    0    0  503  502  0.00000000000E+00  0.00000000000E+00  0.57151955716E+03  0.57151955716E+03  0.00000000000E+00 0.  1.
         21   -1    0    0  501  503 -0.00000000000E+00 -0.00000000000E+00 -0.22743587338E+03  0.22743587338E+03  0.00000000000E+00 0. -1.
          6    2    1    2  501    0  0.10040122461E+03  0.14599552903E+03 -0.11881923020E+03  0.27403309385E+03  0.17199135635E+03 0.  0.
         24    2    3    3    0    0  0.40646532521E+02  0.79538691759E+02  0.66899789468E+01  0.11988450960E+03  0.79680585655E+02 0.  0.
         -6    2    1    2    0  502 -0.10040122461E+03 -0.14599552903E+03  0.46290291397E+03  0.52492233669E+03  0.17282722988E+03 0.  0.
        -24    2    5    5    0    0 -0.69607220566E+01 -0.66464624207E+02  0.29665000353E+03  0.31823800595E+03  0.93852042696E+02 0.  0.
          5    1    3    3  501    0  0.59754692088E+02  0.66456837269E+02 -0.12550920915E+03  0.15414858425E+03  0.47000000000E+01 0. -1.
        -13    1    4    4    0    0  0.41291325913E+02  0.10922204864E+02 -0.18823492006E+02  0.46675389725E+02  0.00000000000E+00 0.  1.
         14    1    4    4    0    0 -0.64479339196E+00  0.68616486895E+02  0.25513470953E+02  0.73209119872E+02  0.00000000000E+00 0. -1.
         -5    1    5    5    0  502 -0.93440502552E+02 -0.79530904820E+02  0.16625291045E+03  0.20668433073E+03  0.47000000000E+01 0.  1.
         13    1    6    6    0    0  0.25680563702E+01  0.22007647581E+02  0.99492782111E+02  0.10193009937E+03  0.00000000000E+00 0. -1.
        -14    1    6    6    0    0 -0.95287784268E+01 -0.88472271789E+02  0.19715722141E+03  0.21630790658E+03  0.00000000000E+00 0.  1.
<mgrwt>
<rscale>  2 0.24737051E+03</rscale>
<asrwt>0</asrwt>
<pdfrwt beam="1">  1       21 0.87926085E-01 0.24751637E+03</pdfrwt>
<pdfrwt beam="2">  1       21 0.34990135E-01 0.24751637E+03</pdfrwt>
<totfact> 0.84221162E+03</totfact>
</mgrwt>
</event>
<event>
12    1  0.1026879E-001  0.3051575E+03  0.7546771E-02  0.1082765E+00
         21   -1    0    0  503  502  0.00000000000E+00  0.00000000000E+00  0.13047510491E+03  0.13047510491E+03  0.00000000000E+00 0. -1.
         21   -1    0    0  501  503 -0.00000000000E+00 -0.00000000000E+00 -0.12407574961E+04  0.12407574961E+04  0.00000000000E+00 0.  1.
          6    2    1    2  501    0  0.38313545740E+02  0.24822128476E+03 -0.10022789874E+04  0.10475262406E+04  0.17223914192E+03 0.  0.
         24    2    3    3    0    0  0.53097565345E+02  0.18698850404E+03 -0.51055432011E+03  0.55176091389E+03  0.77397288226E+02 0.  0.
         -6    2    1    2    0  502 -0.38313545740E+02 -0.24822128476E+03 -0.10800340372E+03  0.32370636041E+03  0.17331860419E+03 0.  0.
        -24    2    5    5    0    0 -0.56266194574E+02 -0.24369371111E+03 -0.13129465526E+03  0.29358379541E+03  0.80004055782E+02 0.  0.
          5    1    3    3  501    0 -0.14784019605E+02  0.61232780719E+02 -0.49172466733E+03  0.49576532667E+03  0.47000000000E+01 0. -1.
        -13    1    4    4    0    0  0.40382021073E+02  0.17469129451E+03 -0.38188546184E+03  0.42188181042E+03  0.00000000000E+00 0.  1.
         14    1    4    4    0    0  0.12715544272E+02  0.12297209535E+02 -0.12866885827E+03  0.12987910347E+03  0.00000000000E+00 0. -1.
         -5    1    5    5    0  502  0.17952648834E+02 -0.45275736509E+01  0.23291251546E+02  0.30122564995E+02  0.47000000000E+01 0.  1.
         11    1    6    6    0    0  0.32001144286E+01 -0.14932909523E+03 -0.58603014289E+02  0.16044853598E+03  0.00000000000E+00 0. -1.
        -12    1    6    6    0    0 -0.59466309002E+02 -0.94364615883E+02 -0.72691640975E+02  0.13313525943E+03  0.00000000000E+00 0.  1.
<mgrwt>
<rscale>  2 0.30500439E+03</rscale>
<asrwt>0</asrwt>
<pdfrwt beam="1">  1       21 0.20073092E-01 0.30515746E+03</pdfrwt>
<pdfrwt beam="2">  1       21 0.19088577E+00 0.30515746E+03</pdfrwt>
<totfact> 0.32365278E+03</totfact>
</mgrwt>
</event>
<event>
12    1  0.1026879E-001  0.2534476E+03  0.7546771E-02  0.1111437E+00
         21   -1    0    0  503  502  0.00000000000E+00  0.00000000000E+00  0.26596306289E+03  0.26596306289E+03  0.00000000000E+00 0. -1.
         21   -1    0    0  501  503 -0.00000000000E+00 -0.00000000000E+00 -0.24536189358E+03  0.24536189358E+03  0.00000000000E+00 0. -1.
          6    2    1    2  501    0  0.76323203144E+02  0.16549656378E+03  0.48958794181E+02  0.25629584721E+03  0.17342506684E+03 0.  0.
         24    2    3    3    0    0  0.50119253372E+02  0.17309139070E+03  0.81543751005E+02  0.21353841755E+03  0.80477968089E+02 0.  0.
         -6    2    1    2    0  502 -0.76323203144E+02 -0.16549656378E+03 -0.28357624870E+02  0.25502910927E+03  0.17612878165E+03 0.  0.
        -24    2    5    5    0    0 -0.66820335347E+02 -0.14633228911E+03  0.38586684580E+02  0.18459329105E+03  0.81900273641E+02 0.  0.
          5    1    3    3  501    0  0.26203949773E+02 -0.75948269258E+01 -0.32584956824E+02  0.42757429658E+02  0.47000000000E+01 0. -1.
        -13    1    4    4    0    0  0.28878781824E+02  0.69919134879E+01  0.15702576824E+02  0.33607169068E+02  0.00000000000E+00 0.  1.
         14    1    4    4    0    0  0.21240471548E+02  0.16609947722E+03  0.65841174181E+02  0.17993124848E+03  0.00000000000E+00 0. -1.
         -5    1    5    5    0  502 -0.95028677969E+01 -0.19164274667E+02 -0.66944309450E+02  0.70435818215E+02  0.47000000000E+01 0.  1.
         11    1    6    6    0    0 -0.41866442168E+01 -0.10519511331E+03  0.27790783942E+02  0.10888465239E+03  0.00000000000E+00 0. -1.
        -12    1    6    6    0    0 -0.62633691131E+02 -0.41137175802E+02  0.10795900638E+02  0.75708638663E+02  0.00000000000E+00 0.  1.
<mgrwt>
<rscale>  2 0.25297846E+03</rscale>
<asrwt>0</asrwt>
<pdfrwt beam="1">  1       21 0.40917394E-01 0.25344761E+03</pdfrwt>
<pdfrwt beam="2">  1       21 0.37747984E-01 0.25344761E+03</pdfrwt>
<totfact> 0.37841918E+04</totfact>
</mgrwt>
</event>
<event>
12    1  0.1026879E-001  0.2495343E+03  0.7546771E-02  0.1115076E+00
         21   -1    0    0  501  502  0.00000000000E+00  0.00000000000E+00  0.26975367294E+03  0.26975367294E+03  0.00000000000E+00 0.  1.
         21   -1    0    0  502  503 -0.00000000000E+00 -0.00000000000E+00 -0.22856867239E+03  0.22856867239E+03  0.00000000000E+00 0. -1.
         -6    2    1    2    0  503 -0.14292651036E+03  0.87693106823E+02 -0.20528711607E+02  0.24126990071E+03  0.17225466217E+03 0.  0.
        -24    2    3    3    0    0 -0.12265964858E+03 -0.23233267404E+01 -0.20986781365E+02  0.14887940431E+03  0.81693603169E+02 0.  0.
          6    2    1    2  501    0  0.14292651036E+03 -0.87693106823E+02  0.61713712156E+02  0.25705244461E+03  0.18479531559E+03 0.  0.
         24    2    5    5    0    0  0.17081498939E+02  0.11316226619E+02 -0.92201780140E+01  0.81856777473E+02  0.78712678425E+02 0.  0.
          5    1    5    5  501    0  0.12584501143E+03 -0.99009333442E+02  0.70933890170E+02  0.17519566714E+03  0.47000000000E+01 0. -1.
        -13    1    6    6    0    0  0.19617658492E+02 -0.57400990218E+01  0.31548456231E+02  0.37591306868E+02  0.00000000000E+00 0.  1.
         14    1    6    6    0    0 -0.25361595537E+01  0.17056325641E+02 -0.40768634245E+02  0.44265470605E+02  0.00000000000E+00 0. -1.
         -5    1    3    3    0  503 -0.20266861788E+02  0.90016433564E+02  0.45806975806E+00  0.92390496406E+02  0.47000000000E+01 0.  1.
         11    1    4    4    0    0 -0.69669538209E+02 -0.17863278251E+02 -0.48931248935E+02  0.86989702761E+02  0.00000000000E+00 0. -1.
        -12    1    4    4    0    0 -0.52990110366E+02  0.15539951511E+02  0.27944467570E+02  0.61889701545E+02  0.00000000000E+00 0.  1.
<mgrwt>
<rscale>  2 0.24721741E+03</rscale>
<asrwt>0</asrwt>
<pdfrwt beam="1">  1       21 0.41500565E-01 0.24953432E+03</pdfrwt>
<pdfrwt beam="2">  1       21 0.35164411E-01 0.24953432E+03</pdfrwt>
<totfact> 0.42455920E+04</totfact>
</mgrwt>
</event>
<event>
12    1  0.1026879E-001  0.2238630E+03  0.7546771E-02  0.1133049E+00
         21   -1    0    0  503  502  0.00000000000E+00  0.00000000000E+00  0.15856438795E+03  0.15856438795E+03  0.00000000000E+00 0.  1.
         21   -1    0    0  501  503 -0.00000000000E+00 -0.00000000000E+00 -0.37489706454E+03  0.37489706454E+03  0.00000000000E+00 0. -1.
          6    2    1    2  501    0  0.10590977854E+03 -0.34119353852E+02 -0.22438564551E+03  0.30945366899E+03  0.18174609718E+03 0.  0.
         24    2    3    3    0    0  0.17504983914E+02 -0.55894102045E+02 -0.18402729041E+03  0.20975194284E+03  0.81849000001E+02 0.  0.
         -6    2    1    2    0  502 -0.10590977854E+03  0.34119353852E+02  0.80529689210E+01  0.22400778350E+03  0.19425144854E+03 0.  0.
        -24    2    5    5    0    0 -0.75749962431E+02  0.19581415118E+02 -0.74755126516E+02  0.13456374043E+03  0.79984890267E+02 0.  0.
          5    1    3    3  501    0  0.88404794624E+02  0.21774748193E+02 -0.40358355097E+02  0.99701726151E+02  0.47000000000E+01 0. -1.
        -11    1    4    4    0    0 -0.90101391236E+01  0.93193840014E+01 -0.96784019548E+02  0.97648246093E+02  0.00000000000E+00 0.  1.
         12    1    4    4    0    0  0.26515123038E+02 -0.65213486047E+02 -0.87243270866E+02  0.11210369674E+03  0.00000000000E+00 0. -1.
         -5    1    5    5    0  502 -0.30159816107E+02  0.14537938735E+02  0.82808095437E+02  0.89444043067E+02  0.47000000000E+01 0.  1.
         13    1    6    6    0    0 -0.38525009714E+02  0.29166427841E+01 -0.84251657864E+02  0.92687782536E+02  0.00000000000E+00 0. -1.
        -14    1    6    6    0    0 -0.37224952717E+02  0.16664772334E+02  0.94965313476E+01  0.41875957892E+02  0.00000000000E+00 0.  1.
<mgrwt>
<rscale>  2 0.22112296E+03</rscale>
<asrwt>0</asrwt>
<pdfrwt beam="1">  1       21 0.24394521E-01 0.22386299E+03</pdfrwt>
<pdfrwt beam="2">  1       21 0.57676472E-01 0.22386299E+03</pdfrwt>
<totfact> 0.44079290E+04</totfact>
</mgrwt>
</event>
<event>
12    1  0.1026879E-001  0.2897597E+03  0.7546771E-02  0.1090565E+00
         21   -1    0    0  501  502  0.00000000000E+00  0.00000000000E+00  0.30299322005E+03  0.30299322005E+03  0.00000000000E+00 0.  1.
         21   -1    0    0  502  503 -0.00000000000E+00 -0.00000000000E+00 -0.35684742508E+03  0.35684742508E+03  0.00000000000E+00 0. -1.
         -6    2    1    2    0  503  0.58334598687E+02 -0.22403477499E+03 -0.18355316931E+03  0.34300505154E+03  0.17425898430E+03 0.  0.
        -24    2    3    3    0    0  0.59776839333E+02 -0.23121165020E+03 -0.11965451823E+03  0.27851695027E+03  0.78882128197E+02 0.  0.
          6    2    1    2  501    0 -0.58334598687E+02  0.22403477499E+03  0.12969896427E+03  0.31683559358E+03  0.17311402664E+03 0.  0.
         24    2    5    5    0    0 -0.61731798512E+02  0.21905266792E+03  0.62891926004E+02  0.24959250680E+03  0.80908212353E+02 0.  0.
          5    1    5    5  501    0  0.33971998257E+01  0.49821070740E+01  0.66807038268E+02  0.67243086780E+02  0.47000000000E+01 0. -1.
        -11    1    6    6    0    0 -0.21759250389E+02  0.15622220459E+03  0.96038992148E+01  0.15802239419E+03  0.00000000000E+00 0.  1.
         12    1    6    6    0    0 -0.39972548123E+02  0.62830463329E+02  0.53288026789E+02  0.91570112617E+02  0.00000000000E+00 0. -1.
         -5    1    3    3    0  503 -0.14422406467E+01  0.71768752016E+01 -0.63898651082E+02  0.64488101273E+02  0.47000000000E+01 0.  1.
         13    1    4    4    0    0 -0.11272607471E+01 -0.52793464183E+02 -0.61853973053E+02  0.81328559312E+02  0.00000000000E+00 0. -1.
        -14    1    4    4    0    0  0.60904100080E+02 -0.17841818601E+03 -0.57800545175E+02  0.19718839096E+03  0.00000000000E+00 0.  1.
<mgrwt>
<rscale>  2 0.28958779E+03</rscale>
<asrwt>0</asrwt>
<pdfrwt beam="1">  1       21 0.46614342E-01 0.28975973E+03</pdfrwt>
<pdfrwt beam="2">  1       21 0.54899604E-01 0.28975973E+03</pdfrwt>
<totfact> 0.13087054E+04</totfact>
</mgrwt>
</event>
<event>
12    1  0.1026879E-001  0.2129453E+03  0.7546771E-02  0.1139407E+00
         21   -1    0    0  501  502  0.00000000000E+00  0.00000000000E+00  0.15037629067E+03  0.15037629067E+03  0.00000000000E+00 0. -1.
         21   -1    0    0  502  503 -0.00000000000E+00 -0.00000000000E+00 -0.40957604185E+03  0.40957604185E+03  0.00000000000E+00 0.  1.
         -6    2    1    2    0  503 -0.61771650803E+02 -0.10872052800E+03 -0.27394874130E+03  0.34649687684E+03  0.17139510714E+03 0.  0.
        -24    2    3    3    0    0 -0.17143948310E+02  0.12114694738E+02 -0.12548250998E+03  0.14988280124E+03  0.79235806325E+02 0.  0.
          6    2    1    2  501    0  0.61771650803E+02  0.10872052800E+03  0.14748990114E+02  0.21345545569E+03  0.17236533527E+03 0.  0.
         24    2    5    5    0    0  0.86488999095E+02  0.78411094741E+02  0.64698026986E+02  0.14984252198E+03  0.68105065548E+02 0.  0.
          5    1    5    5  501    0 -0.24717348292E+02  0.30309433254E+02 -0.49949036872E+02  0.63612933710E+02  0.47000000000E+01 0. -1.
        -13    1    6    6    0    0  0.28137300586E+02 -0.33908343611E+01 -0.32752815738E+01  0.28529509482E+02  0.00000000000E+00 0.  1.
         14    1    6    6    0    0  0.58351698509E+02  0.81801929102E+02  0.67973308560E+02  0.12131301249E+03  0.00000000000E+00 0. -1.
         -5    1    3    3    0  503 -0.44627702493E+02 -0.12083522273E+03 -0.14846623131E+03  0.19661407560E+03  0.47000000000E+01 0.  1.
         11    1    4    4    0    0  0.77013847301E+01 -0.72937781244E+00  0.93755240659E+01  0.12154989521E+02  0.00000000000E+00 0. -1.
        -12    1    4    4    0    0 -0.24845333040E+02  0.12844072551E+02 -0.13485803405E+03  0.13772781172E+03  0.00000000000E+00 0.  1.
<mgrwt>
<rscale>  2 0.21274888E+03</rscale>
<asrwt>0</asrwt>
<pdfrwt beam="1">  1       21 0.23134814E-01 0.21294530E+03</pdfrwt>
<pdfrwt beam="2">  1       21 0.63011698E-01 0.21294530E+03</pdfrwt>
<totfact> 0.40504798E+04</totfact>
</mgrwt>
</event>
<event>
12    1  0.1026879E-001  0.2963468E+03  0.7546771E-02  0.1087194E+00
         21   -1    0    0  501  502  0.00000000000E+00  0.00000000000E+00  0.64911771970E+03  0.64911771970E+03  0.00000000000E+00 0. -1.
         21   -1    0    0  502  503 -0.00000000000E+00 -0.00000000000E+00 -0.20226015072E+03  0.20226015072E+03  0.00000000000E+00 0. -1.
         -6    2    1    2    0  503  0.52211003790E+00 -0.23958638277E+03 -0.22476059629E+02  0.29631437163E+03  0.17290207104E+03 0.  0.
        -24    2    3    3    0    0 -0.41970954236E+02 -0.23564405394E+03 -0.23540354003E+02  0.25336760004E+03  0.79695114802E+02 0.  0.
          6    2    1    2  501    0 -0.52211003790E+00  0.23958638277E+03  0.46933362860E+03  0.55506349879E+03  0.17441194151E+03 0.  0.
         24    2    5    5    0    0  0.62604973518E+02  0.17294093383E+03  0.36333398357E+03  0.41476146997E+03  0.78660943639E+02 0.  0.
          5    1    5    5  501    0 -0.63127083556E+02  0.66645448940E+02  0.10599964503E+03  0.14030202881E+03  0.47000000000E+01 0. -1.
        -13    1    6    6    0    0 -0.57570445486E+01  0.12809840895E+02  0.27066859267E+01  0.14302507975E+02  0.00000000000E+00 0.  1.
         14    1    6    6    0    0  0.68362018067E+02  0.16013109294E+03  0.36062729764E+03  0.40045896200E+03  0.00000000000E+00 0. -1.
         -5    1    3    3    0  503  0.42493064274E+02 -0.39423288289E+01  0.10642943735E+01  0.42946771595E+02  0.47000000000E+01 0.  1.
         13    1    4    4    0    0 -0.41832706218E+02 -0.14446701249E+03  0.21055624487E+02  0.15186847049E+03  0.00000000000E+00 0. -1.
        -14    1    4    4    0    0 -0.13824801787E+00 -0.91177041456E+02 -0.44595978489E+02  0.10149912955E+03  0.00000000000E+00 0.  1.
<mgrwt>
<rscale>  2 0.29612504E+03</rscale>
<asrwt>0</asrwt>
<pdfrwt beam="1">  1       21 0.99864264E-01 0.29634681E+03</pdfrwt>
<pdfrwt beam="2">  1       21 0.31116946E-01 0.29634681E+03</pdfrwt>
<totfact> 0.76743166E+03</totfact>
</mgrwt>
</event>
<event>
12    1  0.1026879E-001  0.1834516E+03  0.7546771E-02  0.1164603E+00
         21   -1    0    0  503  502  0.00000000000E+00  0.00000000000E+00  0.11797970633E+03  0.11797970633E+03  0.00000000000E+00 0.  1.
         21   -1    0    0  501  503 -0.00000000000E+00 -0.00000000000E+00 -0.39379508922E+03  0.39379508922E+03  0.00000000000E+00 0.  1.
          6    2    1    2  501    0 -0.22793643881E+02  0.55922604671E+02 -0.27253656236E+03  0.32829390776E+03  0.17278259211E+03 0.  0.
         24    2    3    3    0    0 -0.76276804865E+02  0.99847159754E+01 -0.14927372212E+03  0.18621450774E+03  0.80469579747E+02 0.  0.
         -6    2    1    2    0  502  0.22793643881E+02 -0.55922604671E+02 -0.32788205335E+01  0.18348088779E+03  0.17322701176E+03 0.  0.
        -24    2    5    5    0    0  0.49778941641E+02 -0.72026637365E+02  0.43760427133E+02  0.12671534379E+03  0.80473746326E+02 0.  0.
          5    1    3    3  501    0  0.53483160984E+02  0.45937888696E+02 -0.12326284024E+03  0.14207940002E+03  0.47000000000E+01 0. -1.
        -13    1    4    4    0    0 -0.37122521521E+02  0.30773741938E+02 -0.12851611557E+03  0.13726433170E+03  0.00000000000E+00 0.  1.
         14    1    4    4    0    0 -0.39154283344E+02 -0.20789025963E+02 -0.20757606553E+02  0.48950176041E+02  0.00000000000E+00 0. -1.
         -5    1    5    5    0  502 -0.26985297760E+02  0.16104032694E+02 -0.47039247666E+02  0.56765543997E+02  0.47000000000E+01 0.  1.
         13    1    6    6    0    0  0.34313417814E+02 -0.25370132772E+02 -0.19238450999E+02  0.46809959152E+02  0.00000000000E+00 0. -1.
        -14    1    6    6    0    0  0.15465523826E+02 -0.46656504594E+02  0.62998878132E+02  0.79905384637E+02  0.00000000000E+00 0.  1.
<mgrwt>
<rscale>  2 0.18334660E+03</rscale>
<asrwt>0</asrwt>
<pdfrwt beam="1">  1       21 0.18150724E-01 0.18345159E+03</pdfrwt>
<pdfrwt beam="2">  1       21 0.60583859E-01 0.18345159E+03</pdfrwt>
<totfact> 0.70437181E+04</totfact>
</mgrwt>
</event>
<event>
12    1  0.1026879E-001  0.3182937E+03  0.7546771E-02  0.1076605E+00
         21   -1    0    0  503  502  0.00000000000E+00  0.00000000000E+00  0.28872951281E+03  0.28872951281E+03  0.00000000000E+00 0.  1.
         21   -1    0    0  501  503 -0.00000000000E+00 -0.00000000000E+00 -0.36989340888E+03  0.36989340888E+03  0.00000000000E+00 0. -1.
          6    2    1    2  501    0  0.25193563418E+03 -0.82251639298E+02 -0.11821137566E+03  0.33818045119E+03  0.17365250443E+03 0.  0.
         24    2    3    3    0    0  0.10632851541E+02 -0.13409040026E+02 -0.26544858945E+02  0.70989177622E+02  0.63576520169E+02 0.  0.
         -6    2    1    2    0  502 -0.25193563418E+03  0.82251639298E+02  0.37047479585E+02  0.32044247050E+03  0.17627809059E+03 0.  0.
        -24    2    5    5    0    0 -0.10831226742E+03 -0.82263066569E+01 -0.28944487482E+02  0.13825860760E+03  0.80488755895E+02 0.  0.
          5    1    3    3  501    0  0.24130278264E+03 -0.68842599272E+02 -0.91666516712E+02  0.26719127357E+03  0.47000000000E+01 0. -1.
        -13    1    4    4    0    0  0.17970817783E+01  0.11848825472E+02  0.16446893641E+02  0.20350048610E+02  0.00000000000E+00 0.  1.
         14    1    4    4    0    0  0.88357697622E+01 -0.25257865498E+02 -0.42991752585E+02  0.50639129013E+02  0.00000000000E+00 0. -1.
         -5    1    5    5    0  502 -0.14362336676E+03  0.90477945955E+02  0.65991967067E+02  0.18218386290E+03  0.47000000000E+01 0.  1.
         11    1    6    6    0    0 -0.11962609643E+03  0.19509106253E+01 -0.28712732659E+02  0.12303914018E+03  0.00000000000E+00 0. -1.
        -12    1    6    6    0    0  0.11313829007E+02 -0.10177217282E+02 -0.23175482346E+00  0.15219467425E+02  0.00000000000E+00 0.  1.
<mgrwt>
<rscale>  2 0.31793141E+03</rscale>
<asrwt>0</asrwt>
<pdfrwt beam="1">  1       21 0.44419925E-01 0.31829367E+03</pdfrwt>
<pdfrwt beam="2">  1       21 0.56906678E-01 0.31829367E+03</pdfrwt>
<totfact> 0.13234198E+04</totfact>
</mgrwt>
</event>
<event>
12    1  0.1026879E-001  0.1876312E+03  0.7546771E-02  0.1160618E+00
         21   -1    0    0  503  502  0.00000000000E+00  0.00000000000E+00  0.36691025948E+03  0.36691025948E+03  0.00000000000E+00 0. -1.
         21   -1    0    0  501  503 -0.00000000000E+00 -0.00000000000E+00 -0.30190574257E+03  0.30190574257E+03  0.00000000000E+00 0. -1.
          6    2    1    2  501    0  0.28949040962E+02  0.68393249470E+02 -0.24370366020E+03  0.30756617345E+03  0.17230726481E+03 0.  0.
         24    2    3    3    0    0  0.80530404536E+02  0.55033507192E+02 -0.20817829741E+03  0.24335354865E+03  0.79805470732E+02 0.  0.
         -6    2    1    2    0  502 -0.28949040962E+02 -0.68393249470E+02  0.30870817711E+03  0.36124982861E+03  0.17229340239E+03 0.  0.
        -24    2    5    5    0    0  0.30308275848E+00 -0.10821412622E+03  0.19226507668E+03  0.23466991470E+03  0.79960741485E+02 0.  0.
          5    1    3    3  501    0 -0.51581363575E+02  0.13359742278E+02 -0.35525362792E+02  0.64212624798E+02  0.47000000000E+01 0. -1.
        -13    1    4    4    0    0  0.11793943915E+02 -0.91261781045E+01 -0.95224423283E+02  0.96385035298E+02  0.00000000000E+00 0.  1.
         14    1    4    4    0    0  0.68736460622E+02  0.64159685297E+02 -0.11295387413E+03  0.14696851335E+03  0.00000000000E+00 0. -1.
         -5    1    5    5    0  502 -0.29252123720E+02  0.39820876752E+02  0.11644310043E+03  0.12657991391E+03  0.47000000000E+01 0.  1.
         11    1    6    6    0    0  0.34682895712E+02 -0.67496963499E+02  0.79265980705E+02  0.10973531352E+03  0.00000000000E+00 0. -1.
        -12    1    6    6    0    0 -0.34379812954E+02 -0.40717162723E+02  0.11299909598E+03  0.12493460118E+03  0.00000000000E+00 0.  1.
<mgrwt>
<rscale>  2 0.18762804E+03</rscale>
<asrwt>0</asrwt>
<pdfrwt beam="1">  1       21 0.56447732E-01 0.18763123E+03</pdfrwt>
<pdfrwt beam="2">  1       21 0.46447037E-01 0.18763123E+03</pdfrwt>
<totfact> 0.13149208E+04</totfact>
</mgrwt>
</event>
<event>
12    1  0.1026879E-001  0.1778683E+03  0.7546771E-02  0.1170226E+00
         21   -1    0    0  503  502  0.00000000000E+00  0.00000000000E+00  0.55351718789E+03  0.55351718789E+03  0.00000000000E+00 0. -1.
         21   -1    0    0  501  503 -0.00000000000E+00 -0.00000000000E+00 -0.56827950997E+02  0.56827950997E+02  0.00000000000E+00 0.  1.
          6    2    1    2  501    0  0.49416071123E+02  0.15066819589E+02  0.26321397565E+03  0.31767707934E+03  0.17020038961E+03 0.  0.
         24    2    3    3    0    0  0.67387236663E+02  0.33351266597E+02  0.90702627989E+02  0.14320777297E+03  0.81413468587E+02 0.  0.
         -6    2    1    2    0  502 -0.49416071123E+02 -0.15066819589E+02  0.23347526125E+03  0.29266805955E+03  0.16874518757E+03 0.  0.
        -24    2    5    5    0    0 -0.90486176326E+02  0.12125043094E+02  0.19768345465E+03  0.23160011086E+03  0.78899292337E+02 0.  0.
          5    1    3    3  501    0 -0.17971165540E+02 -0.18284447008E+02  0.17251134766E+03  0.17446930637E+03  0.47000000000E+01 0. -1.
        -11    1    4    4    0    0  0.15167815045E+02  0.51348643073E+02  0.58366057667E+02  0.79204434511E+02  0.00000000000E+00 0.  1.
         12    1    4    4    0    0  0.52219421619E+02 -0.17997376476E+02  0.32336570321E+02  0.64003338462E+02  0.00000000000E+00 0. -1.
         -5    1    5    5    0  502  0.41070105204E+02 -0.27191862683E+02  0.35791806598E+02  0.61067948689E+02  0.47000000000E+01 0.  1.
         11    1    6    6    0    0  0.10125555172E+02 -0.13449678511E+02  0.26225459422E+02  0.31164008752E+02  0.00000000000E+00 0. -1.
        -12    1    6    6    0    0 -0.10061173150E+03  0.25574721604E+02  0.17145799523E+03  0.20043610211E+03  0.00000000000E+00 0.  1.
<mgrwt>
<rscale>  2 0.17751928E+03</rscale>
<asrwt>0</asrwt>
<pdfrwt beam="1">  1       21 0.85156487E-01 0.17786829E+03</pdfrwt>
<pdfrwt beam="2">  1       21 0.87427621E-02 0.17786829E+03</pdfrwt>
<totfact> 0.12331030E+05</totfact>
</mgrwt>
</event>
<event>
12    1  0.1026879E-001  0.2713132E+03  0.7546771E-02  0.1100615E+00
         21   -1    0    0  501  502  0.00000000000E+00  0.00000000000E+00  0.12101616740E+04  0.12101616740E+04  0.00000000000E+00 0.  1.
         21   -1    0    0  502  503 -0.00000000000E+00 -0.00000000000E+00 -0.16868491859E+03  0.16868491859E+03  0.00000000000E+00 0.  1.
         -6    2    1    2    0  503  0.19421472905E+03  0.78234180879E+02 -0.31090348164E+02  0.27249626568E+03  0.17160319643E+03 0.  0.
        -24    2    3    3    0    0  0.45901877500E+02  0.77361631650E+02  0.37206964105E+01  0.12007788719E+03  0.79454710377E+02 0.  0.
          6    2    1    2  501    0 -0.19421472905E+03 -0.78234180879E+02  0.10725671036E+04  0.11063503269E+04  0.17254247641E+03 0.  0.
         24    2    5    5    0    0 -0.26654309233E+02 -0.20712195071E+02  0.45845191190E+03  0.46717520867E+03  0.83277084774E+02 0.  0.
          5    1    5    5  501    0 -0.16756041982E+03 -0.57521985808E+02  0.61411519170E+03  0.63917511827E+03  0.47000000000E+01 0. -1.
        -11    1    6    6    0    0 -0.41315325733E+02 -0.41468540397E+02  0.38561153872E+03  0.39002929989E+03  0.00000000000E+00 0.  1.
         12    1    6    6    0    0  0.14661016500E+02  0.20756345326E+02  0.72840373184E+02  0.77145908781E+02  0.00000000000E+00 0. -1.
         -5    1    3    3    0  503  0.14831285155E+03  0.87254922938E+00 -0.34811044575E+02  0.15241837849E+03  0.47000000000E+01 0.  1.
         13    1    4    4    0    0  0.54954368959E+02  0.57572450202E+02 -0.25562320069E+02  0.83594269524E+02  0.00000000000E+00 0. -1.
        -14    1    4    4    0    0 -0.90524914590E+01  0.19789181448E+02  0.29283016480E+02  0.36483617668E+02  0.00000000000E+00 0.  1.
<mgrwt>
<rscale>  2 0.27116399E+03</rscale>
<asrwt>0</asrwt>
<pdfrwt beam="1">  1       21 0.18617871E+00 0.27131320E+03</pdfrwt>
<pdfrwt beam="2">  1       21 0.25951527E-01 0.27131320E+03</pdfrwt>
<totfact> 0.21799508E+03</totfact>
</mgrwt>
</event>
<event>
12    1  0.1026879E-001  0.1781860E+03  0.7546771E-02  0.1170463E+00
         21   -1    0    0  503  502  0.00000000000E+00  0.00000000000E+00  0.16460235078E+03  0.16460235078E+03  0.00000000000E+00 0. -1.
         21   -1    0    0  501  503 -0.00000000000E+00 -0.00000000000E+00 -0.18919101383E+03  0.18919101383E+03  0.00000000000E+00 0. -1.
          6    2    1    2  501    0 -0.15138798544E+02 -0.10693275967E+02 -0.17851236760E+02  0.17907799956E+03  0.17721945125E+03 0.  0.
         24    2    3    3    0    0  0.24269694863E+02 -0.53548593086E+02  0.29481146802E+02  0.10389786860E+03  0.80431083369E+02 0.  0.
         -6    2    1    2    0  502  0.15138798544E+02  0.10693275967E+02 -0.67374262960E+01  0.17471536505E+03  0.17359878024E+03 0.  0.
        -24    2    5    5    0    0 -0.20125611819E+02 -0.40297469064E+02 -0.44847208978E+02  0.10179019619E+03  0.79505003763E+02 0.  0.
          5    1    3    3  501    0 -0.39408493407E+02  0.42855317118E+02 -0.47332383562E+02  0.75180130963E+02  0.47000000000E+01 0. -1.
        -11    1    4    4    0    0  0.39028902577E+02  0.21785068032E+01 -0.12853545759E+00  0.39089866329E+02  0.00000000000E+00 0.  1.
         12    1    4    4    0    0 -0.14759207714E+02 -0.55727099889E+02  0.29609682260E+02  0.64808002267E+02  0.00000000000E+00 0. -1.
         -5    1    5    5    0  502  0.35264410364E+02  0.50990745031E+02  0.38109782682E+02  0.72925168859E+02  0.47000000000E+01 0.  1.
         13    1    6    6    0    0 -0.90688839554E+01 -0.11947460377E+02 -0.64066627599E+02  0.65799082346E+02  0.00000000000E+00 0. -1.
        -14    1    6    6    0    0 -0.11056727864E+02 -0.28350008687E+02  0.19219418621E+02  0.35991113844E+02  0.00000000000E+00 0.  1.
<mgrwt>
<rscale>  2 0.17727898E+03</rscale>
<asrwt>0</asrwt>
<pdfrwt beam="1">  1       21 0.25323439E-01 0.17818604E+03</pdfrwt>
<pdfrwt beam="2">  1       21 0.29106310E-01 0.17818604E+03</pdfrwt>
<totfact> 0.16777820E+05</totfact>
</mgrwt>
</event>
<event>
12    1  0.1026879E-001  0.1888917E+03  0.7546771E-02  0.1159751E+00
         21   -1    0    0  503  502  0.00000000000E+00  0.00000000000E+00  0.30645385400E+04  0.30645385400E+04  0.00000000000E+00 0. -1.
         21   -1    0    0  501  503 -0.00000000000E+00 -0.00000000000E+00 -0.11565923246E+02  0.11565923246E+02  0.00000000000E+00 0. -1.
          6    2    1    2  501    0  0.33107041738E+02 -0.65888108289E+02  0.15277384130E+04  0.15392181793E+04  0.17254166434E+03 0.  0.
         24    2    3    3    0    0  0.63838245509E+02 -0.50532222811E+02  0.14448755868E+04  0.14493930822E+04  0.80287099048E+02 0.  0.
         -6    2    1    2    0  502 -0.33107041738E+02  0.65888108289E+02  0.15252342038E+04  0.15368862840E+04  0.17390444050E+03 0.  0.
        -24    2    5    5    0    0 -0.12623630275E+01  0.10690184307E+03  0.96896332890E+03  0.97817742754E+03  0.80694171963E+02 0.  0.
          5    1    3    3  501    0 -0.30731203771E+02 -0.15355885479E+02  0.82862826178E+02  0.89825097084E+02  0.47000000000E+01 0. -1.
        -13    1    4    4    0    0  0.51152246887E+01  0.39603107024E+01  0.80106634882E+01  0.10296616629E+02  0.00000000000E+00 0.  1.
         14    1    4    4    0    0  0.58723020820E+02 -0.54492533513E+02  0.14368649233E+04  0.14390964656E+04  0.00000000000E+00 0. -1.
         -5    1    5    5    0  502 -0.31844678710E+02 -0.41013734781E+02  0.55627087487E+03  0.55870885641E+03  0.47000000000E+01 0.  1.
         11    1    6    6    0    0 -0.60073116729E+01  0.65843700976E+02  0.84337685884E+03  0.84596454227E+03  0.00000000000E+00 0. -1.
        -12    1    6    6    0    0  0.47449486454E+01  0.41058142095E+02  0.12558647006E+03  0.13221288527E+03  0.00000000000E+00 0.  1.
<mgrwt>
<rscale>  2 0.18857744E+03</rscale>
<asrwt>0</asrwt>
<pdfrwt beam="1">  1       21 0.47146682E+00 0.18889170E+03</pdfrwt>
<pdfrwt beam="2">  1       21 0.17793752E-02 0.18889170E+03</pdfrwt>
<totfact> 0.44667077E+03</totfact>
</mgrwt>
</event>
<event>
12    1  0.1026879E-001  0.1803640E+03  0.7546771E-02  0.1167807E+00
         21   -1    0    0  501  502  0.00000000000E+00  0.00000000000E+00  0.84191178133E+02  0.84191178133E+02  0.00000000000E+00 0. -1.
         21   -1    0    0  502  503 -0.00000000000E+00 -0.00000000000E+00 -0.39508688244E+03  0.39508688244E+03  0.00000000000E+00 0. -1.
         -6    2    1    2    0  503  0.45359751514E+02 -0.24993891243E+01 -0.19752598822E+03  0.26748396588E+03  0.17454913914E+03 0.  0.
        -24    2    3    3    0    0  0.94102789596E+02 -0.25503121898E+02 -0.14348682240E+03  0.19101582267E+03  0.79955187899E+02 0.  0.
          6    2    1    2  501    0 -0.45359751514E+02  0.24993891243E+01 -0.11336971609E+03  0.21179409470E+03  0.17303263282E+03 0.  0.
         24    2    5    5    0    0 -0.81180216642E+02  0.34899994099E+02 -0.11105418309E+03  0.16321059320E+03  0.80600427970E+02 0.  0.
          5    1    5    5  501    0  0.35820465128E+02 -0.32400604974E+02 -0.23155329987E+01  0.48583501497E+02  0.47000000000E+01 0. -1.
        -13    1    6    6    0    0  0.99481169180E+01 -0.98077276225E+00 -0.42509585463E+02  0.43669117253E+02  0.00000000000E+00 0.  1.
         14    1    6    6    0    0 -0.91128333560E+02  0.35880766861E+02 -0.68544597630E+02  0.11954147595E+03  0.00000000000E+00 0. -1.
         -5    1    3    3    0  503 -0.48743038082E+02  0.23003732774E+02 -0.54039165819E+02  0.76468143206E+02  0.47000000000E+01 0.  1.
         11    1    4    4    0    0  0.75135227468E+02  0.10079520379E+01 -0.13913462203E+03  0.15812893923E+03  0.00000000000E+00 0. -1.
        -12    1    4    4    0    0  0.18967562128E+02 -0.26511073936E+02 -0.43522003659E+01  0.32886883439E+02  0.00000000000E+00 0.  1.
<mgrwt>
<rscale>  2 0.17999603E+03</rscale>
<asrwt>0</asrwt>
<pdfrwt beam="1">  1       21 0.12952489E-01 0.18036395E+03</pdfrwt>
<pdfrwt beam="2">  1       21 0.60782598E-01 0.18036395E+03</pdfrwt>
<totfact> 0.12949671E+05</totfact>
</mgrwt>
</event>
<event>
12    1  0.1026879E-001  0.1808110E+03  0.7546771E-02  0.1167185E+00
         21   -1    0    0  503  502  0.00000000000E+00  0.00000000000E+00  0.17385989168E+04  0.17385989168E+04  0.00000000000E+00 0.  1.
         21   -1    0    0  501  503 -0.00000000000E+00 -0.00000000000E+00 -0.25567875314E+02  0.25567875314E+02  0.00000000000E+00 0.  1.
          6    2    1    2  501    0 -0.54109169898E+01  0.48977275898E+02  0.13137717169E+04  0.13261556272E+04  0.17396715752E+03 0.  0.
         24    2    3    3    0    0 -0.15332175729E+02 -0.40804930283E+02  0.60223323154E+03  0.60889111389E+03  0.78507359286E+02 0.  0.
         -6    2    1    2    0  502  0.54109169898E+01 -0.48977275898E+02  0.39925932463E+03  0.43801116494E+03  0.17325622855E+03 0.  0.
        -24    2    5    5    0    0 -0.29454207430E+02  0.28730093945E+00  0.94467262728E+02  0.12726550297E+03  0.80030067118E+02 0.  0.
          5    1    3    3  501    0  0.99212587394E+01  0.89782206182E+02  0.71153848533E+03  0.71726451329E+03  0.47000000000E+01 0. -1.
        -13    1    4    4    0    0 -0.12061105737E+02  0.20855736848E+02  0.99264878094E+02  0.10214669869E+03  0.00000000000E+00 0.  1.
         14    1    4    4    0    0 -0.32710699924E+01 -0.61660667131E+02  0.50296835345E+03  0.50674441520E+03  0.00000000000E+00 0. -1.
         -5    1    5    5    0  502  0.34865124420E+02 -0.49264576838E+02  0.30479206191E+03  0.31074566197E+03  0.47000000000E+01 0.  1.
         11    1    6    6    0    0  0.14322275169E+02  0.66832152514E+01  0.78742226243E+02  0.80312708371E+02  0.00000000000E+00 0. -1.
        -12    1    6    6    0    0 -0.43776482599E+02 -0.63959143120E+01  0.15725036485E+02  0.46952794604E+02  0.00000000000E+00 0.  1.
<mgrwt>
<rscale>  2 0.18063979E+03</rscale>
<asrwt>0</asrwt>
<pdfrwt beam="1">  1       21 0.26747666E+00 0.18081102E+03</pdfrwt>
<pdfrwt beam="2">  1       21 0.39335206E-02 0.18081102E+03</pdfrwt>
<totfact> 0.21423873E+04</totfact>
</mgrwt>
</event>
<event>
12    1  0.1026879E-001  0.1987230E+03  0.7546771E-02  0.1150860E+00
         21   -1    0    0  501  502  0.00000000000E+00  0.00000000000E+00  0.51271082671E+03  0.51271082671E+03  0.00000000000E+00 0. -1.
         21   -1    0    0  502  503 -0.00000000000E+00 -0.00000000000E+00 -0.17485169156E+03  0.17485169156E+03  0.00000000000E+00 0. -1.
         -6    2    1    2    0  503  0.97609987969E+02 -0.10965372854E+02  0.42613431081E+03  0.47011516064E+03  0.17253945711E+03 0.  0.
        -24    2    3    3    0    0  0.55548795292E+02 -0.65562118531E+02  0.33848837508E+03  0.35851834788E+03  0.81098493565E+02 0.  0.
          6    2    1    2  501    0 -0.97609987969E+02  0.10965372854E+02 -0.88275175662E+02  0.21744735763E+03  0.17275096975E+03 0.  0.
         24    2    5    5    0    0 -0.46007766825E+02  0.52191896778E+02  0.22474247270E+01  0.10529189997E+03  0.78997623913E+02 0.  0.
          5    1    5    5  501    0 -0.51602221144E+02 -0.41226523924E+02 -0.90522600389E+02  0.11215545766E+03  0.47000000000E+01 0. -1.
        -13    1    6    6    0    0 -0.11288563084E+02  0.65994421193E+02 -0.53455015477E+01  0.67165985974E+02  0.00000000000E+00 0.  1.
         14    1    6    6    0    0 -0.34719203740E+02 -0.13802524415E+02  0.75929262747E+01  0.38125913996E+02  0.00000000000E+00 0. -1.
         -5    1    3    3    0  503  0.42061192676E+02  0.54596745677E+02  0.87645935734E+02  0.11159681276E+03  0.47000000000E+01 0.  1.
         13    1    4    4    0    0  0.44555735867E+02 -0.71424451413E+02  0.17130954531E+03  0.19087594446E+03  0.00000000000E+00 0. -1.
        -14    1    4    4    0    0  0.10993059425E+02  0.58623328826E+01  0.16717882977E+03  0.16764240342E+03  0.00000000000E+00 0.  1.
<mgrwt>
<rscale>  2 0.19867706E+03</rscale>
<asrwt>0</asrwt>
<pdfrwt beam="1">  1       21 0.78878588E-01 0.19872304E+03</pdfrwt>
<pdfrwt beam="2">  1       21 0.26900260E-01 0.19872304E+03</pdfrwt>
<totfact> 0.18619456E+04</totfact>
</mgrwt>
</event>
<event>
12    1  0.1026879E-001  0.2168794E+03  0.7546771E-02  0.1136886E+00
         21   -1    0    0  503  502  0.00000000000E+00  0.00000000000E+00  0.47992116869E+02  0.47992116869E+02  0.00000000000E+00 0. -1.
         21   -1    0    0  501  503 -0.00000000000E+00 -0.00000000000E+00 -0.20925917574E+04  0.20925917574E+04  0.00000000000E+00 0. -1.
          6    2    1    2  501    0  0.12161597082E+03 -0.48609936135E+02 -0.18118018995E+04  0.18247363660E+04  0.17286790441E+03 0.  0.
         24    2    3    3    0    0  0.15364522847E+03 -0.23911790729E+02 -0.15212605358E+04  0.15313556479E+04  0.81473141721E+02 0.  0.
         -6    2    1    2    0  502 -0.12161597082E+03  0.48609936135E+02 -0.23279774105E+03  0.31584750821E+03  0.16855708220E+03 0.  0.
        -24    2    5    5    0    0 -0.12624720598E+03 -0.72373342177E+01 -0.12854256671E+03  0.19739246475E+03  0.80311005855E+02 0.  0.
          5    1    3    3  501    0 -0.32029257644E+02 -0.24698145405E+02 -0.29054136372E+03  0.29338071812E+03  0.47000000000E+01 0. -1.
        -13    1    4    4    0    0  0.12697904713E+03 -0.34158700554E+02 -0.91254018317E+03  0.92196533619E+03  0.00000000000E+00 0.  1.
         14    1    4    4    0    0  0.26666181340E+02  0.10246909825E+02 -0.60872035259E+03  0.60939031174E+03  0.00000000000E+00 0. -1.
         -5    1    5    5    0  502  0.46312351573E+01  0.55847270352E+02 -0.10425517434E+03  0.11845504346E+03  0.47000000000E+01 0.  1.
         11    1    6    6    0    0 -0.10506182694E+03  0.26413212237E+02 -0.80146422506E+02  0.13475568374E+03  0.00000000000E+00 0. -1.
        -12    1    6    6    0    0 -0.21185379040E+02 -0.33650546455E+02 -0.48396144201E+02  0.62636781010E+02  0.00000000000E+00 0.  1.
<mgrwt>
<rscale>  2 0.21601928E+03</rscale>
<asrwt>0</asrwt>
<pdfrwt beam="1">  1       21 0.73834028E-02 0.21687942E+03</pdfrwt>
<pdfrwt beam="2">  1       21 0.32193719E+00 0.21687942E+03</pdfrwt>
<totfact> 0.34181663E+03</totfact>
</mgrwt>
</event>
<event>
12    1  0.1026879E-001  0.2480232E+03  0.7546771E-02  0.1114600E+00
         21   -1    0    0  503  502  0.00000000000E+00  0.00000000000E+00  0.24240765796E+03  0.24240765796E+03  0.00000000000E+00 0.  1.
         21   -1    0    0  501  503 -0.00000000000E+00 -0.00000000000E+00 -0.30944139529E+03  0.30944139529E+03  0.00000000000E+00 0.  1.
          6    2    1    2  501    0 -0.42373965863E+02  0.17228577990E+03 -0.15080359051E+03  0.29006119552E+03  0.17296193597E+03 0.  0.
         24    2    3    3    0    0  0.24408780773E+02  0.15836696528E+03 -0.11432848276E+03  0.21256156885E+03  0.80221782022E+02 0.  0.
         -6    2    1    2    0  502  0.42373965863E+02 -0.17228577990E+03  0.83769853175E+02  0.26178785773E+03  0.17331344787E+03 0.  0.
        -24    2    5    5    0    0 -0.33249604030E+02 -0.13258039452E+03  0.76484299275E+02  0.17593559365E+03  0.80127323035E+02 0.  0.
          5    1    3    3  501    0 -0.66782746636E+02  0.13918814624E+02 -0.36475107752E+02  0.77499626672E+02  0.47000000000E+01 0. -1.
        -13    1    4    4    0    0 -0.24830499694E+02  0.57957530869E+02 -0.64275353045E+02  0.90038603435E+02  0.00000000000E+00 0.  1.
         14    1    4    4    0    0  0.49239280467E+02  0.10040943441E+03 -0.50053129713E+02  0.12252296541E+03  0.00000000000E+00 0. -1.
         -5    1    5    5    0  502  0.75623569893E+02 -0.39705385384E+02  0.72855539005E+01  0.85852264079E+02  0.47000000000E+01 0.  1.
         13    1    6    6    0    0 -0.55610724842E+02 -0.83926855256E+02  0.68560293764E+02  0.12180633658E+03  0.00000000000E+00 0. -1.
        -14    1    6    6    0    0  0.22361120813E+02 -0.48653539264E+02  0.79240055109E+01  0.54129257064E+02  0.00000000000E+00 0.  1.
<mgrwt>
<rscale>  2 0.24796177E+03</rscale>
<asrwt>0</asrwt>
<pdfrwt beam="1">  1       21 0.37293486E-01 0.24802317E+03</pdfrwt>
<pdfrwt beam="2">  1       21 0.47606368E-01 0.24802317E+03</pdfrwt>
<totfact> 0.28446680E+04</totfact>
</mgrwt>
</event>
<event>
12    1  0.1026879E-001  0.1800584E+03  0.7546771E-02  0.1168162E+00
         21   -1    0    0  501  502  0.00000000000E+00  0.00000000000E+00  0.62310312066E+02  0.62310312066E+02  0.00000000000E+00 0. -1.
         21   -1    0    0  502  503 -0.00000000000E+00 -0.00000000000E+00 -0.56204138537E+03  0.56204138537E+03  0.00000000000E+00 0. -1.
         -6    2    1    2    0  503  0.45379514117E+02 -0.14640688086E+02 -0.34089512357E+03  0.38552626164E+03  0.17362996023E+03 0.  0.
        -24    2    3    3    0    0  0.68069393105E+02  0.14636211807E+02 -0.11304036918E+03  0.15463267885E+03  0.79281014933E+02 0.  0.
          6    2    1    2  501    0 -0.45379514117E+02  0.14640688086E+02 -0.15883594973E+03  0.23882543579E+03  0.17185773130E+03 0.  0.
         24    2    5    5    0    0  0.25854186669E+02  0.48518101348E+02 -0.89737352877E+02  0.13385579569E+03  0.82717207468E+02 0.  0.
          5    1    5    5  501    0 -0.71233700786E+02 -0.33877413262E+02 -0.69098596849E+02  0.10496964010E+03  0.47000000000E+01 0. -1.
        -11    1    6    6    0    0 -0.18376181712E+02  0.31857448950E+02 -0.53921252069E+01  0.37170635213E+02  0.00000000000E+00 0.  1.
         12    1    6    6    0    0  0.44230368381E+02  0.16660652399E+02 -0.84345227670E+02  0.96685160476E+02  0.00000000000E+00 0. -1.
         -5    1    3    3    0  503 -0.22689878988E+02 -0.29276899893E+02 -0.22785475439E+03  0.23089358279E+03  0.47000000000E+01 0.  1.
         11    1    4    4    0    0  0.78316607757E+02  0.27642767326E+02 -0.10994441960E+03  0.13778747780E+03  0.00000000000E+00 0. -1.
        -12    1    4    4    0    0 -0.10247214652E+02 -0.13006555519E+02 -0.30959495797E+01  0.16845201050E+02  0.00000000000E+00 0.  1.
<mgrwt>
<rscale>  2 0.17962975E+03</rscale>
<asrwt>0</asrwt>
<pdfrwt beam="1">  1       21 0.95862021E-02 0.18005836E+03</pdfrwt>
<pdfrwt beam="2">  1       21 0.86467903E-01 0.18005836E+03</pdfrwt>
<totfact> 0.10123311E+05</totfact>
</mgrwt>
</event>
<event>
12    1  0.1026879E-001  0.1950343E+03  0.7546771E-02  0.1154372E+00
         21   -1    0    0  501  502  0.00000000000E+00  0.00000000000E+00  0.39941860340E+02  0.39941860340E+02  0.00000000000E+00 0.  1.
         21   -1    0    0  502  503 -0.00000000000E+00 -0.00000000000E+00 -0.16240530410E+04  0.16240530410E+04  0.00000000000E+00 0.  1.
         -6    2    1    2    0  503 -0.76525756582E+02  0.44554179200E+02 -0.13284059971E+04  0.13423996312E+04  0.17185171107E+03 0.  0.
        -24    2    3    3    0    0 -0.75789085366E+01  0.67914272024E+02 -0.10210815857E+04  0.10265361392E+04  0.80616699198E+02 0.  0.
          6    2    1    2  501    0  0.76525756582E+02 -0.44554179200E+02 -0.25570518362E+03  0.32159527013E+03  0.17377315827E+03 0.  0.
         24    2    5    5    0    0  0.10749979173E+03 -0.72255133351E+02 -0.21209640732E+03  0.26117549617E+03  0.80316525623E+02 0.  0.
          5    1    5    5  501    0 -0.30974035146E+02  0.27700954151E+02 -0.43608776308E+02  0.60419773958E+02  0.47000000000E+01 0. -1.
        -13    1    6    6    0    0  0.96181379180E+02 -0.68039031704E+02 -0.21794921864E+03  0.24775396958E+03  0.00000000000E+00 0.  1.
         14    1    6    6    0    0  0.11318412548E+02 -0.42161016477E+01  0.58528113255E+01  0.13421526594E+02  0.00000000000E+00 0. -1.
         -5    1    3    3    0  503 -0.68946848045E+02 -0.23360092824E+02 -0.30732441137E+03  0.31586349206E+03  0.47000000000E+01 0.  1.
         13    1    4    4    0    0  0.16537674543E+02  0.37894578319E+02 -0.18481268900E+03  0.18938116000E+03  0.00000000000E+00 0. -1.
        -14    1    4    4    0    0 -0.24116583080E+02  0.30019693705E+02 -0.83626889670E+03  0.83715497919E+03  0.00000000000E+00 0.  1.
<mgrwt>
<rscale>  2 0.19460538E+03</rscale>
<asrwt>0</asrwt>
<pdfrwt beam="1">  1       21 0.61449025E-02 0.19503430E+03</pdfrwt>
<pdfrwt beam="2">  1       21 0.24985428E+00 0.19503430E+03</pdfrwt>
<totfact> 0.12583088E+04</totfact>
</mgrwt>
</event>
<event>
12    1  0.1026879E-001  0.1815340E+03  0.7546771E-02  0.1166822E+00
         21   -1    0    0  501  502  0.00000000000E+00  0.00000000000E+00  0.72950407005E+03  0.72950407005E+03  0.00000000000E+00 0. -1.
         21   -1    0    0  502  503 -0.00000000000E+00 -0.00000000000E+00 -0.62183154596E+02  0.62183154596E+02  0.00000000000E+00 0. -1.
         -6    2    1    2    0  503 -0.51296060784E+02 -0.28595316214E+02  0.12491508837E+03  0.22035964793E+03  0.17177199181E+03 0.  0.
        -24    2    3    3    0    0 -0.56566855790E+02 -0.82214976627E+02  0.85074343478E+02  0.15318655647E+03  0.79179325640E+02 0.  0.
          6    2    1    2  501    0  0.51296060784E+02  0.28595316214E+02  0.54240582708E+03  0.57132757672E+03  0.16959404678E+03 0.  0.
         24    2    5    5    0    0 -0.24313040982E+02 -0.17809677594E+02  0.19884823072E+03  0.21646975767E+03  0.80063902898E+02 0.  0.
          5    1    5    5  501    0  0.75609101766E+02  0.46404993808E+02  0.34355759637E+03  0.35485781905E+03  0.47000000000E+01 0. -1.
        -13    1    6    6    0    0 -0.29590886115E+02 -0.16913763011E+02  0.24346977153E+02  0.41886408497E+02  0.00000000000E+00 0.  1.
         14    1    6    6    0    0  0.52778451323E+01 -0.89591458292E+00  0.17450125356E+03  0.17458334917E+03  0.00000000000E+00 0. -1.
         -5    1    3    3    0  503  0.52707950061E+01  0.53619660413E+02  0.39840744894E+02  0.67173091462E+02  0.47000000000E+01 0.  1.
         11    1    4    4    0    0 -0.63185897654E+02 -0.57615948632E+02  0.26839355548E+02  0.89623692210E+02  0.00000000000E+00 0. -1.
        -12    1    4    4    0    0  0.66190418646E+01 -0.24599027995E+02  0.58234987930E+02  0.63562864259E+02  0.00000000000E+00 0.  1.
<mgrwt>
<rscale>  2 0.18101694E+03</rscale>
<asrwt>0</asrwt>
<pdfrwt beam="1">  1       21 0.11223139E+00 0.18153401E+03</pdfrwt>
<pdfrwt beam="2">  1       21 0.95666397E-02 0.18153401E+03</pdfrwt>
<totfact> 0.54884513E+04</totfact>
</mgrwt>
</event>
<event>
12    1  0.1026879E-001  0.1818054E+03  0.7546771E-02  0.1166622E+00
         21   -1    0    0  501  502  0.00000000000E+00  0.00000000000E+00  0.15655329105E+03  0.15655329105E+03  0.00000000000E+00 0.  1.
         21   -1    0    0  502  503 -0.00000000000E+00 -0.00000000000E+00 -0.23368765349E+03  0.23368765349E+03  0.00000000000E+00 0.  1.
         -6    2    1    2    0  503 -0.22248652406E+02 -0.41956087757E+02 -0.10245671529E+03  0.20668056654E+03  0.17310159515E+03 0.  0.
        -24    2    3    3    0    0  0.11635702827E+01 -0.51206628279E+02  0.39036521117E+01  0.97280738269E+02  0.82612534539E+02 0.  0.
          6    2    1    2  501    0  0.22248652406E+02  0.41956087757E+02  0.25322352859E+02  0.18356037799E+03  0.17549323343E+03 0.  0.
         24    2    5    5    0    0  0.29024886980E+02  0.60185623643E+02 -0.41817329833E+02  0.11350282790E+03  0.81666697673E+02 0.  0.
          5    1    5    5  501    0 -0.67762345742E+01 -0.18229535886E+02  0.67139682692E+02  0.70057550097E+02  0.47000000000E+01 0. -1.
        -11    1    6    6    0    0 -0.14483466340E+02  0.21405071198E+02  0.16813040144E+02  0.30832226470E+02  0.00000000000E+00 0.  1.
         12    1    6    6    0    0  0.43508353320E+02  0.38780552445E+02 -0.58630369978E+02  0.82670601427E+02  0.00000000000E+00 0. -1.
         -5    1    3    3    0  503 -0.23412222689E+02  0.92505405215E+01 -0.10636036741E+03  0.10939982827E+03  0.47000000000E+01 0.  1.
         13    1    4    4    0    0 -0.37821960096E+02 -0.42034433961E+02  0.76291877791E+01  0.57057854938E+02  0.00000000000E+00 0. -1.
        -14    1    4    4    0    0  0.38985530378E+02 -0.91721943172E+01 -0.37255356673E+01  0.40222883331E+02  0.00000000000E+00 0.  1.
<mgrwt>
<rscale>  2 0.18122572E+03</rscale>
<asrwt>0</asrwt>
<pdfrwt beam="1">  1       21 0.24085122E-01 0.18180537E+03</pdfrwt>
<pdfrwt beam="2">  1       21 0.35951947E-01 0.18180537E+03</pdfrwt>
<totfact> 0.12178180E+05</totfact>
</mgrwt>
</event>
<event>
12    1  0.1026879E-001  0.2431649E+03  0.7546771E-02  0.1117835E+00
         21   -1    0    0  501  502  0.00000000000E+00  0.00000000000E+00  0.64923644941E+02  0.64923644941E+02  0.00000000000E+00 0.  1.
         21   -1    0    0  502  503 -0.00000000000E+00 -0.00000000000E+00 -0.10398333903E+04  0.10398333903E+04  0.00000000000E+00 0.  1.
         -6    2    1    2    0  503 -0.35661594766E+02  0.16621993920E+03 -0.68505808302E+03  0.72693449097E+03  0.17386304815E+03 0.  0.
        -24    2    3    3    0    0  0.26792629701E+02  0.29091363663E+02 -0.32573466269E+03  0.33726772720E+03  0.77989081856E+02 0.  0.
          6    2    1    2  501    0  0.35661594766E+02 -0.16621993920E+03 -0.28985166237E+03  0.37782254431E+03  0.17272831638E+03 0.  0.
         24    2    5    5    0    0  0.78143538443E+02 -0.61064202175E+02 -0.17308577092E+03  0.21497658036E+03  0.80131121426E+02 0.  0.
          5    1    5    5  501    0 -0.42481943677E+02 -0.10515573703E+03 -0.11676589146E+03  0.16284596395E+03  0.47000000000E+01 0. -1.
        -11    1    6    6    0    0  0.68293970573E+02 -0.73785723103E+02 -0.17151536935E+03  0.19881127049E+03  0.00000000000E+00 0.  1.
         12    1    6    6    0    0  0.98495678695E+01  0.12721520928E+02 -0.15704015627E+01  0.16165309865E+02  0.00000000000E+00 0. -1.
         -5    1    3    3    0  503 -0.62454224467E+02  0.13712857554E+03 -0.35932342034E+03  0.38966676377E+03  0.47000000000E+01 0.  1.
         11    1    4    4    0    0  0.43078532880E+02  0.46648215295E+02 -0.23631906718E+03  0.24470087352E+03  0.00000000000E+00 0. -1.
        -12    1    4    4    0    0 -0.16285903178E+02 -0.17556851632E+02 -0.89415595504E+02  0.92566853684E+02  0.00000000000E+00 0.  1.
<mgrwt>
<rscale>  2 0.24296216E+03</rscale>
<asrwt>0</asrwt>
<pdfrwt beam="1">  1       21 0.99882546E-02 0.24316492E+03</pdfrwt>
<pdfrwt beam="2">  1       21 0.15997434E+00 0.24316492E+03</pdfrwt>
<totfact> 0.19828885E+04</totfact>
</mgrwt>
</event>
<event>
11    1  0.1026879E-001  0.1739213E+03  0.7546771E-02  0.1173900E+00
         21   -1    0    0  503  502  0.00000000000E+00  0.00000000000E+00  0.36915840102E+02  0.36915840102E+02  0.00000000000E+00 0. -1.
         21   -1    0    0  501  503 -0.00000000000E+00 -0.00000000000E+00 -0.14554084277E+04  0.14554084277E+04  0.00000000000E+00 0. -1.
          6    2    1    2  501    0 -0.16280118745E+02  0.22388735507E+02 -0.12034572378E+04  0.12159596802E+04  0.17170417245E+03 0.  0.
         -6    2    1    2    0  502  0.16280118745E+02 -0.22388735507E+02 -0.21503534984E+03  0.27636458767E+03  0.17137936252E+03 0.  0.
        -24    2    4    4    0    0 -0.58137297446E+02 -0.13398216184E+02 -0.13040886422E+03  0.16321639574E+03  0.77933705284E+02 0.  0.
          5    1    3    3  501    0 -0.86248306594E+02  0.12367576521E+02 -0.68451022544E+03  0.69004932147E+03  0.47000000000E+01 0. -1.
        -13    1    3    3    0    0 -0.10358926675E+01  0.92087027995E+01 -0.21378489189E+02  0.23300495292E+02  0.00000000000E+00 0.  1.
         14    1    3    3    0    0  0.71004080516E+02  0.81245618590E+00 -0.49756852316E+03  0.50260986339E+03  0.00000000000E+00 0. -1.
         -5    1    4    4    0  502  0.74417416192E+02 -0.89905193230E+01 -0.84626485612E+02  0.11314819193E+03  0.47000000000E+01 0.  1.
         11    1    5    5    0    0  0.17192821350E+02 -0.11518890199E+02 -0.15722656125E+02  0.25989995249E+02  0.00000000000E+00 0. -1.
        -12    1    5    5    0    0 -0.75330118796E+02 -0.18793259845E+01 -0.11468620810E+03  0.13722640049E+03  0.00000000000E+00 0.  1.
<mgrwt>
<rscale>  2 0.17384108E+03</rscale>
<asrwt>0</asrwt>
<pdfrwt beam="1">  1       21 0.56793600E-02 0.17392131E+03</pdfrwt>
<pdfrwt beam="2">  1       21 0.22390899E+00 0.17392131E+03</pdfrwt>
<totfact> 0.20945551E+04</totfact>
</mgrwt>
</event>
<event>
12    1  0.1026879E-001  0.1764820E+03  0.7546771E-02  0.1171536E+00
         21   -1    0    0  503  502  0.00000000000E+00  0.00000000000E+00  0.14952579588E+03  0.14952579588E+03  0.00000000000E+00 0. -1.
         21   -1    0    0  501  503 -0.00000000000E+00 -0.00000000000E+00 -0.21171197880E+03  0.21171197880E+03  0.00000000000E+00 0. -1.
          6    2    1    2  501    0 -0.17552311392E+02  0.32302384546E+02 -0.58262834915E+02  0.18585066967E+03  0.17261050316E+03 0.  0.
         24    2    3    3    0    0 -0.46790509399E+02  0.48622449570E+02 -0.90623442458E+02  0.13904772462E+03  0.81044228826E+02 0.  0.
         -6    2    1    2    0  502  0.17552311392E+02 -0.32302384546E+02 -0.39233480055E+01  0.17538710500E+03  0.17144595725E+03 0.  0.
        -24    2    5    5    0    0 -0.29396422255E+02  0.19166253724E+02 -0.17400499676E+02  0.10427502492E+03  0.96638545674E+02 0.  0.
          5    1    3    3  501    0  0.29238198007E+02 -0.16320065024E+02  0.32360607542E+02  0.46802945053E+02  0.47000000000E+01 0. -1.
        -11    1    4    4    0    0  0.65622705201E+01  0.51582500217E+02 -0.46244446490E+02  0.69587114857E+02  0.00000000000E+00 0.  1.
         12    1    4    4    0    0 -0.53352779919E+02 -0.29600506465E+01 -0.44378995968E+02  0.69460609759E+02  0.00000000000E+00 0. -1.
         -5    1    5    5    0  502  0.46948733647E+02 -0.51468638270E+02  0.13477151671E+02  0.71112080082E+02  0.47000000000E+01 0.  1.
         13    1    6    6    0    0 -0.21021657930E+02 -0.18966585280E+01 -0.55814486434E+02  0.59672140163E+02  0.00000000000E+00 0. -1.
        -14    1    6    6    0    0 -0.83747643248E+01  0.21062912252E+02  0.38413986758E+02  0.44602884757E+02  0.00000000000E+00 0.  1.
<mgrwt>
<rscale>  2 0.17619665E+03</rscale>
<asrwt>0</asrwt>
<pdfrwt beam="1">  1       21 0.23003969E-01 0.17648205E+03</pdfrwt>
<pdfrwt beam="2">  1       21 0.32571074E-01 0.17648205E+03</pdfrwt>
<totfact> 0.16176520E+05</totfact>
</mgrwt>
</event>
<event>
12    1  0.1026879E-001  0.2392750E+03  0.7546771E-02  0.1120592E+00
         21   -1    0    0  503  502  0.00000000000E+00  0.00000000000E+00  0.18124861275E+04  0.18124861275E+04  0.00000000000E+00 0. -1.
         21   -1    0    0  501  503 -0.00000000000E+00 -0.00000000000E+00 -0.31353579155E+02  0.31353579155E+02  0.00000000000E+00 0. -1.
          6    2    1    2  501    0 -0.15682952475E+03 -0.46336066106E+02  0.91273478199E+03  0.94357687766E+03  0.17467115089E+03 0.  0.
         24    2    3    3    0    0 -0.17829913618E+03 -0.89498092324E+01  0.75196707972E+03  0.77706255242E+03  0.80629029148E+02 0.  0.
         -6    2    1    2    0  502  0.15682952475E+03  0.46336066106E+02  0.86839776637E+03  0.90026282901E+03  0.17209285226E+03 0.  0.
        -24    2    5    5    0    0  0.49176976571E+02  0.42654077686E+02  0.21681239524E+03  0.23981736264E+03  0.79164432215E+02 0.  0.
          5    1    3    3  501    0  0.21469611435E+02 -0.37386256874E+02  0.16076770227E+03  0.16651432524E+03  0.47000000000E+01 0. -1.
        -13    1    4    4    0    0 -0.94246348430E+02  0.30103181889E+02  0.46834426536E+03  0.47868040136E+03  0.00000000000E+00 0.  1.
         14    1    4    4    0    0 -0.84052787754E+02 -0.39052991121E+02  0.28362281437E+03  0.29838215106E+03  0.00000000000E+00 0. -1.
         -5    1    5    5    0  502  0.10765254818E+03  0.36819884201E+01  0.65158537114E+03  0.66044546637E+03  0.47000000000E+01 0.  1.
         11    1    6    6    0    0  0.34187658434E+02 -0.18856223774E+02  0.88847788934E+02  0.97047837496E+02  0.00000000000E+00 0. -1.
        -12    1    6    6    0    0  0.14989318137E+02  0.61510301460E+02  0.12796460630E+03  0.14276952515E+03  0.00000000000E+00 0.  1.
<mgrwt>
<rscale>  2 0.23880474E+03</rscale>
<asrwt>0</asrwt>
<pdfrwt beam="1">  1       21 0.27884394E+00 0.23927503E+03</pdfrwt>
<pdfrwt beam="2">  1       21 0.48236290E-02 0.23927503E+03</pdfrwt>
<totfact> 0.12379412E+04</totfact>
</mgrwt>
</event>
<event>
12    1  0.1026879E-001  0.2581730E+03  0.7546771E-02  0.1108856E+00
         21   -1    0    0  503  502  0.00000000000E+00  0.00000000000E+00  0.26692824976E+03  0.26692824976E+03  0.00000000000E+00 0.  1.
         21   -1    0    0  501  503 -0.00000000000E+00 -0.00000000000E+00 -0.27170307110E+03  0.27170307110E+03  0.00000000000E+00 0.  1.
          6    2    1    2  501    0 -0.18551230869E+03  0.19075352190E+02 -0.85465615693E+02  0.27195161819E+03  0.17853466171E+03 0.  0.
         24    2    3    3    0    0 -0.14776194623E+03  0.64131522564E+01 -0.12961760794E+03  0.21231178593E+03  0.80005305335E+02 0.  0.
         -6    2    1    2    0  502  0.18551230869E+03 -0.19075352190E+02  0.80690794351E+02  0.26667970267E+03  0.17270892794E+03 0.  0.
        -24    2    5    5    0    0  0.17774328536E+02  0.10470976093E+02  0.36755498247E+02  0.90721140096E+02  0.80335487262E+02 0.  0.
          5    1    3    3  501    0 -0.37750362455E+02  0.12662199933E+02  0.44151992243E+02  0.59639832257E+02  0.47000000000E+01 0. -1.
        -11    1    4    4    0    0 -0.12911799642E+03  0.63170864483E+01 -0.64291369182E+02  0.14437708520E+03  0.00000000000E+00 0.  1.
         12    1    4    4    0    0 -0.18643949814E+02  0.96065808057E-01 -0.65326238753E+02  0.67934700728E+02  0.00000000000E+00 0. -1.
         -5    1    5    5    0  502  0.16773798015E+03 -0.29546328283E+02  0.43935296105E+02  0.17595856258E+03  0.47000000000E+01 0.  1.
         11    1    6    6    0    0  0.39491056071E+02  0.30261347309E+02  0.95135849420E+01  0.50653735785E+02  0.00000000000E+00 0. -1.
        -12    1    6    6    0    0 -0.21716727535E+02 -0.19790371216E+02  0.27241913305E+02  0.40067404310E+02  0.00000000000E+00 0.  1.
<mgrwt>
<rscale>  2 0.25716872E+03</rscale>
<asrwt>0</asrwt>
<pdfrwt beam="1">  1       21 0.41065885E-01 0.25817303E+03</pdfrwt>
<pdfrwt beam="2">  1       21 0.41800472E-01 0.25817303E+03</pdfrwt>
<totfact> 0.30472158E+04</totfact>
</mgrwt>
</event>
<event>
12    1  0.1026879E-001  0.1927867E+03  0.7546771E-02  0.1156301E+00
         21   -1    0    0  503  502  0.00000000000E+00  0.00000000000E+00  0.82178743641E+03  0.82178743641E+03  0.00000000000E+00 0.  1.
         21   -1    0    0  501  503 -0.00000000000E+00 -0.00000000000E+00 -0.15920592916E+03  0.15920592916E+03  0.00000000000E+00 0.  1.
          6    2    1    2  501    0 -0.73024825490E+02 -0.41289453542E+02 -0.84721943627E+02  0.20922322209E+03  0.17192761505E+03 0.  0.
         24    2    3    3    0    0 -0.11030706679E+03 -0.42949538625E+02 -0.35906395545E+02  0.14759717943E+03  0.80519229278E+02 0.  0.
         -6    2    1    2    0  502  0.73024825490E+02  0.41289453542E+02  0.74730345088E+03  0.77177014348E+03  0.17357782854E+03 0.  0.
        -24    2    5    5    0    0 -0.12375173450E+02  0.47502117315E+02  0.26912415227E+03  0.28596227135E+03  0.83288746126E+02 0.  0.
          5    1    3    3  501    0  0.37282241298E+02  0.16600850839E+01 -0.48815548082E+02  0.61626042655E+02  0.47000000000E+01 0. -1.
        -13    1    4    4    0    0 -0.58124415145E+02  0.35525696437E+01 -0.49455726208E+02  0.76399851059E+02  0.00000000000E+00 0.  1.
         14    1    4    4    0    0 -0.52182651643E+02 -0.46502108269E+02  0.13549330663E+02  0.71197328373E+02  0.00000000000E+00 0. -1.
         -5    1    5    5    0  502  0.85399998939E+02 -0.62126637734E+01  0.47817929861E+03  0.48580787214E+03  0.47000000000E+01 0.  1.
         13    1    6    6    0    0 -0.84316652132E+01  0.72349667224E+01 -0.24612707404E+01  0.11379612269E+02  0.00000000000E+00 0. -1.
        -14    1    6    6    0    0 -0.39435082366E+01  0.40267150593E+02  0.27158542301E+03  0.27458265908E+03  0.00000000000E+00 0.  1.
<mgrwt>
<rscale>  2 0.19241450E+03</rscale>
<asrwt>0</asrwt>
<pdfrwt beam="1">  1       21 0.12642883E+00 0.19278669E+03</pdfrwt>
<pdfrwt beam="2">  1       21 0.24493220E-01 0.19278669E+03</pdfrwt>
<totfact> 0.73018878E+03</totfact>
</mgrwt>
</event>
<event>
11    1  0.1026879E-001  0.1849955E+03  0.7546771E-02  0.1163119E+00
         21   -1    0    0  503  502  0.00000000000E+00  0.00000000000E+00  0.18356573675E+03  0.18356573675E+03  0.00000000000E+00 0.  1.
         21   -1    0    0  501  503 -0.00000000000E+00 -0.00000000000E+00 -0.24397863816E+03  0.24397863816E+03  0.00000000000E+00 0. -1.
          6    2    1    2  501    0  0.30571580224E+02  0.59760619621E+02  0.73881387982E+02  0.19894368229E+03  0.17208769874E+03 0.  0.
         24    2    3    3    0    0  0.42595519773E+02  0.20238664013E+02  0.11044988828E+03  0.14357306452E+03  0.78676967469E+02 0.  0.
         -6    2    1    2    0  502 -0.30571580224E+02 -0.59760619621E+02 -0.13429428939E+03  0.22860069263E+03  0.17238725977E+03 0.  0.
          5    1    3    3  501    0 -0.12023939550E+02  0.39521955608E+02 -0.36568500297E+02  0.55370617762E+02  0.47000000000E+01 0. -1.
        -11    1    4    4    0    0  0.53662513499E+01 -0.18014046922E+02  0.79877369532E+02  0.82059104939E+02  0.00000000000E+00 0.  1.
         12    1    4    4    0    0  0.37229268424E+02  0.38252710935E+02  0.30572518748E+02  0.61513959585E+02  0.00000000000E+00 0. -1.
         -5    1    5    5    0  502 -0.51725143342E+02 -0.38633548549E+02 -0.46092907381E+02  0.79465008891E+02  0.47000000000E+01 0.  1.
         13    1    5    5    0    0 -0.43784327465E+02 -0.31974490390E+02 -0.35528084834E+02  0.64820368552E+02  0.00000000000E+00 0. -1.
        -14    1    5    5    0    0  0.64937890584E+02  0.10847419318E+02 -0.52673297177E+02  0.84315315185E+02  0.00000000000E+00 0.  1.
<mgrwt>
<rscale>  2 0.18492564E+03</rscale>
<asrwt>0</asrwt>
<pdfrwt beam="1">  1       21 0.28240883E-01 0.18499546E+03</pdfrwt>
<pdfrwt beam="2">  1       21 0.37535175E-01 0.18499546E+03</pdfrwt>
<totfact> 0.82281302E+04</totfact>
</mgrwt>
</event>
<event>
12    1  0.1026879E-001  0.1827825E+03  0.7546771E-02  0.1166430E+00
         21   -1    0    0  503  502  0.00000000000E+00  0.00000000000E+00  0.22025694511E+03  0.22025694511E+03  0.00000000000E+00 0.  1.
         21   -1    0    0  501  503 -0.00000000000E+00 -0.00000000000E+00 -0.20171788027E+03  0.20171788027E+03  0.00000000000E+00 0.  1.
          6    2    1    2  501    0 -0.51751614781E+02  0.23489407413E+02 -0.10024339228E+03  0.20846621831E+03  0.17372232035E+03 0.  0.
         24    2    3    3    0    0 -0.76560276756E+02 -0.17784631526E+02 -0.10925577637E+03  0.15924905600E+03  0.85121490059E+02 0.  0.
         -6    2    1    2    0  502  0.51751614781E+02 -0.23489407413E+02  0.11878245712E+03  0.21350860707E+03  0.16806746050E+03 0.  0.
        -24    2    5    5    0    0  0.20761080091E+02 -0.15750684525E+02  0.14851494870E+03  0.16961769540E+03  0.77681182370E+02 0.  0.
          5    1    3    3  501    0  0.24808661975E+02  0.41274038939E+02  0.90123840925E+01  0.49217162316E+02  0.47000000000E+01 0. -1.
        -13    1    4    4    0    0 -0.59597822278E+02  0.11550478032E+02 -0.10968075225E+03  0.12536020652E+03  0.00000000000E+00 0.  1.
         14    1    4    4    0    0 -0.16962454478E+02 -0.29335109558E+02  0.42497587988E+00  0.33888849482E+02  0.00000000000E+00 0. -1.
         -5    1    5    5    0  502  0.30990534689E+02 -0.77387228884E+01 -0.29732491577E+02  0.43890911675E+02  0.47000000000E+01 0.  1.
         11    1    6    6    0    0 -0.13530981114E+02 -0.36022506515E+02  0.48156375389E+02  0.61642070992E+02  0.00000000000E+00 0. -1.
        -12    1    6    6    0    0  0.34292061205E+02  0.20271821990E+02  0.10035857331E+03  0.10797562440E+03  0.00000000000E+00 0.  1.
<mgrwt>
<rscale>  2 0.18142597E+03</rscale>
<asrwt>0</asrwt>
<pdfrwt beam="1">  1       21 0.33885684E-01 0.18278246E+03</pdfrwt>
<pdfrwt beam="2">  1       21 0.31033520E-01 0.18278246E+03</pdfrwt>
<totfact> 0.84015168E+04</totfact>
</mgrwt>
</event>
<event>
12    1  0.1026879E-001  0.1903204E+03  0.7546771E-02  0.1158755E+00
         21   -1    0    0  503  502  0.00000000000E+00  0.00000000000E+00  0.27187071695E+03  0.27187071695E+03  0.00000000000E+00 0.  1.
         21   -1    0    0  501  503 -0.00000000000E+00 -0.00000000000E+00 -0.14898546964E+03  0.14898546964E+03  0.00000000000E+00 0.  1.
          6    2    1    2  501    0  0.51528837054E+02  0.56681824270E+02 -0.11139859430E+02  0.18808035026E+03  0.17141199326E+03 0.  0.
         24    2    3    3    0    0  0.37769065247E+02  0.71738634564E+02 -0.66127588952E+02  0.12924346341E+03  0.75882019173E+02 0.  0.
         -6    2    1    2    0  502 -0.51528837054E+02 -0.56681824270E+02  0.13402510674E+03  0.23277583634E+03  0.17422344990E+03 0.  0.
        -24    2    5    5    0    0 -0.41707822662E+02 -0.31827325097E+01  0.15064899566E+03  0.17570527628E+03  0.80172014823E+02 0.  0.
          5    1    3    3  501    0  0.13759771808E+02 -0.15056810294E+02  0.54987729522E+02  0.58836886852E+02  0.47000000000E+01 0. -1.
        -11    1    4    4    0    0  0.60692972553E+02  0.52899152112E+02 -0.55229824370E+02  0.97633450781E+02  0.00000000000E+00 0.  1.
         12    1    4    4    0    0 -0.22923907306E+02  0.18839482452E+02 -0.10897764583E+02  0.31610012625E+02  0.00000000000E+00 0. -1.
         -5    1    5    5    0  502 -0.98210143922E+01 -0.53499091760E+02 -0.16623888923E+02  0.57070560061E+02  0.47000000000E+01 0.  1.
         13    1    6    6    0    0 -0.62836476926E+02 -0.83469999938E+01  0.13425874558E+03  0.14847055602E+03  0.00000000000E+00 0. -1.
        -14    1    6    6    0    0  0.21128654264E+02  0.51642674841E+01  0.16390250085E+02  0.27234720257E+02  0.00000000000E+00 0.  1.
<mgrwt>
<rscale>  2 0.18967457E+03</rscale>
<asrwt>0</asrwt>
<pdfrwt beam="1">  1       21 0.41826264E-01 0.19032042E+03</pdfrwt>
<pdfrwt beam="2">  1       21 0.22920842E-01 0.19032042E+03</pdfrwt>
<totfact> 0.98388485E+04</totfact>
</mgrwt>
</event>
<event>
12    1  0.1026879E-001  0.2083750E+03  0.7546771E-02  0.1143147E+00
         21   -1    0    0  501  502  0.00000000000E+00  0.00000000000E+00  0.17543867466E+03  0.17543867466E+03  0.00000000000E+00 0. -1.
         21   -1    0    0  502  503 -0.00000000000E+00 -0.00000000000E+00 -0.67522494188E+03  0.67522494188E+03  0.00000000000E+00 0. -1.
         -6    2    1    2    0  503  0.79510372415E+02  0.80569861454E+02 -0.58877345605E+03  0.62408279094E+03  0.17323898378E+03 0.  0.
        -24    2    3    3    0    0  0.76878770498E+02  0.47928689504E+02 -0.19706810228E+03  0.23098287285E+03  0.79433909512E+02 0.  0.
          6    2    1    2  501    0 -0.79510372415E+02 -0.80569861454E+02  0.88987188839E+02  0.22658082560E+03  0.17494784610E+03 0.  0.
         24    2    5    5    0    0 -0.11503410677E+02  0.58363399515E+01  0.82140023981E+02  0.11630865253E+03  0.81328517709E+02 0.  0.
          5    1    5    5  501    0 -0.68006961738E+02 -0.86406201406E+02  0.68471648580E+01  0.11027217307E+03  0.47000000000E+01 0. -1.
        -11    1    6    6    0    0  0.10516678207E+02  0.22554301823E+02 -0.45663217916E+01  0.25301153055E+02  0.00000000000E+00 0.  1.
         12    1    6    6    0    0 -0.22020088884E+02 -0.16717961871E+02  0.86706345773E+02  0.91007499476E+02  0.00000000000E+00 0. -1.
         -5    1    3    3    0  503  0.26316019166E+01  0.32641171950E+02 -0.39170535377E+03  0.39309991810E+03  0.47000000000E+01 0.  1.
         11    1    4    4    0    0  0.60957058103E+02 -0.24834223166E+01 -0.14247637124E+03  0.15498853725E+03  0.00000000000E+00 0. -1.
        -12    1    4    4    0    0  0.15921712395E+02  0.50412111821E+02 -0.54591731047E+02  0.75994335595E+02  0.00000000000E+00 0.  1.
<mgrwt>
<rscale>  2 0.20801594E+03</rscale>
<asrwt>0</asrwt>
<pdfrwt beam="1">  1       21 0.26990565E-01 0.20837502E+03</pdfrwt>
<pdfrwt beam="2">  1       21 0.10388076E+00 0.20837502E+03</pdfrwt>
<totfact> 0.96957117E+03</totfact>
</mgrwt>
</event>
<event>
12    1  0.1026879E-001  0.2014249E+03  0.7546771E-02  0.1148902E+00
         21   -1    0    0  503  502  0.00000000000E+00  0.00000000000E+00  0.30562127782E+03  0.30562127782E+03  0.00000000000E+00 0. -1.
         21   -1    0    0  501  503 -0.00000000000E+00 -0.00000000000E+00 -0.14657930492E+03  0.14657930492E+03  0.00000000000E+00 0. -1.
          6    2    1    2  501    0  0.10186396751E+03 -0.15541421272E+02  0.69968260043E+01  0.19983236664E+03  0.17107371373E+03 0.  0.
         24    2    3    3    0    0  0.13177749553E+03 -0.37817235700E+02 -0.82817097574E+01  0.15925460522E+03  0.80610116750E+02 0.  0.
         -6    2    1    2    0  502 -0.10186396751E+03  0.15541421272E+02  0.15204514689E+03  0.25236821611E+03  0.17307277705E+03 0.  0.
        -24    2    5    5    0    0 -0.13723622941E+03  0.15242942680E+02  0.14525367571E+03  0.21604329240E+03  0.80684223504E+02 0.  0.
          5    1    3    3  501    0 -0.29913528020E+02  0.22275814428E+02  0.15278535762E+02  0.40577761423E+02  0.47000000000E+01 0. -1.
        -11    1    4    4    0    0 -0.73612240619E+01  0.90129423327E+01  0.29878433084E+01  0.12014489453E+02  0.00000000000E+00 0.  1.
         12    1    4    4    0    0  0.13913871959E+03 -0.46830178033E+02 -0.11269553066E+02  0.14724011576E+03  0.00000000000E+00 0. -1.
         -5    1    5    5    0  502  0.35372261898E+02  0.29847859224E+00  0.67914711848E+01  0.36324923704E+02  0.47000000000E+01 0.  1.
         13    1    6    6    0    0 -0.58927471583E+02  0.24280374921E+02  0.11524833337E+03  0.13169723558E+03  0.00000000000E+00 0. -1.
        -14    1    6    6    0    0 -0.78308757824E+02 -0.90374322406E+01  0.30005342335E+02  0.84346056825E+02  0.00000000000E+00 0.  1.
<mgrwt>
<rscale>  2 0.20099476E+03</rscale>
<asrwt>0</asrwt>
<pdfrwt beam="1">  1       21 0.47018658E-01 0.20142490E+03</pdfrwt>
<pdfrwt beam="2">  1       21 0.22550662E-01 0.20142490E+03</pdfrwt>
<totfact> 0.79453572E+04</totfact>
</mgrwt>
</event>
<event>
12    1  0.1026879E-001  0.1955985E+03  0.7546771E-02  0.1153657E+00
         21   -1    0    0  501  502  0.00000000000E+00  0.00000000000E+00  0.17978359919E+03  0.17978359919E+03  0.00000000000E+00 0.  1.
         21   -1    0    0  502  503 -0.00000000000E+00 -0.00000000000E+00 -0.40484657191E+03  0.40484657191E+03  0.00000000000E+00 0.  1.
         -6    2    1    2    0  503  0.91462663682E+02  0.66977832736E+01 -0.31435640258E+03  0.37024142818E+03  0.17276715007E+03 0.  0.
        -24    2    3    3    0    0  0.93535856410E+02  0.26875846956E+01 -0.10849813369E+03  0.16428003206E+03  0.80373530297E+02 0.  0.
          6    2    1    2  501    0 -0.91462663682E+02 -0.66977832736E+01  0.89293429863E+02  0.21438874293E+03  0.17198528230E+03 0.  0.
         24    2    5    5    0    0 -0.72313123697E+02 -0.68363775614E+02  0.72101094136E+02  0.14740317806E+03  0.81402306183E+02 0.  0.
          5    1    5    5  501    0 -0.19149539985E+02  0.61665992340E+02  0.17192335727E+02  0.66985564868E+02  0.47000000000E+01 0. -1.
        -11    1    6    6    0    0 -0.36421312404E+02  0.17534681926E+01  0.56280886224E+02  0.67060605441E+02  0.00000000000E+00 0.  1.
         12    1    6    6    0    0 -0.35891811293E+02 -0.70117243806E+02  0.15820207912E+02  0.80342572620E+02  0.00000000000E+00 0. -1.
         -5    1    3    3    0  503 -0.20731927282E+01  0.40101985780E+01 -0.20585826889E+03  0.20596139612E+03  0.47000000000E+01 0.  1.
         11    1    4    4    0    0 -0.13799954146E+02 -0.85356861691E+00 -0.39001574008E+01  0.14365881162E+02  0.00000000000E+00 0. -1.
        -12    1    4    4    0    0  0.10733581056E+03  0.35411533125E+01 -0.10459797629E+03  0.14991415090E+03  0.00000000000E+00 0.  1.
<mgrwt>
<rscale>  2 0.19542569E+03</rscale>
<asrwt>0</asrwt>
<pdfrwt beam="1">  1       21 0.27659016E-01 0.19559848E+03</pdfrwt>
<pdfrwt beam="2">  1       21 0.62284087E-01 0.19559848E+03</pdfrwt>
<totfact> 0.29779175E+04</totfact>
</mgrwt>
</event>
<event>
12    1  0.1026879E-001  0.2652511E+03  0.7546771E-02  0.1104047E+00
         21   -1    0    0  503  502  0.00000000000E+00  0.00000000000E+00  0.92016092289E+03  0.92016092289E+03  0.00000000000E+00 0. -1.
         21   -1    0    0  501  503 -0.00000000000E+00 -0.00000000000E+00 -0.95627811713E+02  0.95627811713E+02  0.00000000000E+00 0. -1.
          6    2    1    2  501    0 -0.19910354522E+03  0.25321505304E+02  0.18460289527E+03  0.32306307370E+03  0.17322852044E+03 0.  0.
         24    2    3    3    0    0 -0.19008706357E+03  0.51334779418E+02  0.10223226201E+03  0.23608607331E+03  0.80726992411E+02 0.  0.
         -6    2    1    2    0  502  0.19910354522E+03 -0.25321505304E+02  0.63993021591E+03  0.69272566091E+03  0.17342075912E+03 0.  0.
        -24    2    5    5    0    0  0.40010658996E+02  0.23913236960E+02  0.29773465001E+03  0.31212810230E+03  0.81273210196E+02 0.  0.
          5    1    3    3  501    0 -0.90164816565E+01 -0.26013274115E+02  0.82370633265E+02  0.86977000385E+02  0.47000000000E+01 0. -1.
        -11    1    4    4    0    0  0.32374179731E+01  0.13228540546E+02  0.15965856172E+02  0.20985321619E+02  0.00000000000E+00 0.  1.
         12    1    4    4    0    0 -0.19332448154E+03  0.38106238872E+02  0.86266405834E+02  0.21510075169E+03  0.00000000000E+00 0. -1.
         -5    1    5    5    0  502  0.15909288623E+03 -0.49234742263E+02  0.34219556590E+03  0.38059755861E+03  0.47000000000E+01 0.  1.
         13    1    6    6    0    0  0.37824606451E+02  0.20579972813E+02  0.57380539833E+02  0.71740940095E+02  0.00000000000E+00 0. -1.
        -14    1    6    6    0    0  0.21860525449E+01  0.33332641468E+01  0.24035411017E+03  0.24038716221E+03  0.00000000000E+00 0.  1.
<mgrwt>
<rscale>  2 0.26521971E+03</rscale>
<asrwt>0</asrwt>
<pdfrwt beam="1">  1       21 0.14156321E+00 0.26525113E+03</pdfrwt>
<pdfrwt beam="2">  1       21 0.14711972E-01 0.26525113E+03</pdfrwt>
<totfact> 0.13505648E+04</totfact>
</mgrwt>
</event>
<event>
12    1  0.1026879E-001  0.2754032E+03  0.7546771E-02  0.1098409E+00
         21   -1    0    0  501  502  0.00000000000E+00  0.00000000000E+00  0.16379272303E+03  0.16379272303E+03  0.00000000000E+00 0.  1.
         21   -1    0    0  502  503 -0.00000000000E+00 -0.00000000000E+00 -0.48620478910E+03  0.48620478910E+03  0.00000000000E+00 0. -1.
         -6    2    1    2    0  503  0.84759970737E+02 -0.19627812945E+03 -0.23575348034E+03  0.36252807000E+03  0.17360167425E+03 0.  0.
        -24    2    3    3    0    0  0.97611954225E+02 -0.21542534866E+03 -0.22711130264E+03  0.33745683712E+03  0.79758376852E+02 0.  0.
          6    2    1    2  501    0 -0.84759970737E+02  0.19627812945E+03 -0.86658585728E+02  0.28746944213E+03  0.17152146495E+03 0.  0.
         24    2    5    5    0    0 -0.12215922388E+01  0.11287626280E+03  0.38597774430E+01  0.13864002261E+03  0.80396610607E+02 0.  0.
          5    1    5    5  501    0 -0.83538378499E+02  0.83401866655E+02 -0.90518363171E+02  0.14882941952E+03  0.47000000000E+01 0. -1.
        -11    1    6    6    0    0 -0.25225707074E+02  0.98984038102E+02  0.23299323284E+02  0.10477134418E+03  0.00000000000E+00 0.  1.
         12    1    6    6    0    0  0.24004114835E+02  0.13892224696E+02 -0.19439545841E+02  0.33868678429E+02  0.00000000000E+00 0. -1.
         -5    1    3    3    0  503 -0.12851983488E+02  0.19147219204E+02 -0.86421777003E+01  0.25071232882E+02  0.47000000000E+01 0.  1.
         11    1    4    4    0    0  0.63846381139E+02 -0.79700147287E+02 -0.56029670965E+02  0.11648089067E+03  0.00000000000E+00 0. -1.
        -12    1    4    4    0    0  0.33765573086E+02 -0.13572520137E+03 -0.17108163167E+03  0.22097594645E+03  0.00000000000E+00 0.  1.
<mgrwt>
<rscale>  2 0.27507594E+03</rscale>
<asrwt>0</asrwt>
<pdfrwt beam="1">  1       21 0.25198880E-01 0.27540316E+03</pdfrwt>
<pdfrwt beam="2">  1       21 0.74800737E-01 0.27540316E+03</pdfrwt>
<totfact> 0.22877826E+04</totfact>
</mgrwt>
</event>
<event>
12    1  0.1026879E-001  0.1805188E+03  0.7546771E-02  0.1167354E+00
         21   -1    0    0  501  502  0.00000000000E+00  0.00000000000E+00  0.81579649477E+02  0.81579649477E+02  0.00000000000E+00 0. -1.
         21   -1    0    0  502  503 -0.00000000000E+00 -0.00000000000E+00 -0.44786950001E+03  0.44786950001E+03  0.00000000000E+00 0. -1.
         -6    2    1    2    0  503  0.18842427225E+02  0.46295739858E+02 -0.27052031627E+03  0.32509935149E+03  0.17323398694E+03 0.  0.
        -24    2    3    3    0    0  0.46434358415E+02  0.10877695078E+01 -0.25248289970E+03  0.26895210181E+03  0.80189061252E+02 0.  0.
          6    2    1    2  501    0 -0.18842427225E+02 -0.46295739858E+02 -0.95769534262E+02  0.20434979800E+03  0.17346095715E+03 0.  0.
         24    2    5    5    0    0  0.34962212245E+02  0.70182918872E+01 -0.93192789060E+02  0.12841525497E+03  0.80832970189E+02 0.  0.
          5    1    5    5  501    0 -0.53804639470E+02 -0.53314031745E+02 -0.25767452027E+01  0.75934543030E+02  0.47000000000E+01 0. -1.
        -13    1    6    6    0    0 -0.75514821478E+01  0.12976802900E+02 -0.82927600142E+02  0.84275792262E+02  0.00000000000E+00 0.  1.
         14    1    6    6    0    0  0.42513694393E+02 -0.59585110129E+01 -0.10265188918E+02  0.44139462705E+02  0.00000000000E+00 0. -1.
         -5    1    3    3    0  503 -0.27591931190E+02  0.45207970350E+02 -0.18037416574E+02  0.56147249680E+02  0.47000000000E+01 0.  1.
         11    1    4    4    0    0  0.39656217569E+02  0.11611310567E+02 -0.45006617074E+02  0.61098557310E+02  0.00000000000E+00 0. -1.
        -12    1    4    4    0    0  0.67781408461E+01 -0.10523541059E+02 -0.20747628262E+03  0.20785354450E+03  0.00000000000E+00 0.  1.
<mgrwt>
<rscale>  2 0.18046425E+03</rscale>
<asrwt>0</asrwt>
<pdfrwt beam="1">  1       21 0.12550716E-01 0.18051880E+03</pdfrwt>
<pdfrwt beam="2">  1       21 0.68902999E-01 0.18051880E+03</pdfrwt>
<totfact> 0.10436449E+05</totfact>
</mgrwt>
</event>
<event>
12    1  0.1026879E-001  0.2952417E+03  0.7546771E-02  0.1088010E+00
         21   -1    0    0  501  502  0.00000000000E+00  0.00000000000E+00  0.11820337894E+04  0.11820337894E+04  0.00000000000E+00 0.  1.
         21   -1    0    0  502  503 -0.00000000000E+00 -0.00000000000E+00 -0.10192621441E+03  0.10192621441E+03  0.00000000000E+00 0. -1.
         -6    2    1    2    0  503  0.23566054605E+03 -0.50741305599E+01  0.88374174739E+03  0.93175486190E+03  0.17778078309E+03 0.  0.
        -24    2    3    3    0    0  0.23051516759E+02  0.19140600079E+02  0.26701527052E+03  0.27894356468E+03  0.74930785309E+02 0.  0.
          6    2    1    2  501    0 -0.23566054605E+03  0.50741305599E+01  0.19636582764E+03  0.35220514193E+03  0.17299504032E+03 0.  0.
         24    2    5    5    0    0 -0.18181866692E+03  0.38167695649E+02  0.20547322095E+03  0.28818040756E+03  0.79460066343E+02 0.  0.
          5    1    5    5  501    0 -0.53841879131E+02 -0.33093565089E+02 -0.91073933090E+01  0.64024734373E+02  0.47000000000E+01 0. -1.
        -11    1    6    6    0    0 -0.98120789226E+02  0.57442289713E+02  0.94437007376E+02  0.14780275467E+03  0.00000000000E+00 0.  1.
         12    1    6    6    0    0 -0.83697877697E+02 -0.19274594064E+02  0.11103621357E+03  0.14037765289E+03  0.00000000000E+00 0. -1.
         -5    1    3    3    0  503  0.21260902929E+03 -0.24214730639E+02  0.61672647687E+03  0.65281129723E+03  0.47000000000E+01 0.  1.
         11    1    4    4    0    0  0.49611731947E+02  0.17960048302E+02  0.15205600629E+03  0.16095004296E+03  0.00000000000E+00 0. -1.
        -12    1    4    4    0    0 -0.26560215188E+02  0.11805517773E+01  0.11495926423E+03  0.11799352171E+03  0.00000000000E+00 0.  1.
<mgrwt>
<rscale>  2 0.29452487E+03</rscale>
<asrwt>0</asrwt>
<pdfrwt beam="1">  1       21 0.18185134E+00 0.29524167E+03</pdfrwt>
<pdfrwt beam="2">  1       21 0.15680957E-01 0.29524167E+03</pdfrwt>
<totfact> 0.59447749E+03</totfact>
</mgrwt>
</event>
<event>
12    1  0.1026879E-001  0.1863018E+03  0.7546771E-02  0.1162862E+00
         21   -1    0    0  503  502  0.00000000000E+00  0.00000000000E+00  0.93569258376E+02  0.93569258376E+02  0.00000000000E+00 0.  1.
         21   -1    0    0  501  503 -0.00000000000E+00 -0.00000000000E+00 -0.81611331172E+03  0.81611331172E+03  0.00000000000E+00 0. -1.
          6    2    1    2  501    0 -0.41768181455E+02  0.53594803100E+02 -0.70233751593E+03  0.72662670083E+03  0.17346870662E+03 0.  0.
         24    2    3    3    0    0 -0.76516152120E+02 -0.70846087018E+01 -0.50283822833E+03  0.51517583601E+03  0.81577845768E+02 0.  0.
         -6    2    1    2    0  502  0.41768181455E+02 -0.53594803100E+02 -0.20206537412E+02  0.18305586926E+03  0.16877251914E+03 0.  0.
        -24    2    5    5    0    0 -0.18310186321E+02  0.88255948924E+00 -0.49524305883E+02  0.96691438751E+02  0.80997133407E+02 0.  0.
          5    1    3    3  501    0  0.34747970665E+02  0.60679411801E+02 -0.19949928760E+03  0.21145086482E+03  0.47000000000E+01 0. -1.
        -13    1    4    4    0    0 -0.74390968843E+02  0.45820440225E+01 -0.22377351172E+03  0.23585927143E+03  0.00000000000E+00 0.  1.
         14    1    4    4    0    0 -0.21251832771E+01 -0.11666652724E+02 -0.27906471661E+03  0.27931656458E+03  0.00000000000E+00 0. -1.
         -5    1    5    5    0  502  0.60078367776E+02 -0.54477362589E+02  0.29317768471E+02  0.86364430511E+02  0.47000000000E+01 0.  1.
         13    1    6    6    0    0 -0.22302763412E+02 -0.12366762525E+02  0.15745310204E+02  0.29971067125E+02  0.00000000000E+00 0. -1.
        -14    1    6    6    0    0  0.39925770908E+01  0.13249322014E+02 -0.65269616088E+02  0.66720371626E+02  0.00000000000E+00 0.  1.
<mgrwt>
<rscale>  2 0.18520096E+03</rscale>
<asrwt>0</asrwt>
<pdfrwt beam="1">  1       21 0.14395271E-01 0.18630184E+03</pdfrwt>
<pdfrwt beam="2">  1       21 0.12555589E+00 0.18630184E+03</pdfrwt>
<totfact> 0.20024648E+04</totfact>
</mgrwt>
</event>
<event>
12    1  0.1026879E-001  0.2179846E+03  0.7546771E-02  0.1135532E+00
         21   -1    0    0  501  502  0.00000000000E+00  0.00000000000E+00  0.12733182573E+03  0.12733182573E+03  0.00000000000E+00 0.  1.
         21   -1    0    0  502  503 -0.00000000000E+00 -0.00000000000E+00 -0.41380910636E+03  0.41380910636E+03  0.00000000000E+00 0.  1.
         -6    2    1    2    0  503  0.12532344200E+03 -0.42965975644E+02 -0.22953064884E+03  0.31654639382E+03  0.17310476742E+03 0.  0.
        -24    2    3    3    0    0  0.33667724659E+02 -0.79728658901E+01 -0.27443511658E+02  0.91854183745E+02  0.80541681539E+02 0.  0.
          6    2    1    2  501    0 -0.12532344200E+03  0.42965975644E+02 -0.56946631789E+02  0.22459453828E+03  0.17218521300E+03 0.  0.
         24    2    5    5    0    0 -0.73969601164E+02 -0.27026730413E+02  0.13445430639E+02  0.11273154921E+03  0.79534121797E+02 0.  0.
          5    1    5    5  501    0 -0.51353840834E+02  0.69992706056E+02 -0.70392062428E+02  0.11186298906E+03  0.47000000000E+01 0. -1.
        -13    1    6    6    0    0 -0.26589823214E+02 -0.37873361072E+01  0.44149327837E+02  0.51677129969E+02  0.00000000000E+00 0.  1.
         14    1    6    6    0    0 -0.47379777950E+02 -0.23239394305E+02 -0.30703897198E+02  0.61054419245E+02  0.00000000000E+00 0. -1.
         -5    1    3    3    0  503  0.91655717339E+02 -0.34993109754E+02 -0.20208713719E+03  0.22469221007E+03  0.47000000000E+01 0.  1.
         13    1    4    4    0    0 -0.34722347527E+01 -0.39057440669E+02 -0.13138309070E+02  0.41354023396E+02  0.00000000000E+00 0. -1.
        -14    1    4    4    0    0  0.37139959411E+02  0.31084574779E+02 -0.14305202587E+02  0.50500160349E+02  0.00000000000E+00 0.  1.
<mgrwt>
<rscale>  2 0.21780203E+03</rscale>
<asrwt>0</asrwt>
<pdfrwt beam="1">  1       21 0.19589512E-01 0.21798463E+03</pdfrwt>
<pdfrwt beam="2">  1       21 0.63662939E-01 0.21798463E+03</pdfrwt>
<totfact> 0.54060940E+04</totfact>
</mgrwt>
</event>
<event>
12    1  0.1026879E-001  0.4063024E+03  0.7546771E-02  0.1041661E+00
         21   -1    0    0  501  502  0.00000000000E+00  0.00000000000E+00  0.88180425542E+03  0.88180425542E+03  0.00000000000E+00 0. -1.
         21   -1    0    0  502  503 -0.00000000000E+00 -0.00000000000E+00 -0.21725361977E+03  0.21725361977E+03  0.00000000000E+00 0.  1.
         -6    2    1    2    0  503 -0.20169339407E+03 -0.30728327818E+03  0.12732453795E+03  0.42578533696E+03  0.17314264912E+03 0.  0.
        -24    2    3    3    0    0 -0.14804751231E+03 -0.28190335208E+03  0.15121141753E+03  0.36163945405E+03  0.80812351269E+02 0.  0.
          6    2    1    2  501    0  0.20169339407E+03  0.30728327818E+03  0.53722609770E+03  0.67327253824E+03  0.17199067543E+03 0.  0.
         24    2    5    5    0    0  0.18837954632E+03  0.32136943157E+03  0.52835792620E+03  0.65144565745E+03  0.80337920106E+02 0.  0.
          5    1    5    5  501    0  0.13313847747E+02 -0.14086153393E+02  0.88681714995E+01  0.21826880789E+02  0.47000000000E+01 0. -1.
        -13    1    6    6    0    0  0.12665237598E+03  0.25963556207E+03  0.35795622389E+03  0.45998272538E+03  0.00000000000E+00 0.  1.
         14    1    6    6    0    0  0.61727170346E+02  0.61733869496E+02  0.17040170232E+03  0.19146293206E+03  0.00000000000E+00 0. -1.
         -5    1    3    3    0  503 -0.53645881759E+02 -0.25379926092E+02 -0.23886879575E+02  0.64145882907E+02  0.47000000000E+01 0.  1.
         13    1    4    4    0    0 -0.19542428244E+02 -0.94930904473E+02  0.74154604658E+02  0.12203560348E+03  0.00000000000E+00 0. -1.
        -14    1    4    4    0    0 -0.12850508407E+03 -0.18697244761E+03  0.77056812868E+02  0.23960385056E+03  0.00000000000E+00 0.  1.
<mgrwt>
<rscale>  2 0.40617992E+03</rscale>
<asrwt>0</asrwt>
<pdfrwt beam="1">  1       21 0.13566219E+00 0.40630237E+03</pdfrwt>
<pdfrwt beam="2">  1       21 0.33423634E-01 0.40630237E+03</pdfrwt>
<totfact> 0.29416984E+03</totfact>
</mgrwt>
</event>
<event>
12    1  0.1026879E-001  0.2267557E+03  0.7546771E-02  0.1129690E+00
         21   -1    0    0  503  502  0.00000000000E+00  0.00000000000E+00  0.10181179571E+04  0.10181179571E+04  0.00000000000E+00 0.  1.
         21   -1    0    0  501  503 -0.00000000000E+00 -0.00000000000E+00 -0.52768835663E+02  0.52768835663E+02  0.00000000000E+00 0. -1.
          6    2    1    2  501    0  0.13708247396E+03  0.35725030748E+02  0.61825875054E+03  0.65853020428E+03  0.17706005999E+03 0.  0.
         24    2    3    3    0    0  0.15728413113E+03  0.27965234496E+02  0.38530032710E+03  0.42452157529E+03  0.79005528799E+02 0.  0.
         -6    2    1    2    0  502 -0.13708247396E+03 -0.35725030748E+02  0.34709037088E+03  0.41235658847E+03  0.17175083115E+03 0.  0.
        -24    2    5    5    0    0 -0.10703450175E+03 -0.45203607005E+02  0.35283172508E+03  0.37998720185E+03  0.80001854309E+02 0.  0.
          5    1    3    3  501    0 -0.20201657162E+02  0.77597962521E+01  0.23295842345E+03  0.23400862900E+03  0.47000000000E+01 0. -1.
        -13    1    4    4    0    0  0.25264553608E+02  0.22713022584E+02  0.15799451194E+03  0.16160583179E+03  0.00000000000E+00 0.  1.
         14    1    4    4    0    0  0.13201957752E+03  0.52522119115E+01  0.22730581515E+03  0.26291574350E+03  0.00000000000E+00 0. -1.
         -5    1    5    5    0  502 -0.30047972210E+02  0.94785762579E+01 -0.57413542005E+01  0.32369386616E+02  0.47000000000E+01 0.  1.
         13    1    6    6    0    0 -0.10350145062E+03 -0.35820840370E+02  0.21037249385E+03  0.23717560805E+03  0.00000000000E+00 0. -1.
        -14    1    6    6    0    0 -0.35330511337E+01 -0.93827666351E+01  0.14245923124E+03  0.14281159380E+03  0.00000000000E+00 0.  1.
<mgrwt>
<rscale>  2 0.22571836E+03</rscale>
<asrwt>0</asrwt>
<pdfrwt beam="1">  1       21 0.15663352E+00 0.22675570E+03</pdfrwt>
<pdfrwt beam="2">  1       21 0.81182832E-02 0.22675570E+03</pdfrwt>
<totfact> 0.30534569E+04</totfact>
</mgrwt>
</event>
<event>
12    1  0.1026879E-001  0.2034129E+03  0.7546771E-02  0.1147060E+00
         21   -1    0    0  501  502  0.00000000000E+00  0.00000000000E+00  0.29377081387E+03  0.29377081387E+03  0.00000000000E+00 0.  1.
         21   -1    0    0  502  503 -0.00000000000E+00 -0.00000000000E+00 -0.21652009382E+03  0.21652009382E+03  0.00000000000E+00 0.  1.
         -6    2    1    2    0  503 -0.87171456033E+02  0.56578097708E+02 -0.11282527036E+03  0.23189245086E+03  0.17390981355E+03 0.  0.
        -24    2    3    3    0    0  0.22364111345E+02  0.38510453550E+02 -0.53659180308E+02  0.10600680236E+03  0.79843133748E+02 0.  0.
          6    2    1    2  501    0  0.87171456033E+02 -0.56578097708E+02  0.19007599041E+03  0.27839845683E+03  0.17486244522E+03 0.  0.
         24    2    5    5    0    0  0.98171292640E+02  0.13634752407E+02  0.90116698626E+02  0.15565974761E+03  0.79280694266E+02 0.  0.
          5    1    5    5  501    0 -0.10999836607E+02 -0.70212850115E+02  0.99959291783E+02  0.12273870922E+03  0.47000000000E+01 0. -1.
        -11    1    6    6    0    0  0.72346092997E+02 -0.93981366178E+01  0.95983519534E+02  0.12056167785E+03  0.00000000000E+00 0.  1.
         12    1    6    6    0    0  0.25825199643E+02  0.23032889025E+02 -0.58668209081E+01  0.35098069762E+02  0.00000000000E+00 0. -1.
         -5    1    3    3    0  503 -0.10953556738E+03  0.18067644158E+02 -0.59166090055E+02  0.12588564850E+03  0.47000000000E+01 0.  1.
         11    1    4    4    0    0  0.35361920203E+02  0.21781139146E+02  0.66719213459E+01  0.42064212311E+02  0.00000000000E+00 0. -1.
        -12    1    4    4    0    0 -0.12997808858E+02  0.16729314404E+02 -0.60331101653E+02  0.63942590050E+02  0.00000000000E+00 0.  1.
<mgrwt>
<rscale>  2 0.20320803E+03</rscale>
<asrwt>0</asrwt>
<pdfrwt beam="1">  1       21 0.45195510E-01 0.20341293E+03</pdfrwt>
<pdfrwt beam="2">  1       21 0.33310784E-01 0.20341293E+03</pdfrwt>
<totfact> 0.40536080E+04</totfact>
</mgrwt>
</event>
<event>
12    1  0.1026879E-001  0.1734190E+03  0.7546771E-02  0.1174581E+00
         21   -1    0    0  501  502  0.00000000000E+00  0.00000000000E+00  0.28718534468E+03  0.28718534468E+03  0.00000000000E+00 0.  1.
         21   -1    0    0  502  503 -0.00000000000E+00 -0.00000000000E+00 -0.10523913280E+03  0.10523913280E+03  0.00000000000E+00 0.  1.
         -6    2    1    2    0  503  0.16606251630E+02  0.10738233688E+02  0.71022178844E+02  0.18739879688E+03  0.17228778810E+03 0.  0.
        -24    2    3    3    0    0 -0.42902502010E+02  0.47250811411E+02  0.51246856775E+02  0.11468281889E+03  0.80328355903E+02 0.  0.
          6    2    1    2  501    0 -0.16606251630E+02 -0.10738233688E+02  0.11092403303E+03  0.20502568061E+03  0.17129013792E+03 0.  0.
         24    2    5    5    0    0 -0.49478453872E+02 -0.25340873544E+02  0.13087250591E+03  0.16362700501E+03  0.80968553740E+02 0.  0.
          5    1    5    5  501    0  0.32872202241E+02  0.14602639856E+02 -0.19948472880E+02  0.41398675597E+02  0.47000000000E+01 0. -1.
        -11    1    6    6    0    0 -0.33997182252E+01  0.25999947757E+02  0.55901967074E+02  0.61746135831E+02  0.00000000000E+00 0.  1.
         12    1    6    6    0    0 -0.46078735646E+02 -0.51340821301E+02  0.74970538841E+02  0.10188086918E+03  0.00000000000E+00 0. -1.
         -5    1    3    3    0  503  0.59508753640E+02 -0.36512577723E+02  0.19775322069E+02  0.72715977987E+02  0.47000000000E+01 0.  1.
         11    1    4    4    0    0  0.67570740707E+01 -0.16190532126E+02  0.23805190413E+02  0.29571582155E+02  0.00000000000E+00 0. -1.
        -12    1    4    4    0    0 -0.49659576080E+02  0.63441343537E+02  0.27441666362E+02  0.85111236738E+02  0.00000000000E+00 0.  1.
<mgrwt>
<rscale>  2 0.17317072E+03</rscale>
<asrwt>0</asrwt>
<pdfrwt beam="1">  1       21 0.44182360E-01 0.17341903E+03</pdfrwt>
<pdfrwt beam="2">  1       21 0.16190636E-01 0.17341903E+03</pdfrwt>
<totfact> 0.16888900E+05</totfact>
</mgrwt>
</event>
<event>
12    1  0.1026879E-001  0.1893575E+03  0.7546771E-02  0.1159324E+00
         21   -1    0    0  503  502  0.00000000000E+00  0.00000000000E+00  0.54077342201E+03  0.54077342201E+03  0.00000000000E+00 0.  1.
         21   -1    0    0  501  503 -0.00000000000E+00 -0.00000000000E+00 -0.11898921374E+03  0.11898921374E+03  0.00000000000E+00 0.  1.
          6    2    1    2  501    0  0.72084062008E+02 -0.28408695028E+02 -0.98971047966E+01  0.18837636988E+03  0.17141918825E+03 0.  0.
         24    2    3    3    0    0 -0.70024333642E+01  0.22526218793E+02  0.25525605610E+02  0.87748850742E+02  0.80571953300E+02 0.  0.
         -6    2    1    2    0  502 -0.72084062008E+02  0.28408695028E+02  0.43168131307E+03  0.47138626587E+03  0.17278046662E+03 0.  0.
        -24    2    5    5    0    0 -0.59524827490E+02  0.65181914353E+02  0.40883710046E+03  0.42606571776E+03  0.81193189909E+02 0.  0.
          5    1    3    3  501    0  0.79086495373E+02 -0.50934913821E+02 -0.35422710407E+02  0.10062751914E+03  0.47000000000E+01 0. -1.
        -13    1    4    4    0    0 -0.39144276894E+02  0.31388056710E+02  0.10920927903E+02  0.51349305583E+02  0.00000000000E+00 0.  1.
         14    1    4    4    0    0  0.32141843530E+02 -0.88618379176E+01  0.14604677707E+02  0.36399545158E+02  0.00000000000E+00 0. -1.
         -5    1    5    5    0  502 -0.12559234518E+02 -0.36773219325E+02  0.22844212607E+02  0.45320548108E+02  0.47000000000E+01 0.  1.
         13    1    6    6    0    0 -0.16131981123E+02  0.43283030748E+02  0.70693407533E+02  0.84446547793E+02  0.00000000000E+00 0. -1.
        -14    1    6    6    0    0 -0.43392846368E+02  0.21898883606E+02  0.33814369293E+03  0.34161916997E+03  0.00000000000E+00 0.  1.
<mgrwt>
<rscale>  2 0.18904639E+03</rscale>
<asrwt>0</asrwt>
<pdfrwt beam="1">  1       21 0.83195909E-01 0.18935748E+03</pdfrwt>
<pdfrwt beam="2">  1       21 0.18306033E-01 0.18935748E+03</pdfrwt>
<totfact> 0.34305900E+04</totfact>
</mgrwt>
</event>
<event>
12    1  0.1026879E-001  0.2002881E+03  0.7546771E-02  0.1149531E+00
         21   -1    0    0  501  502  0.00000000000E+00  0.00000000000E+00  0.13309540823E+03  0.13309540823E+03  0.00000000000E+00 0.  1.
         21   -1    0    0  502  503 -0.00000000000E+00 -0.00000000000E+00 -0.32476939489E+03  0.32476939489E+03  0.00000000000E+00 0.  1.
         -6    2    1    2    0  503  0.45145250720E+01 -0.10160006631E+03 -0.15753321141E+03  0.25468777680E+03  0.17235485645E+03 0.  0.
        -24    2    3    3    0    0  0.39706023454E+02 -0.11325647443E+02 -0.32140338771E+02  0.96152686775E+02  0.80669072197E+02 0.  0.
          6    2    1    2  501    0 -0.45145250720E+01  0.10160006631E+03 -0.34140775246E+02  0.20317702632E+03  0.17254668087E+03 0.  0.
         24    2    5    5    0    0  0.43561459024E+02  0.79252805106E+02 -0.71265924686E+02  0.13828429135E+03  0.76583976031E+02 0.  0.
          5    1    5    5  501    0 -0.48075984096E+02  0.22347261208E+02  0.37125149439E+02  0.64892734965E+02  0.47000000000E+01 0. -1.
        -11    1    6    6    0    0  0.53988568524E+02  0.29777639428E+02 -0.16666130888E+02  0.63868875518E+02  0.00000000000E+00 0.  1.
         12    1    6    6    0    0 -0.10427109500E+02  0.49475165678E+02 -0.54599793797E+02  0.74415415836E+02  0.00000000000E+00 0. -1.
         -5    1    3    3    0  503 -0.35191498382E+02 -0.90274418871E+02 -0.12539287264E+03  0.15853509003E+03  0.47000000000E+01 0.  1.
         13    1    4    4    0    0 -0.21250819557E+02  0.12504575811E+02 -0.13451072605E+02  0.28087240916E+02  0.00000000000E+00 0. -1.
        -14    1    4    4    0    0  0.60956843011E+02 -0.23830223253E+02 -0.18689266166E+02  0.68065445859E+02  0.00000000000E+00 0.  1.
<mgrwt>
<rscale>  2 0.20024675E+03</rscale>
<asrwt>0</asrwt>
<pdfrwt beam="1">  1       21 0.20476217E-01 0.20028807E+03</pdfrwt>
<pdfrwt beam="2">  1       21 0.49964522E-01 0.20028807E+03</pdfrwt>
<totfact> 0.84020631E+04</totfact>
</mgrwt>
</event>
<event>
12    1  0.1026879E-001  0.2224884E+03  0.7546771E-02  0.1132086E+00
         21   -1    0    0  503  502  0.00000000000E+00  0.00000000000E+00  0.91960030304E+03  0.91960030304E+03  0.00000000000E+00 0. -1.
         21   -1    0    0  501  503 -0.00000000000E+00 -0.00000000000E+00 -0.56733028757E+02  0.56733028757E+02  0.00000000000E+00 0. -1.
          6    2    1    2  501    0  0.95631922872E+02  0.10176495843E+03  0.31964471604E+03  0.38931388184E+03  0.17289008841E+03 0.  0.
         24    2    3    3    0    0  0.11154023421E+00  0.42024054235E+02  0.69879998998E+02  0.11527442664E+03  0.81479725090E+02 0.  0.
         -6    2    1    2    0  502 -0.95631922872E+02 -0.10176495843E+03  0.54322255825E+03  0.58701944995E+03  0.17320368183E+03 0.  0.
        -24    2    5    5    0    0 -0.78989307725E+01 -0.85452003029E+02  0.19774963861E+03  0.23017660133E+03  0.80696408205E+02 0.  0.
          5    1    3    3  501    0  0.95520382638E+02  0.59740904192E+02  0.24976471704E+03  0.27403945521E+03  0.47000000000E+01 0. -1.
        -13    1    4    4    0    0  0.13252769511E+02 -0.22088355038E+02  0.14615419454E+02  0.29616580049E+02  0.00000000000E+00 0.  1.
         14    1    4    4    0    0 -0.13141229276E+02  0.64112409273E+02  0.55264579544E+02  0.85657846587E+02  0.00000000000E+00 0. -1.
         -5    1    5    5    0  502 -0.87732992100E+02 -0.16312955399E+02  0.34547291963E+03  0.35684284863E+03  0.47000000000E+01 0.  1.
         11    1    6    6    0    0 -0.62973574363E+01 -0.49274850829E+02  0.18536338565E+03  0.19190427920E+03  0.00000000000E+00 0. -1.
        -12    1    6    6    0    0 -0.16015733362E+01 -0.36177152200E+02  0.12386252961E+02  0.38272322125E+02  0.00000000000E+00 0.  1.
<mgrwt>
<rscale>  2 0.22242736E+03</rscale>
<asrwt>0</asrwt>
<pdfrwt beam="1">  1       21 0.14147696E+00 0.22248840E+03</pdfrwt>
<pdfrwt beam="2">  1       21 0.87281590E-02 0.22248840E+03</pdfrwt>
<totfact> 0.35283450E+04</totfact>
</mgrwt>
</event>
<event>
12    1  0.1026879E-001  0.1847874E+03  0.7546771E-02  0.1163972E+00
         21   -1    0    0  501  502  0.00000000000E+00  0.00000000000E+00  0.28370045424E+02  0.28370045424E+02  0.00000000000E+00 0.  1.
         21   -1    0    0  502  503 -0.00000000000E+00 -0.00000000000E+00 -0.12994900901E+04  0.12994900901E+04  0.00000000000E+00 0.  1.
         -6    2    1    2    0  503 -0.41419660116E+02 -0.29908561315E+02 -0.44224571820E+03  0.47929914968E+03  0.17758459769E+03 0.  0.
        -24    2    3    3    0    0  0.44443632205E+02 -0.19840360620E+02 -0.26828935565E+03  0.28498811112E+03  0.82886481252E+02 0.  0.
          6    2    1    2  501    0  0.41419660116E+02  0.29908561315E+02 -0.82887432649E+03  0.84856098586E+03  0.17439319746E+03 0.  0.
         24    2    5    5    0    0 -0.25379296436E+02 -0.32066020505E+02 -0.43350354007E+03  0.44279861927E+03  0.80454705336E+02 0.  0.
          5    1    5    5  501    0  0.66798956551E+02  0.61974581820E+02 -0.39537078642E+03  0.40576236659E+03  0.47000000000E+01 0. -1.
        -13    1    6    6    0    0  0.26002605240E+02  0.53813152661E+00 -0.19165656227E+03  0.19341319223E+03  0.00000000000E+00 0.  1.
         14    1    6    6    0    0 -0.51381901676E+02 -0.32604152031E+02 -0.24184697780E+03  0.24938542704E+03  0.00000000000E+00 0. -1.
         -5    1    3    3    0  503 -0.85863292321E+02 -0.10068200695E+02 -0.17395636255E+03  0.19431103856E+03  0.47000000000E+01 0.  1.
         13    1    4    4    0    0  0.14178713490E+00 -0.45083993284E+02 -0.12148075819E+03  0.12957685428E+03  0.00000000000E+00 0. -1.
        -14    1    4    4    0    0  0.44301845070E+02  0.25243632664E+02 -0.14680859746E+03  0.15541125685E+03  0.00000000000E+00 0.  1.
<mgrwt>
<rscale>  2 0.18401642E+03</rscale>
<asrwt>0</asrwt>
<pdfrwt beam="1">  1       21 0.43646214E-02 0.18478744E+03</pdfrwt>
<pdfrwt beam="2">  1       21 0.19992160E+00 0.18478744E+03</pdfrwt>
<totfact> 0.45731759E+04</totfact>
</mgrwt>
</event>
<event>
12    1  0.1026879E-001  0.2723387E+03  0.7546771E-02  0.1100006E+00
         21   -1    0    0  503  502  0.00000000000E+00  0.00000000000E+00  0.30822083417E+03  0.30822083417E+03  0.00000000000E+00 0. -1.
         21   -1    0    0  501  503 -0.00000000000E+00 -0.00000000000E+00 -0.28716190471E+03  0.28716190471E+03  0.00000000000E+00 0.  1.
          6    2    1    2  501    0  0.63709819692E+02 -0.20051473323E+03 -0.10976461920E+03  0.29325169932E+03  0.17228809639E+03 0.  0.
         24    2    3    3    0    0  0.34012959300E+01 -0.15862378417E+03 -0.12430421164E+03  0.21824863672E+03  0.83712942119E+02 0.  0.
         -6    2    1    2    0  502 -0.63709819692E+02  0.20051473323E+03  0.13082354867E+03  0.30213103956E+03  0.17292560484E+03 0.  0.
        -24    2    5    5    0    0 -0.82786802631E+02  0.12872038950E+03  0.14413104144E+03  0.22651663330E+03  0.84341180287E+02 0.  0.
          5    1    3    3  501    0  0.60308523762E+02 -0.41890949060E+02  0.14539592442E+02  0.75003062603E+02  0.47000000000E+01 0. -1.
        -13    1    4    4    0    0  0.36417441357E+02 -0.11443639694E+03 -0.62402594581E+02  0.13533662767E+03  0.00000000000E+00 0.  1.
         14    1    4    4    0    0 -0.33016145427E+02 -0.44187387238E+02 -0.61901617062E+02  0.82912009050E+02  0.00000000000E+00 0. -1.
         -5    1    5    5    0  502  0.19076982939E+02  0.71794343734E+02 -0.13307492770E+02  0.75614406260E+02  0.47000000000E+01 0.  1.
         11    1    6    6    0    0 -0.93629635008E+01  0.91106247015E+02  0.85633206210E+02  0.12538364860E+03  0.00000000000E+00 0. -1.
        -12    1    6    6    0    0 -0.73423839130E+02  0.37614142484E+02  0.58497835226E+02  0.10113298470E+03  0.00000000000E+00 0.  1.
<mgrwt>
<rscale>  2 0.27223755E+03</rscale>
<asrwt>0</asrwt>
<pdfrwt beam="1">  1       21 0.47418590E-01 0.27233869E+03</pdfrwt>
<pdfrwt beam="2">  1       21 0.44178755E-01 0.27233869E+03</pdfrwt>
<totfact> 0.20084793E+04</totfact>
</mgrwt>
</event>
<event>
12    1  0.1026879E-001  0.1965488E+03  0.7546771E-02  0.1153281E+00
         21   -1    0    0  503  502  0.00000000000E+00  0.00000000000E+00  0.24010592246E+03  0.24010592246E+03  0.00000000000E+00 0. -1.
         21   -1    0    0  501  503 -0.00000000000E+00 -0.00000000000E+00 -0.47209158198E+03  0.47209158198E+03  0.00000000000E+00 0. -1.
          6    2    1    2  501    0 -0.83290023897E+02 -0.12187730116E+02 -0.40642138905E+03  0.45145293973E+03  0.17761093003E+03 0.  0.
         24    2    3    3    0    0 -0.61166556342E+02  0.54631656723E+02 -0.16911422333E+03  0.20388262815E+03  0.79009746220E+02 0.  0.
         -6    2    1    2    0  502  0.83290023897E+02  0.12187730116E+02  0.17443572954E+03  0.26074456471E+03  0.17456842623E+03 0.  0.
        -24    2    5    5    0    0  0.48087222841E+02  0.71377211496E+02  0.14136188877E+03  0.18420306713E+03  0.80873351742E+02 0.  0.
          5    1    3    3  501    0 -0.22123467555E+02 -0.66819386839E+02 -0.23730716572E+03  0.24757031158E+03  0.47000000000E+01 0. -1.
        -11    1    4    4    0    0  0.12548560660E+02  0.31066962558E+02 -0.31433870158E+02  0.45942471966E+02  0.00000000000E+00 0.  1.
         12    1    4    4    0    0 -0.73715117002E+02  0.23564694165E+02 -0.13768035318E+03  0.15794015619E+03  0.00000000000E+00 0. -1.
         -5    1    5    5    0  502  0.35202801056E+02 -0.59189481379E+02  0.33073840775E+02  0.76541497580E+02  0.47000000000E+01 0. -1.
         13    1    6    6    0    0 -0.18713234092E+02  0.31914897849E+02  0.68063862353E+02  0.77468930504E+02  0.00000000000E+00 0. -1.
        -14    1    6    6    0    0  0.66800456933E+02  0.39462313646E+02  0.73298026414E+02  0.10673413662E+03  0.00000000000E+00 0.  1.
<mgrwt>
<rscale>  2 0.19585888E+03</rscale>
<asrwt>0</asrwt>
<pdfrwt beam="1">  1       21 0.36939373E-01 0.19654875E+03</pdfrwt>
<pdfrwt beam="2">  1       21 0.72629474E-01 0.19654875E+03</pdfrwt>
<totfact> 0.12039184E+04</totfact>
</mgrwt>
</event>
<event>
12    1  0.1026879E-001  0.1761064E+03  0.7546771E-02  0.1172094E+00
         21   -1    0    0  501  502  0.00000000000E+00  0.00000000000E+00  0.21809183510E+03  0.21809183510E+03  0.00000000000E+00 0.  1.
         21   -1    0    0  502  503 -0.00000000000E+00 -0.00000000000E+00 -0.27960041033E+03  0.27960041033E+03  0.00000000000E+00 0.  1.
         -6    2    1    2    0  503 -0.24086600976E+02  0.10779058652E+02 -0.20623212595E+03  0.27119207118E+03  0.17411805548E+03 0.  0.
        -24    2    3    3    0    0  0.34930520440E+02 -0.70368919337E+01 -0.53183822657E+02  0.10612753272E+03  0.84645585255E+02 0.  0.
          6    2    1    2  501    0  0.24086600976E+02 -0.10779058652E+02  0.14472355071E+03  0.22650017426E+03  0.17222389600E+03 0.  0.
         24    2    5    5    0    0 -0.18625997721E+02 -0.42628766075E+02  0.14554092969E+03  0.17300692180E+03  0.81148587704E+02 0.  0.
          5    1    5    5  501    0  0.42712598697E+02  0.31849707423E+02 -0.81737897474E+00  0.53493252460E+02  0.47000000000E+01 0. -1.
        -13    1    6    6    0    0  0.14242624214E+02 -0.56096027565E+02  0.94744232592E+02  0.11102290873E+03  0.00000000000E+00 0.  1.
         14    1    6    6    0    0 -0.32868621935E+02  0.13467261490E+02  0.50796697097E+02  0.61984013067E+02  0.00000000000E+00 0. -1.
         -5    1    3    3    0  503 -0.59017121416E+02  0.17815950586E+02 -0.15304830329E+03  0.16506453845E+03  0.47000000000E+01 0.  1.
         13    1    4    4    0    0  0.12700284124E+02  0.37313254754E+02 -0.10774910970E+02  0.40861655663E+02  0.00000000000E+00 0. -1.
        -14    1    4    4    0    0  0.22230236317E+02 -0.44350146688E+02 -0.42408911687E+02  0.65265877060E+02  0.00000000000E+00 0.  1.
<mgrwt>
<rscale>  2 0.17563635E+03</rscale>
<asrwt>0</asrwt>
<pdfrwt beam="1">  1       21 0.33552590E-01 0.17610636E+03</pdfrwt>
<pdfrwt beam="2">  1       21 0.43015448E-01 0.17610636E+03</pdfrwt>
<totfact> 0.44825139E+04</totfact>
</mgrwt>
</event>
<event>
12    1  0.1026879E-001  0.1986182E+03  0.7546771E-02  0.1151141E+00
         21   -1    0    0  501  502  0.00000000000E+00  0.00000000000E+00  0.17652218024E+03  0.17652218024E+03  0.00000000000E+00 0. -1.
         21   -1    0    0  502  503 -0.00000000000E+00 -0.00000000000E+00 -0.24281339534E+03  0.24281339534E+03  0.00000000000E+00 0. -1.
         -6    2    1    2    0  503  0.74373500447E+02  0.63037544353E+02 -0.94060185039E+02  0.21878553813E+03  0.17179826460E+03 0.  0.
        -24    2    3    3    0    0  0.10111831897E+03  0.51573357229E+01 -0.89568460062E+02  0.15469443530E+03  0.75208687875E+02 0.  0.
          6    2    1    2  501    0 -0.74373500447E+02 -0.63037544353E+02  0.27768969937E+02  0.20055003746E+03  0.17304349819E+03 0.  0.
         24    2    5    5    0    0 -0.91483229013E+02  0.12340135285E+02  0.12390233213E+02  0.12159984466E+03  0.78176366076E+02 0.  0.
          5    1    5    5  501    0  0.17109728566E+02 -0.75377679638E+02  0.15378736725E+02  0.78950192795E+02  0.47000000000E+01 0. -1.
        -11    1    6    6    0    0  0.48263329853E+01  0.18819969375E+02  0.15754736123E+02  0.25013925076E+02  0.00000000000E+00 0.  1.
         12    1    6    6    0    0 -0.96309561998E+02 -0.64798340900E+01 -0.33645029107E+01  0.96585919585E+02  0.00000000000E+00 0. -1.
         -5    1    3    3    0  503 -0.26744818524E+02  0.57880208630E+02 -0.44917249771E+01  0.64091102832E+02  0.47000000000E+01 0.  1.
         11    1    4    4    0    0  0.73645998278E+02 -0.49261884300E+01 -0.16007908685E+02  0.75526508825E+02  0.00000000000E+00 0. -1.
        -12    1    4    4    0    0  0.27472320693E+02  0.10083524153E+02 -0.73560551377E+02  0.79167926475E+02  0.00000000000E+00 0.  1.
<mgrwt>
<rscale>  2 0.19834669E+03</rscale>
<asrwt>0</asrwt>
<pdfrwt beam="1">  1       21 0.27157259E-01 0.19861823E+03</pdfrwt>
<pdfrwt beam="2">  1       21 0.37355907E-01 0.19861823E+03</pdfrwt>
<totfact> 0.89100221E+04</totfact>
</mgrwt>
</event>
<event>
11    1  0.1026879E-001  0.3530894E+03  0.7546771E-02  0.1061468E+00
         21   -1    0    0  501  502  0.00000000000E+00  0.00000000000E+00  0.19383410636E+04  0.19383410636E+04  0.00000000000E+00 0. -1.
         21   -1    0    0  502  503 -0.00000000000E+00 -0.00000000000E+00 -0.65388255123E+02  0.65388255123E+02  0.00000000000E+00 0.  1.
         -6    2    1    2    0  503  0.23503204663E+02  0.30643991318E+03  0.79812014142E+03  0.87273585780E+03  0.17382260014E+03 0.  0.
          6    2    1    2  501    0 -0.23503204663E+02 -0.30643991318E+03  0.10748326671E+04  0.11309934609E+04  0.17153170400E+03 0.  0.
         24    2    4    4    0    0 -0.10242096173E+02 -0.78974233972E+02  0.23392945209E+03  0.25975480295E+03  0.80048353733E+02 0.  0.
          5    1    4    4  501    0 -0.13261108490E+02 -0.22746567921E+03  0.84090321499E+03  0.87123865800E+03  0.47000000000E+01 0. -1.
        -13    1    5    5    0    0 -0.32705557347E+01 -0.92367843830E+02  0.22213130415E+03  0.24059266696E+03  0.00000000000E+00 0.  1.
         14    1    5    5    0    0 -0.69715404383E+01  0.13393609858E+02  0.11798147936E+02  0.19162135993E+02  0.00000000000E+00 0. -1.
         -5    1    3    3    0  503  0.34508490443E+02  0.37883373528E+02  0.61918330302E+02  0.80510592656E+02  0.47000000000E+01 0.  1.
         13    1    3    3    0    0  0.30864580946E+02  0.20173230776E+02  0.14470360956E+03  0.14932754674E+03  0.00000000000E+00 0. -1.
        -14    1    3    3    0    0 -0.41869866726E+02  0.24838330888E+03  0.59149820157E+03  0.64289771840E+03  0.00000000000E+00 0.  1.
<mgrwt>
<rscale>  2 0.35280852E+03</rscale>
<asrwt>0</asrwt>
<pdfrwt beam="1">  1       21 0.29820627E+00 0.35308939E+03</pdfrwt>
<pdfrwt beam="2">  1       21 0.10059733E-01 0.35308939E+03</pdfrwt>
<totfact> 0.24332611E+03</totfact>
</mgrwt>
</event>
<event>
12    1  0.1026879E-001  0.2307705E+03  0.7546771E-02  0.1127394E+00
         21   -1    0    0  501  502  0.00000000000E+00  0.00000000000E+00  0.40449468301E+03  0.40449468301E+03  0.00000000000E+00 0.  1.
         21   -1    0    0  502  503 -0.00000000000E+00 -0.00000000000E+00 -0.27520099186E+03  0.27520099186E+03  0.00000000000E+00 0.  1.
         -6    2    1    2    0  503  0.13821625518E+03 -0.29472077845E+02 -0.18379447445E+03  0.29501769028E+03  0.18243544659E+03 0.  0.
        -24    2    3    3    0    0  0.26395348089E+02  0.32121152378E+02 -0.31194083308E+02  0.96003593673E+02  0.80716394456E+02 0.  0.
          6    2    1    2  501    0 -0.13821625518E+03  0.29472077845E+02  0.31308816560E+03  0.38467798458E+03  0.17314911440E+03 0.  0.
         24    2    5    5    0    0 -0.15914509342E+03  0.44072586492E+02  0.30827174704E+03  0.35828709580E+03  0.77901343744E+02 0.  0.
          5    1    5    5  501    0  0.20928838241E+02 -0.14600508647E+02  0.48164185575E+01  0.26390888780E+02  0.47000000000E+01 0. -1.
        -11    1    6    6    0    0 -0.79964720345E+02 -0.15502513600E+02  0.11280700531E+03  0.13914059391E+03  0.00000000000E+00 0.  1.
         12    1    6    6    0    0 -0.79180373077E+02  0.59575100091E+02  0.19546474173E+03  0.21914650189E+03  0.00000000000E+00 0. -1.
         -5    1    3    3    0  503  0.11182090709E+03 -0.61593230223E+02 -0.15260039114E+03  0.19901409661E+03  0.47000000000E+01 0.  1.
         13    1    4    4    0    0 -0.76669422347E+01 -0.51127421091E+01  0.21287277623E+02  0.23196342895E+02  0.00000000000E+00 0. -1.
        -14    1    4    4    0    0  0.34062290323E+02  0.37233894487E+02 -0.52481360931E+02  0.72807250778E+02  0.00000000000E+00 0.  1.
<mgrwt>
<rscale>  2 0.22893141E+03</rscale>
<asrwt>0</asrwt>
<pdfrwt beam="1">  1       21 0.62229951E-01 0.23077051E+03</pdfrwt>
<pdfrwt beam="2">  1       21 0.42338614E-01 0.23077051E+03</pdfrwt>
<totfact> 0.12554989E+04</totfact>
</mgrwt>
</event>
<event>
12    1  0.1026879E-001  0.1772053E+03  0.7546771E-02  0.1170557E+00
         21   -1    0    0  501  502  0.00000000000E+00  0.00000000000E+00  0.29544522042E+03  0.29544522042E+03  0.00000000000E+00 0.  1.
         21   -1    0    0  502  503 -0.00000000000E+00 -0.00000000000E+00 -0.14639691148E+03  0.14639691148E+03  0.00000000000E+00 0.  1.
         -6    2    1    2    0  503 -0.21278661602E+02  0.30527817045E+02 -0.41175810038E+02  0.18192622633E+03  0.17325407771E+03 0.  0.
        -24    2    3    3    0    0 -0.16154681536E+02  0.24062874432E+02 -0.94850139309E+02  0.12741866468E+03  0.79993571745E+02 0.  0.
          6    2    1    2  501    0  0.21278661602E+02 -0.30527817045E+02  0.19022411897E+03  0.25991590557E+03  0.17316562440E+03 0.  0.
         24    2    5    5    0    0  0.56129076743E+02 -0.12876183785E+02  0.46221848625E+02  0.11063470964E+03  0.82385134106E+02 0.  0.
          5    1    5    5  501    0 -0.34850415141E+02 -0.17651633260E+02  0.14400227035E+03  0.14928119593E+03  0.47000000000E+01 0. -1.
        -13    1    6    6    0    0  0.31593954609E+02  0.32973328364E+02  0.86453309975E+01  0.46477522517E+02  0.00000000000E+00 0.  1.
         14    1    6    6    0    0  0.24535122133E+02 -0.45849512148E+02  0.37576517627E+02  0.64157187122E+02  0.00000000000E+00 0. -1.
         -5    1    3    3    0  503 -0.51239800655E+01  0.64649426128E+01  0.53674329271E+02  0.54507561653E+02  0.47000000000E+01 0.  1.
         13    1    4    4    0    0  0.89562573052E+01  0.37766943789E+02 -0.90513566323E+02  0.98484832723E+02  0.00000000000E+00 0. -1.
        -14    1    4    4    0    0 -0.25110938842E+02 -0.13704069357E+02 -0.43365729860E+01  0.28933831957E+02  0.00000000000E+00 0.  1.
<mgrwt>
<rscale>  2 0.17718364E+03</rscale>
<asrwt>0</asrwt>
<pdfrwt beam="1">  1       21 0.45453111E-01 0.17720526E+03</pdfrwt>
<pdfrwt beam="2">  1       21 0.22522602E-01 0.17720526E+03</pdfrwt>
<totfact> 0.86254077E+04</totfact>
</mgrwt>
</event>
<event>
12    1  0.1026879E-001  0.2095106E+03  0.7546771E-02  0.1141978E+00
         21   -1    0    0  503  502  0.00000000000E+00  0.00000000000E+00  0.55991890657E+02  0.55991890657E+02  0.00000000000E+00 0. -1.
         21   -1    0    0  501  503 -0.00000000000E+00 -0.00000000000E+00 -0.86271281863E+03  0.86271281863E+03  0.00000000000E+00 0. -1.
          6    2    1    2  501    0  0.26110993629E+02  0.11535801397E+03 -0.54265028648E+03  0.58169066471E+03  0.17293189588E+03 0.  0.
         24    2    3    3    0    0 -0.28761359080E+02  0.44315682363E+02 -0.14387259477E+03  0.17290743929E+03  0.80041011726E+02 0.  0.
         -6    2    1    2    0  502 -0.26110993629E+02 -0.11535801397E+03 -0.26407064150E+03  0.33701404458E+03  0.17278861991E+03 0.  0.
        -24    2    5    5    0    0 -0.37059237829E+02 -0.11688987550E+03 -0.11319559197E+03  0.18566153810E+03  0.81365438510E+02 0.  0.
          5    1    3    3  501    0  0.54872352709E+02  0.71042331603E+02 -0.39877769171E+03  0.40878322541E+03  0.47000000000E+01 0. -1.
        -11    1    4    4    0    0  0.47549695242E+01 -0.14588383564E+02 -0.17374792696E+01  0.15441810270E+02  0.00000000000E+00 0.  1.
         12    1    4    4    0    0 -0.33516328604E+02  0.58904065928E+02 -0.14213511550E+03  0.15746562902E+03  0.00000000000E+00 0. -1.
         -5    1    5    5    0  502  0.10948244200E+02  0.15318615353E+01 -0.15087504952E+03  0.15135250648E+03  0.47000000000E+01 0.  1.
         11    1    6    6    0    0  0.53088249975E+01 -0.95501878451E+02 -0.95064517872E+02  0.13485568200E+03  0.00000000000E+00 0. -1.
        -12    1    6    6    0    0 -0.42368062827E+02 -0.21387997050E+02 -0.18131074103E+02  0.50805856096E+02  0.00000000000E+00 0.  1.
<mgrwt>
<rscale>  2 0.20948104E+03</rscale>
<asrwt>0</asrwt>
<pdfrwt beam="1">  1       21 0.86141372E-02 0.20951061E+03</pdfrwt>
<pdfrwt beam="2">  1       21 0.13272505E+00 0.20951061E+03</pdfrwt>
<totfact> 0.42856497E+04</totfact>
</mgrwt>
</event>
<event>
12    1  0.1026879E-001  0.2159145E+03  0.7546771E-02  0.1136975E+00
         21   -1    0    0  501  502  0.00000000000E+00  0.00000000000E+00  0.39643195185E+03  0.39643195185E+03  0.00000000000E+00 0. -1.
         21   -1    0    0  502  503 -0.00000000000E+00 -0.00000000000E+00 -0.49227205993E+03  0.49227205993E+03  0.00000000000E+00 0. -1.
         -6    2    1    2    0  503  0.11483771651E+03 -0.57965588266E+02 -0.43559541823E+03  0.48617120206E+03  0.17341095345E+03 0.  0.
        -24    2    3    3    0    0  0.87056946856E+02 -0.93452499249E+02 -0.40254315616E+03  0.43008524980E+03  0.81363676847E+02 0.  0.
          6    2    1    2  501    0 -0.11483771651E+03  0.57965588266E+02  0.33975531015E+03  0.40253280971E+03  0.17335305468E+03 0.  0.
         24    2    5    5    0    0 -0.26316599680E+02 -0.25338172180E+02  0.18670029130E+03  0.20702466813E+03  0.81655545167E+02 0.  0.
          5    1    5    5  501    0 -0.88521116832E+02  0.83303760447E+02  0.15305501885E+03  0.19550814158E+03  0.47000000000E+01 0. -1.
        -11    1    6    6    0    0 -0.25528127689E+02  0.98883279935E+01  0.16125451267E+03  0.16356186044E+03  0.00000000000E+00 0.  1.
         12    1    6    6    0    0 -0.78847199091E+00 -0.35226500174E+02  0.25445778626E+02  0.43462807692E+02  0.00000000000E+00 0. -1.
         -5    1    3    3    0  503  0.27780769656E+02  0.35486910983E+02 -0.33052262069E+02  0.56085952267E+02  0.47000000000E+01 0.  1.
         13    1    4    4    0    0  0.60554142988E+02 -0.80443402401E+01 -0.18711525244E+03  0.19683402485E+03  0.00000000000E+00 0. -1.
        -14    1    4    4    0    0  0.26502803868E+02 -0.85408159009E+02 -0.21542790372E+03  0.23325122495E+03  0.00000000000E+00 0.  1.
<mgrwt>
<rscale>  2 0.21590287E+03</rscale>
<asrwt>0</asrwt>
<pdfrwt beam="1">  1       21 0.60989531E-01 0.21591450E+03</pdfrwt>
<pdfrwt beam="2">  1       21 0.75734163E-01 0.21591450E+03</pdfrwt>
<totfact> 0.38206297E+03</totfact>
</mgrwt>
</event>
<event>
12    1  0.1026879E-001  0.1792841E+03  0.7546771E-02  0.1168747E+00
         21   -1    0    0  503  502  0.00000000000E+00  0.00000000000E+00  0.11480360241E+04  0.11480360241E+04  0.00000000000E+00 0.  1.
         21   -1    0    0  501  503 -0.00000000000E+00 -0.00000000000E+00 -0.27143695651E+03  0.27143695651E+03  0.00000000000E+00 0.  1.
          6    2    1    2  501    0 -0.37212209180E+02 -0.17636021745E+02 -0.23418497853E+03  0.29431344925E+03  0.17344170335E+03 0.  0.
         24    2    3    3    0    0 -0.69339007134E+02 -0.61808122025E+02 -0.16308501622E+03  0.20453260368E+03  0.81294044025E+02 0.  0.
         -6    2    1    2    0  502  0.37212209180E+02  0.17636021745E+02  0.11107840461E+04  0.11251595314E+04  0.17449067638E+03 0.  0.
        -24    2    5    5    0    0  0.41068649096E+02 -0.48316102213E+02  0.49613140805E+03  0.50694879847E+03  0.82641578802E+02 0.  0.
          5    1    3    3  501    0  0.32126797954E+02  0.44172100280E+02 -0.71099962313E+02  0.89780845568E+02  0.47000000000E+01 0. -1.
        -11    1    4    4    0    0 -0.14113942261E+02  0.15002245743E+02 -0.65189140347E+01  0.21604790758E+02  0.00000000000E+00 0.  1.
         12    1    4    4    0    0 -0.55225064873E+02 -0.76810367769E+02 -0.15656610218E+03  0.18292781292E+03  0.00000000000E+00 0. -1.
         -5    1    5    5    0  502 -0.38564399167E+01  0.65952123958E+02  0.61465263807E+03  0.61821073290E+03  0.47000000000E+01 0.  1.
         11    1    6    6    0    0  0.20041252371E+02  0.20604295749E+02  0.20638413788E+03  0.20837610508E+03  0.00000000000E+00 0. -1.
        -12    1    6    6    0    0  0.21027396725E+02 -0.68920397962E+02  0.28974727017E+03  0.29857269339E+03  0.00000000000E+00 0.  1.
<mgrwt>
<rscale>  2 0.17902832E+03</rscale>
<asrwt>0</asrwt>
<pdfrwt beam="1">  1       21 0.17662092E+00 0.17928406E+03</pdfrwt>
<pdfrwt beam="2">  1       21 0.41759532E-01 0.17928406E+03</pdfrwt>
<totfact> 0.10753048E+03</totfact>
</mgrwt>
</event>
<event>
12    1  0.1026879E-001  0.2119447E+03  0.7546771E-02  0.1140037E+00
         21   -1    0    0  501  502  0.00000000000E+00  0.00000000000E+00  0.17411110650E+04  0.17411110650E+04  0.00000000000E+00 0. -1.
         21   -1    0    0  502  503 -0.00000000000E+00 -0.00000000000E+00 -0.36552288413E+02  0.36552288413E+02  0.00000000000E+00 0. -1.
         -6    2    1    2    0  503  0.11641414486E+03 -0.39774881128E+02  0.37019565333E+03  0.42657400265E+03  0.17258697430E+03 0.  0.
        -24    2    3    3    0    0  0.14107578846E+03 -0.64484043406E+02  0.28642674462E+03  0.33570013714E+03  0.81201798623E+02 0.  0.
          6    2    1    2  501    0 -0.11641414486E+03  0.39774881128E+02  0.13343631233E+04  0.13510893508E+04  0.17257808307E+03 0.  0.
         24    2    5    5    0    0 -0.40149718254E+01  0.51944541318E+02  0.52908491569E+03  0.53790010077E+03  0.81800458598E+02 0.  0.
          5    1    5    5  501    0 -0.11239917303E+03 -0.12169660190E+02  0.80527820758E+03  0.81318925001E+03  0.47000000000E+01 0. -1.
        -11    1    6    6    0    0  0.64733238485E+01 -0.15252400895E+02  0.25373169853E+03  0.25427212686E+03  0.00000000000E+00 0.  1.
         12    1    6    6    0    0 -0.10488295674E+02  0.67196942213E+02  0.27535321716E+03  0.28362797391E+03  0.00000000000E+00 0. -1.
         -5    1    3    3    0  503 -0.24661643599E+02  0.24709162278E+02  0.83768908717E+02  0.90873865512E+02  0.47000000000E+01 0.  1.
         11    1    4    4    0    0  0.29224718941E+02 -0.26457442020E+02  0.15064914541E+03  0.15572169229E+03  0.00000000000E+00 0. -1.
        -12    1    4    4    0    0  0.11185106952E+03 -0.38026601386E+02  0.13577759920E+03  0.17997844485E+03  0.00000000000E+00 0.  1.
<mgrwt>
<rscale>  2 0.21194289E+03</rscale>
<asrwt>0</asrwt>
<pdfrwt beam="1">  1       21 0.26786318E+00 0.21194471E+03</pdfrwt>
<pdfrwt beam="2">  1       21 0.56234303E-02 0.21194471E+03</pdfrwt>
<totfact> 0.11311785E+04</totfact>
</mgrwt>
</event>
<event>
12    1  0.1026879E-001  0.1945474E+03  0.7546771E-02  0.1154800E+00
         21   -1    0    0  503  502  0.00000000000E+00  0.00000000000E+00  0.43605589557E+02  0.43605589557E+02  0.00000000000E+00 0. -1.
         21   -1    0    0  501  503 -0.00000000000E+00 -0.00000000000E+00 -0.86109132074E+03  0.86109132074E+03  0.00000000000E+00 0.  1.
          6    2    1    2  501    0  0.64039841261E+02  0.59819827005E+02 -0.39342342751E+03  0.43813765350E+03  0.17176465622E+03 0.  0.
         24    2    3    3    0    0  0.95850099820E+02  0.13437299637E+01 -0.23126975304E+03  0.26278871389E+03  0.79894694655E+02 0.  0.
         -6    2    1    2    0  502 -0.64039841261E+02 -0.59819827005E+02 -0.42406230367E+03  0.46655925680E+03  0.17369280278E+03 0.  0.
        -24    2    5    5    0    0 -0.98236834258E+02 -0.29509557968E+02 -0.20386709558E+03  0.24162334058E+03  0.79364705228E+02 0.  0.
          5    1    3    3  501    0 -0.31810258559E+02  0.58476097041E+02 -0.16215367448E+03  0.17534893961E+03  0.47000000000E+01 0. -1.
        -13    1    4    4    0    0  0.71436363755E+02 -0.31133960478E+02 -0.18759911836E+03  0.20314011610E+03  0.00000000000E+00 0.  1.
         14    1    4    4    0    0  0.24413736065E+02  0.32477690442E+02 -0.43670634679E+02  0.59648597790E+02  0.00000000000E+00 0. -1.
         -5    1    5    5    0  502  0.34196992997E+02 -0.30310269037E+02 -0.22019520810E+03  0.22493591622E+03  0.47000000000E+01 0.  1.
         11    1    6    6    0    0 -0.42908998152E+00  0.19749851811E+02 -0.24558661320E+02  0.31517750723E+02  0.00000000000E+00 0. -1.
        -12    1    6    6    0    0 -0.97807744276E+02 -0.49259409780E+02 -0.17930843426E+03  0.21010558985E+03  0.00000000000E+00 0.  1.
<mgrwt>
<rscale>  2 0.19411612E+03</rscale>
<asrwt>0</asrwt>
<pdfrwt beam="1">  1       21 0.67085524E-02 0.19454743E+03</pdfrwt>
<pdfrwt beam="2">  1       21 0.13247559E+00 0.19454743E+03</pdfrwt>
<totfact> 0.67022620E+04</totfact>
</mgrwt>
</event>
<event>
12    1  0.1026879E-001  0.3742694E+03  0.7546771E-02  0.1053093E+00
         21   -1    0    0  501  502  0.00000000000E+00  0.00000000000E+00  0.13914150682E+03  0.13914150682E+03  0.00000000000E+00 0. -1.
         21   -1    0    0  502  503 -0.00000000000E+00 -0.00000000000E+00 -0.20836967116E+04  0.20836967116E+04  0.00000000000E+00 0.  1.
         -6    2    1    2    0  503 -0.32415814454E+03  0.72197852076E+02 -0.17716678162E+04  0.18107690268E+04  0.17258790479E+03 0.  0.
        -24    2    3    3    0    0 -0.60281215106E+02  0.32141644847E+01 -0.44850102086E+03  0.45977596931E+03  0.81219581980E+02 0.  0.
          6    2    1    2  501    0  0.32415814454E+03 -0.72197852076E+02 -0.17288738856E+03  0.41206919163E+03  0.17210443645E+03 0.  0.
         24    2    5    5    0    0  0.31522268849E+03 -0.63561935430E+02 -0.19639405326E+03  0.38506780802E+03  0.79379655108E+02 0.  0.
          5    1    5    5  501    0  0.89354560515E+01 -0.86359166465E+01  0.23506664699E+02  0.27001383602E+02  0.47000000000E+01 0. -1.
        -13    1    6    6    0    0  0.12794045373E+03 -0.34203426300E+02 -0.12615712863E+03  0.18290504415E+03  0.00000000000E+00 0.  1.
         14    1    6    6    0    0  0.18728223476E+03 -0.29358509129E+02 -0.70236924628E+02  0.20216276387E+03  0.00000000000E+00 0. -1.
         -5    1    3    3    0  503 -0.26387692944E+03  0.68983687592E+02 -0.13231667954E+04  0.13509930575E+04  0.47000000000E+01 0.  1.
         11    1    4    4    0    0 -0.49924277137E+02 -0.32976498866E+02 -0.21134832016E+03  0.21965426324E+03  0.00000000000E+00 0. -1.
        -12    1    4    4    0    0 -0.10356937969E+02  0.36190663351E+02 -0.23715270070E+03  0.24012170608E+03  0.00000000000E+00 0.  1.
<mgrwt>
<rscale>  2 0.37421376E+03</rscale>
<asrwt>0</asrwt>
<pdfrwt beam="1">  1       21 0.21406387E-01 0.37426944E+03</pdfrwt>
<pdfrwt beam="2">  1       21 0.32056871E+00 0.37426944E+03</pdfrwt>
<totfact> 0.43786962E+02</totfact>
</mgrwt>
</event>
<event>
12    1  0.1026879E-001  0.2134031E+03  0.7546771E-02  0.1139051E+00
         21   -1    0    0  503  502  0.00000000000E+00  0.00000000000E+00  0.63051781837E+02  0.63051781837E+02  0.00000000000E+00 0. -1.
         21   -1    0    0  501  503 -0.00000000000E+00 -0.00000000000E+00 -0.86529655925E+03  0.86529655925E+03  0.00000000000E+00 0. -1.
          6    2    1    2  501    0  0.79287209145E+02  0.94196425629E+02 -0.21006944878E+03  0.29889422570E+03  0.17334692589E+03 0.  0.
         24    2    3    3    0    0  0.46339453488E+02  0.12800530620E+03 -0.15767357476E+03  0.22821174822E+03  0.93203768618E+02 0.  0.
         -6    2    1    2    0  502 -0.79287209145E+02 -0.94196425629E+02 -0.59217532863E+03  0.62945411538E+03  0.17430271195E+03 0.  0.
        -24    2    5    5    0    0 -0.11566586354E+03 -0.96495576278E+02 -0.42144831654E+03  0.45481593156E+03  0.80925026164E+02 0.  0.
          5    1    3    3  501    0  0.32947755656E+02 -0.33808880574E+02 -0.52395874023E+02  0.70682477483E+02  0.47000000000E+01 0. -1.
        -13    1    4    4    0    0 -0.14221650099E+02  0.20064236072E+02  0.36673533073E+01  0.24865204221E+02  0.00000000000E+00 0.  1.
         14    1    4    4    0    0  0.60561103588E+02  0.10794107013E+03 -0.16134092806E+03  0.20334654400E+03  0.00000000000E+00 0. -1.
         -5    1    5    5    0  502  0.36378654392E+02  0.22991506487E+01 -0.17072701209E+03  0.17463818382E+03  0.47000000000E+01 0.  1.
         13    1    6    6    0    0 -0.42619896229E+02 -0.71959259527E+02 -0.29602887915E+03  0.30761613722E+03  0.00000000000E+00 0. -1.
        -14    1    6    6    0    0 -0.73045967308E+02 -0.24536316750E+02 -0.12541943739E+03  0.14719979434E+03  0.00000000000E+00 0.  1.
<mgrwt>
<rscale>  2 0.21320780E+03</rscale>
<asrwt>0</asrwt>
<pdfrwt beam="1">  1       21 0.97002744E-02 0.21340305E+03</pdfrwt>
<pdfrwt beam="2">  1       21 0.13312254E+00 0.21340305E+03</pdfrwt>
<totfact> 0.34437432E+04</totfact>
</mgrwt>
</event>
<event>
12    1  0.1026879E-001  0.2831235E+03  0.7546771E-02  0.1094219E+00
         21   -1    0    0  501  502  0.00000000000E+00  0.00000000000E+00  0.35551284117E+03  0.35551284117E+03  0.00000000000E+00 0.  1.
         21   -1    0    0  502  503 -0.00000000000E+00 -0.00000000000E+00 -0.24729640298E+03  0.24729640298E+03  0.00000000000E+00 0. -1.
         -6    2    1    2    0  503  0.22432625265E+03  0.28688368201E+01  0.14615970235E+03  0.31715450584E+03  0.16998183470E+03 0.  0.
        -24    2    3    3    0    0  0.12292350181E+03 -0.62908628427E+02  0.85654871814E+02  0.18190615158E+03  0.81764344843E+02 0.  0.
          6    2    1    2  501    0 -0.22432625265E+03 -0.28688368201E+01 -0.37943264163E+02  0.28565473831E+03  0.17270912069E+03 0.  0.
         24    2    5    5    0    0 -0.15848122008E+03  0.19224003938E+02 -0.89177281789E+02  0.19922166310E+03  0.79062152875E+02 0.  0.
          5    1    5    5  501    0 -0.65845032574E+02 -0.22092840758E+02  0.51234017627E+02  0.86433075206E+02  0.47000000000E+01 0. -1.
        -13    1    6    6    0    0 -0.57007822352E+02  0.35385626205E+02 -0.66405600804E+01  0.67425005668E+02  0.00000000000E+00 0.  1.
         14    1    6    6    0    0 -0.10147339772E+03 -0.16161622267E+02 -0.82536721709E+02  0.13179665743E+03  0.00000000000E+00 0. -1.
         -5    1    3    3    0  503  0.10140275084E+03  0.65777465247E+02  0.60504830537E+02  0.13524835426E+03  0.47000000000E+01 0.  1.
         13    1    4    4    0    0  0.28592430882E+02  0.17702254567E+02  0.52142142743E+01  0.34030647231E+02  0.00000000000E+00 0. -1.
        -14    1    4    4    0    0  0.94331070928E+02 -0.80610882994E+02  0.80440657540E+02  0.14787550434E+03  0.00000000000E+00 0.  1.
<mgrwt>
<rscale>  2 0.28270878E+03</rscale>
<asrwt>0</asrwt>
<pdfrwt beam="1">  1       21 0.54694283E-01 0.28312354E+03</pdfrwt>
<pdfrwt beam="2">  1       21 0.38045600E-01 0.28312354E+03</pdfrwt>
<totfact> 0.20081312E+04</totfact>
</mgrwt>
</event>
<event>
12    1  0.1026879E-001  0.1895176E+03  0.7546771E-02  0.1159863E+00
         21   -1    0    0  501  502  0.00000000000E+00  0.00000000000E+00  0.10003209283E+03  0.10003209283E+03  0.00000000000E+00 0. -1.
         21   -1    0    0  502  503 -0.00000000000E+00 -0.00000000000E+00 -0.35111019628E+03  0.35111019628E+03  0.00000000000E+00 0. -1.
         -6    2    1    2    0  503  0.18391189791E+02 -0.65282603189E+02 -0.12612940582E+03  0.22765227410E+03  0.17696575022E+03 0.  0.
        -24    2    3    3    0    0  0.73199990816E+02 -0.74058426686E+02 -0.10765572610E+03  0.16896337745E+03  0.78204720696E+02 0.  0.
          6    2    1    2  501    0 -0.18391189791E+02  0.65282603189E+02 -0.12494869762E+03  0.22349001500E+03  0.17244000588E+03 0.  0.
         24    2    5    5    0    0 -0.76207836302E+02  0.31382603241E+02 -0.85495954092E+02  0.14557606515E+03  0.84204100125E+02 0.  0.
          5    1    5    5  501    0  0.57816646511E+02  0.33899999948E+02 -0.39452743532E+02  0.77913949858E+02  0.47000000000E+01 0. -1.
        -11    1    6    6    0    0 -0.15596392820E+02 -0.25124595432E+02 -0.48912538609E+01  0.29973607206E+02  0.00000000000E+00 0.  1.
         12    1    6    6    0    0 -0.60611443481E+02  0.56507198673E+02 -0.80604700231E+02  0.11560245794E+03  0.00000000000E+00 0. -1.
         -5    1    3    3    0  503 -0.54808801025E+02  0.87758234974E+01 -0.18473679726E+02  0.58688896654E+02  0.47000000000E+01 0.  1.
         11    1    4    4    0    0 -0.12273892548E+02 -0.23239894218E+02 -0.42857173152E+02  0.50274033180E+02  0.00000000000E+00 0. -1.
        -12    1    4    4    0    0  0.85473883364E+02 -0.50818532468E+02 -0.64798552945E+02  0.11868934427E+03  0.00000000000E+00 0.  1.
<mgrwt>
<rscale>  2 0.18845398E+03</rscale>
<asrwt>0</asrwt>
<pdfrwt beam="1">  1       21 0.15389553E-01 0.18951763E+03</pdfrwt>
<pdfrwt beam="2">  1       21 0.54016952E-01 0.18951763E+03</pdfrwt>
<totfact> 0.12144593E+05</totfact>
</mgrwt>
</event>
<event>
12    1  0.1026879E-001  0.2837776E+03  0.7546771E-02  0.1093663E+00
         21   -1    0    0  503  502  0.00000000000E+00  0.00000000000E+00  0.15175086076E+03  0.15175086076E+03  0.00000000000E+00 0. -1.
         21   -1    0    0  501  503 -0.00000000000E+00 -0.00000000000E+00 -0.54045501302E+03  0.54045501302E+03  0.00000000000E+00 0.  1.
          6    2    1    2  501    0  0.63913637202E+02  0.21539132090E+03 -0.24161332160E+03  0.37270195624E+03  0.17335332959E+03 0.  0.
         24    2    3    3    0    0  0.55993647126E+01  0.14808643850E+03 -0.22502619619E+03  0.28199515220E+03  0.83207756504E+02 0.  0.
         -6    2    1    2    0  502 -0.63913637202E+02 -0.21539132090E+03 -0.14709083066E+03  0.31950391754E+03  0.17311460573E+03 0.  0.
        -24    2    5    5    0    0  0.23105691049E+02 -0.16534589409E+03 -0.93393496117E+02  0.20556357362E+03  0.75238952893E+02 0.  0.
          5    1    3    3  501    0  0.58314272490E+02  0.67304882396E+02 -0.16587125409E+02  0.90706804043E+02  0.47000000000E+01 0. -1.
        -13    1    4    4    0    0  0.33702586843E+02  0.23304970599E+02 -0.68911454062E+02  0.80173402794E+02  0.00000000000E+00 0.  1.
         14    1    4    4    0    0 -0.28103222131E+02  0.12478146790E+03 -0.15611474212E+03  0.20182174941E+03  0.00000000000E+00 0. -1.
         -5    1    5    5    0  502 -0.87019328252E+02 -0.50045426804E+02 -0.53697334545E+02  0.11394034391E+03  0.47000000000E+01 0.  1.
         13    1    6    6    0    0  0.61340379361E+01 -0.13816535806E+02  0.12753187779E+02  0.19777939266E+02  0.00000000000E+00 0. -1.
        -14    1    6    6    0    0  0.16971653113E+02 -0.15152935829E+03 -0.10614668390E+03  0.18578563436E+03  0.00000000000E+00 0.  1.
<mgrwt>
<rscale>  2 0.28374119E+03</rscale>
<asrwt>0</asrwt>
<pdfrwt beam="1">  1       21 0.23346286E-01 0.28377764E+03</pdfrwt>
<pdfrwt beam="2">  1       21 0.83146927E-01 0.28377764E+03</pdfrwt>
<totfact> 0.20746220E+04</totfact>
</mgrwt>
</event>
<event>
12    1  0.1026879E-001  0.1908562E+03  0.7546771E-02  0.1157914E+00
         21   -1    0    0  503  502  0.00000000000E+00  0.00000000000E+00  0.59465905219E+02  0.59465905219E+02  0.00000000000E+00 0.  1.
         21   -1    0    0  501  503 -0.00000000000E+00 -0.00000000000E+00 -0.65036274535E+03  0.65036274535E+03  0.00000000000E+00 0.  1.
          6    2    1    2  501    0  0.74418634425E+02 -0.15010443092E+02 -0.38382093498E+03  0.42821454178E+03  0.17402797795E+03 0.  0.
         24    2    3    3    0    0  0.75905174945E+02 -0.61718797454E+02 -0.34353195993E+03  0.36633424055E+03  0.81337339279E+02 0.  0.
         -6    2    1    2    0  502 -0.74418634425E+02  0.15010443092E+02 -0.20707590515E+03  0.28161410879E+03  0.17510747907E+03 0.  0.
        -24    2    5    5    0    0 -0.40770667139E+02  0.77618117444E+02 -0.12722225406E+03  0.17460662222E+03  0.81333579411E+02 0.  0.
          5    1    3    3  501    0 -0.14865405207E+01  0.46708354362E+02 -0.40288975050E+02  0.61880301232E+02  0.47000000000E+01 0. -1.
        -13    1    4    4    0    0  0.79411518704E+02 -0.17871689388E+02 -0.19186224336E+03  0.20841474758E+03  0.00000000000E+00 0.  1.
         14    1    4    4    0    0 -0.35063437590E+01 -0.43847108066E+02 -0.15166971657E+03  0.15791949296E+03  0.00000000000E+00 0. -1.
         -5    1    5    5    0  502 -0.33647967285E+02 -0.62607674352E+02 -0.79853651089E+02  0.10700748657E+03  0.47000000000E+01 0.  1.
         13    1    6    6    0    0 -0.21540580044E+01  0.77638616283E+02 -0.64541443892E+02  0.10098511120E+03  0.00000000000E+00 0. -1.
        -14    1    6    6    0    0 -0.38616609135E+02 -0.20498839609E-01 -0.62680810171E+02  0.73621511021E+02  0.00000000000E+00 0.  1.
<mgrwt>
<rscale>  2 0.19060820E+03</rscale>
<asrwt>0</asrwt>
<pdfrwt beam="1">  1       21 0.91486008E-02 0.19085617E+03</pdfrwt>
<pdfrwt beam="2">  1       21 0.10005581E+00 0.19085617E+03</pdfrwt>
<totfact> 0.77882849E+04</totfact>
</mgrwt>
</event>
<event>
12    1  0.1026879E-001  0.2312908E+03  0.7546771E-02  0.1126056E+00
         21   -1    0    0  501  502  0.00000000000E+00  0.00000000000E+00  0.26063372833E+02  0.26063372833E+02  0.00000000000E+00 0. -1.
         21   -1    0    0  502  503 -0.00000000000E+00 -0.00000000000E+00 -0.20401456922E+04  0.20401456922E+04  0.00000000000E+00 0. -1.
         -6    2    1    2    0  503  0.13148662726E+03  0.79518467735E+02 -0.95816026799E+03  0.98525262454E+03  0.17041043150E+03 0.  0.
        -24    2    3    3    0    0  0.14422466357E+03  0.22560327996E+02 -0.61803461997E+03  0.64012361434E+03  0.80509180604E+02 0.  0.
          6    2    1    2  501    0 -0.13148662726E+03 -0.79518467735E+02 -0.10559220514E+04  0.10809564405E+04  0.17286852744E+03 0.  0.
         24    2    5    5    0    0 -0.30073439327E+02 -0.17732017567E+02 -0.22484380722E+03  0.24142363110E+03  0.80695698840E+02 0.  0.
          5    1    5    5  501    0 -0.10141318793E+03 -0.61786450168E+02 -0.83107824415E+03  0.83953280937E+03  0.47000000000E+01 0. -1.
        -11    1    6    6    0    0  0.52299986200E+01 -0.28202179819E+02 -0.18483950002E+03  0.18705174845E+03  0.00000000000E+00 0.  1.
         12    1    6    6    0    0 -0.35303437947E+02  0.10470162252E+02 -0.40004307197E+02  0.54371882649E+02  0.00000000000E+00 0. -1.
         -5    1    3    3    0  503 -0.12738036314E+02  0.56958139739E+02 -0.34012564801E+03  0.34512901021E+03  0.47000000000E+01 0.  1.
         11    1    4    4    0    0  0.72721443507E+02 -0.21047308976E+02 -0.20149946038E+03  0.21525201531E+03  0.00000000000E+00 0. -1.
        -12    1    4    4    0    0  0.71503220067E+02  0.43607636972E+02 -0.41653515959E+03  0.42487159903E+03  0.00000000000E+00 0.  1.
<mgrwt>
<rscale>  2 0.23083162E+03</rscale>
<asrwt>0</asrwt>
<pdfrwt beam="1">  1       21 0.40097493E-02 0.23129083E+03</pdfrwt>
<pdfrwt beam="2">  1       21 0.31386860E+00 0.23129083E+03</pdfrwt>
<totfact> 0.10652061E+04</totfact>
</mgrwt>
</event>
<event>
12    1  0.1026879E-001  0.3224572E+03  0.7546771E-02  0.1074609E+00
         21   -1    0    0  501  502  0.00000000000E+00  0.00000000000E+00  0.39146673115E+03  0.39146673115E+03  0.00000000000E+00 0. -1.
         21   -1    0    0  502  503 -0.00000000000E+00 -0.00000000000E+00 -0.31248224477E+03  0.31248224477E+03  0.00000000000E+00 0. -1.
         -6    2    1    2    0  503 -0.26312377958E+03 -0.66873322462E+02  0.17666082781E+03  0.36702269883E+03  0.17259909831E+03 0.  0.
        -24    2    3    3    0    0 -0.15730491597E+03 -0.14607503428E+02  0.17522442344E+03  0.24889776077E+03  0.79298682210E+02 0.  0.
          6    2    1    2  501    0  0.26312377958E+03  0.66873322462E+02 -0.97676341433E+02  0.33692627709E+03  0.17398989591E+03 0.  0.
         24    2    5    5    0    0  0.21132270706E+03  0.81080801113E+02 -0.18141522409E+02  0.24083735473E+03  0.80262904055E+02 0.  0.
          5    1    5    5  501    0  0.51801072516E+02 -0.14207478651E+02 -0.79534819024E+02  0.96088922362E+02  0.47000000000E+01 0. -1.
        -11    1    6    6    0    0  0.73651481867E+02  0.25568948587E+02  0.31829033178E+02  0.84210446300E+02  0.00000000000E+00 0.  1.
         12    1    6    6    0    0  0.13767122519E+03  0.55511852526E+02 -0.49970555587E+02  0.15662690843E+03  0.00000000000E+00 0. -1.
         -5    1    3    3    0  503 -0.10581886361E+03 -0.52265819034E+02  0.14364043705E+01  0.11812493806E+03  0.47000000000E+01 0.  1.
         13    1    4    4    0    0 -0.23198765138E+02 -0.22014187687E+02  0.74312468405E+02  0.80902102098E+02  0.00000000000E+00 0. -1.
        -14    1    4    4    0    0 -0.13410615083E+03  0.74066842594E+01  0.10091195504E+03  0.16799565867E+03  0.00000000000E+00 0.  1.
<mgrwt>
<rscale>  2 0.32226996E+03</rscale>
<asrwt>0</asrwt>
<pdfrwt beam="1">  1       21 0.60225651E-01 0.32245720E+03</pdfrwt>
<pdfrwt beam="2">  1       21 0.48074191E-01 0.32245720E+03</pdfrwt>
<totfact> 0.99080097E+03</totfact>
</mgrwt>
</event>
<event>
12    1  0.1026879E-001  0.1899496E+03  0.7546771E-02  0.1158747E+00
         21   -1    0    0  501  502  0.00000000000E+00  0.00000000000E+00  0.74186577204E+03  0.74186577204E+03  0.00000000000E+00 0. -1.
         21   -1    0    0  502  503 -0.00000000000E+00 -0.00000000000E+00 -0.13631699893E+03  0.13631699893E+03  0.00000000000E+00 0.  1.
         -6    2    1    2    0  503 -0.10190067491E+02 -0.76855253310E+02 -0.49623924065E+02  0.19632467110E+03  0.17340782914E+03 0.  0.
        -24    2    3    3    0    0 -0.67608207626E+02 -0.18750810903E+02 -0.11128960152E+02  0.10589834037E+03  0.78537520270E+02 0.  0.
          6    2    1    2  501    0  0.10190067491E+02  0.76855253310E+02  0.65517269718E+03  0.68185809987E+03  0.17224586435E+03 0.  0.
         24    2    5    5    0    0 -0.25685205007E+02  0.21645826363E+02  0.16244760021E+03  0.18473112696E+03  0.81290189452E+02 0.  0.
          5    1    5    5  501    0  0.35875272498E+02  0.55209426947E+02  0.49272509697E+03  0.49712697290E+03  0.47000000000E+01 0. -1.
        -13    1    6    6    0    0 -0.49815350829E+02  0.21653838330E+02  0.14532129437E+03  0.15514102130E+03  0.00000000000E+00 0.  1.
         14    1    6    6    0    0  0.24130145822E+02 -0.80119673223E-02  0.17126305836E+02  0.29590105663E+02  0.00000000000E+00 0. -1.
         -5    1    3    3    0  503  0.57418140135E+02 -0.58104442406E+02 -0.38494963912E+02  0.90426330736E+02  0.47000000000E+01 0.  1.
         11    1    4    4    0    0 -0.64132202595E+02 -0.45265373255E+02 -0.65833003118E+01  0.78773303019E+02  0.00000000000E+00 0. -1.
        -12    1    4    4    0    0 -0.34760050304E+01  0.26514562351E+02 -0.45456598406E+01  0.27125037346E+02  0.00000000000E+00 0.  1.
<mgrwt>
<rscale>  2 0.18968398E+03</rscale>
<asrwt>0</asrwt>
<pdfrwt beam="1">  1       21 0.11413319E+00 0.18994958E+03</pdfrwt>
<pdfrwt beam="2">  1       21 0.20971846E-01 0.18994958E+03</pdfrwt>
<totfact> 0.12636482E+04</totfact>
</mgrwt>
</event>
<event>
12    1  0.1026879E-001  0.1911241E+03  0.7546771E-02  0.1157864E+00
         21   -1    0    0  503  502  0.00000000000E+00  0.00000000000E+00  0.88203105263E+02  0.88203105263E+02  0.00000000000E+00 0.  1.
         21   -1    0    0  501  503 -0.00000000000E+00 -0.00000000000E+00 -0.56719238919E+03  0.56719238919E+03  0.00000000000E+00 0.  1.
          6    2    1    2  501    0  0.53891455255E+02 -0.63614818704E+02 -0.66238920004E+02  0.20054244005E+03  0.16993687543E+03 0.  0.
         24    2    3    3    0    0  0.72918167415E+02 -0.11307724558E+02 -0.87119626825E+02  0.14090904512E+03  0.82586959288E+02 0.  0.
         -6    2    1    2    0  502 -0.53891455255E+02  0.63614818704E+02 -0.41275036392E+03  0.45485305440E+03  0.17198053399E+03 0.  0.
        -24    2    5    5    0    0 -0.43468305322E+02 -0.26887505387E+01 -0.35402584770E+03  0.36554760018E+03  0.79962642564E+02 0.  0.
          5    1    3    3  501    0 -0.19026712161E+02 -0.52307094147E+02  0.20880706822E+02  0.59633394932E+02  0.47000000000E+01 0. -1.
        -11    1    4    4    0    0  0.86907722901E+02 -0.36737515684E+01 -0.49571681491E+02  0.10011893106E+03  0.00000000000E+00 0.  1.
         12    1    4    4    0    0 -0.13989555486E+02 -0.76339729893E+01 -0.37547945334E+02  0.40790114061E+02  0.00000000000E+00 0. -1.
         -5    1    5    5    0  502 -0.10423149933E+02  0.66303569243E+02 -0.58724516216E+02  0.89305454221E+02  0.47000000000E+01 0.  1.
         11    1    6    6    0    0  0.15282577697E+02 -0.20742347000E+02 -0.62296673774E+02  0.67414224785E+02  0.00000000000E+00 0. -1.
        -12    1    6    6    0    0 -0.58750883018E+02  0.18053596461E+02 -0.29172917393E+03  0.29813337539E+03  0.00000000000E+00 0.  1.
<mgrwt>
<rscale>  2 0.19066326E+03</rscale>
<asrwt>0</asrwt>
<pdfrwt beam="1">  1       21 0.13569708E-01 0.19112414E+03</pdfrwt>
<pdfrwt beam="2">  1       21 0.87260371E-01 0.19112414E+03</pdfrwt>
<totfact> 0.53121492E+04</totfact>
</mgrwt>
</event>
<event>
12    1  0.1026879E-001  0.1748351E+03  0.7546771E-02  0.1173014E+00
         21   -1    0    0  501  502  0.00000000000E+00  0.00000000000E+00  0.27879184823E+03  0.27879184823E+03  0.00000000000E+00 0. -1.
         21   -1    0    0  502  503 -0.00000000000E+00 -0.00000000000E+00 -0.25732436453E+03  0.25732436453E+03  0.00000000000E+00 0. -1.
         -6    2    1    2    0  503 -0.52904172480E+01 -0.21782579401E+02 -0.19253233036E+03  0.26006921298E+03  0.17339212215E+03 0.  0.
        -24    2    3    3    0    0  0.49145962411E+02  0.27662662645E+02 -0.12053335529E+03  0.15704448875E+03  0.83391445498E+02 0.  0.
          6    2    1    2  501    0  0.52904172480E+01  0.21782579401E+02  0.21399981407E+03  0.27604699978E+03  0.17292644790E+03 0.  0.
         24    2    5    5    0    0  0.13562812252E+02 -0.49789670144E+02  0.15933061666E+03  0.18548304133E+03  0.79716698922E+02 0.  0.
          5    1    5    5  501    0 -0.82723950041E+01  0.71572249545E+02  0.54669197407E+02  0.90563958445E+02  0.47000000000E+01 0. -1.
        -13    1    6    6    0    0  0.27764348763E+02 -0.73372176417E+01  0.11348717153E+02  0.30878588147E+02  0.00000000000E+00 0.  1.
         14    1    6    6    0    0 -0.14201536511E+02 -0.42452452503E+02  0.14798189951E+03  0.15460445319E+03  0.00000000000E+00 0. -1.
         -5    1    3    3    0  503 -0.54436379659E+02 -0.49445242046E+02 -0.71998975076E+02  0.10302472423E+03  0.47000000000E+01 0.  1.
         13    1    4    4    0    0  0.16344294415E+02 -0.19934390249E+02 -0.85840723200E+02  0.89627817301E+02  0.00000000000E+00 0. -1.
        -14    1    4    4    0    0  0.32801667996E+02  0.47597052894E+02 -0.34692632088E+02  0.67416671445E+02  0.00000000000E+00 0.  1.
<mgrwt>
<rscale>  2 0.17471949E+03</rscale>
<asrwt>0</asrwt>
<pdfrwt beam="1">  1       21 0.42891054E-01 0.17483506E+03</pdfrwt>
<pdfrwt beam="2">  1       21 0.39588364E-01 0.17483506E+03</pdfrwt>
<totfact> 0.32462539E+04</totfact>
</mgrwt>
</event>
<event>
12    1  0.1026879E-001  0.2011747E+03  0.7546771E-02  0.1149814E+00
         21   -1    0    0  503  502  0.00000000000E+00  0.00000000000E+00  0.21226150379E+03  0.21226150379E+03  0.00000000000E+00 0. -1.
         21   -1    0    0  501  503 -0.00000000000E+00 -0.00000000000E+00 -0.18693739392E+03  0.18693739392E+03  0.00000000000E+00 0. -1.
          6    2    1    2  501    0  0.73534368303E+02 -0.60318959292E+02  0.26994904149E+02  0.19801728986E+03  0.17157051629E+03 0.  0.
         24    2    3    3    0    0  0.35326761794E+02 -0.40338616554E+02  0.85555102287E+02  0.12514464686E+03  0.73934586136E+02 0.  0.
         -6    2    1    2    0  502 -0.73534368303E+02  0.60318959292E+02 -0.16707942831E+01  0.20118160785E+03  0.17727257998E+03 0.  0.
        -24    2    5    5    0    0 -0.98999262116E+02 -0.17354068728E+01 -0.25340064280E+02  0.12989676010E+03  0.80169719284E+02 0.  0.
          5    1    3    3  501    0  0.38207606509E+02 -0.19980342739E+02 -0.58560198137E+02  0.72872642994E+02  0.47000000000E+01 0. -1.
        -11    1    4    4    0    0 -0.18190467663E+02 -0.20603934060E+02  0.75378739427E+01  0.28499732562E+02  0.00000000000E+00 0.  1.
         12    1    4    4    0    0  0.53517229457E+02 -0.19734682493E+02  0.78017228344E+02  0.96644914301E+02  0.00000000000E+00 0. -1.
         -5    1    5    5    0  502  0.25464893813E+02  0.62054366165E+02  0.23669269997E+02  0.71284847754E+02  0.47000000000E+01 0.  1.
         13    1    6    6    0    0 -0.24889102111E+02  0.10095720670E+02  0.27245706627E+02  0.38258587394E+02  0.00000000000E+00 0. -1.
        -14    1    6    6    0    0 -0.74110160005E+02 -0.11831127543E+02 -0.52585770907E+02  0.91638172706E+02  0.00000000000E+00 0.  1.
<mgrwt>
<rscale>  2 0.19991130E+03</rscale>
<asrwt>0</asrwt>
<pdfrwt beam="1">  1       21 0.32655616E-01 0.20117467E+03</pdfrwt>
<pdfrwt beam="2">  1       21 0.28759599E-01 0.20117467E+03</pdfrwt>
<totfact> 0.10404981E+05</totfact>
</mgrwt>
</event>
<event>
12    1  0.1026879E-001  0.2975467E+03  0.7546771E-02  0.1086713E+00
         21   -1    0    0  501  502  0.00000000000E+00  0.00000000000E+00  0.18994489301E+03  0.18994489301E+03  0.00000000000E+00 0. -1.
         21   -1    0    0  502  503 -0.00000000000E+00 -0.00000000000E+00 -0.14298217397E+04  0.14298217397E+04  0.00000000000E+00 0.  1.
         -6    2    1    2    0  503  0.22755241667E+03  0.75956732450E+02 -0.12864931129E+04  0.13204539307E+04  0.17602422013E+03 0.  0.
        -24    2    3    3    0    0  0.17285292327E+03  0.12134912210E+03 -0.95190349091E+03  0.97836504058E+03  0.80462128319E+02 0.  0.
          6    2    1    2  501    0 -0.22755241667E+03 -0.75956732450E+02  0.46616266218E+02  0.29931270198E+03  0.17281634690E+03 0.  0.
         24    2    5    5    0    0 -0.11250611333E+03 -0.10816139894E+03  0.20122021077E+02  0.17685116728E+03  0.80715090783E+02 0.  0.
          5    1    5    5  501    0 -0.11504630334E+03  0.32204666486E+02  0.26494245141E+02  0.12246153470E+03  0.47000000000E+01 0. -1.
        -13    1    6    6    0    0 -0.11024611618E+03 -0.93228450118E+02 -0.83495699359E+01  0.14462180113E+03  0.00000000000E+00 0.  1.
         14    1    6    6    0    0 -0.22599971458E+01 -0.14932948818E+02  0.28471591013E+02  0.32229366148E+02  0.00000000000E+00 0. -1.
         -5    1    3    3    0  503  0.54699493391E+02 -0.45392389648E+02 -0.33458962195E+03  0.34208889011E+03  0.47000000000E+01 0.  1.
         13    1    4    4    0    0  0.90401142066E+02  0.59033374410E+02 -0.31163074408E+03  0.32980452762E+03  0.00000000000E+00 0. -1.
        -14    1    4    4    0    0  0.82451781209E+02  0.62315747688E+02 -0.64027274683E+03  0.64856051296E+03  0.00000000000E+00 0.  1.
<mgrwt>
<rscale>  2 0.29707400E+03</rscale>
<asrwt>0</asrwt>
<pdfrwt beam="1">  1       21 0.29222291E-01 0.29754673E+03</pdfrwt>
<pdfrwt beam="2">  1       21 0.21997258E+00 0.29754673E+03</pdfrwt>
<totfact> 0.10234119E+03</totfact>
</mgrwt>
</event>
<event>
12    1  0.1026879E-001  0.1792364E+03  0.7546771E-02  0.1168692E+00
         21   -1    0    0  501  502  0.00000000000E+00  0.00000000000E+00  0.49158735042E+03  0.49158735042E+03  0.00000000000E+00 0. -1.
         21   -1    0    0  502  503 -0.00000000000E+00 -0.00000000000E+00 -0.96283066720E+02  0.96283066720E+02  0.00000000000E+00 0. -1.
         -6    2    1    2    0  503  0.37374122939E+00 -0.47284898097E+02  0.30682400053E+02  0.18184364227E+03  0.17288637682E+03 0.  0.
        -24    2    3    3    0    0 -0.49875735830E+02 -0.40433306516E+02 -0.24592881856E+02  0.10668114469E+03  0.81569697158E+02 0.  0.
          6    2    1    2  501    0 -0.37374122939E+00  0.47284898097E+02  0.36462188365E+03  0.40602677487E+03  0.17225743121E+03 0.  0.
         24    2    5    5    0    0 -0.65624412206E+02  0.15171549183E+02  0.18190559127E+03  0.20931314865E+03  0.78648653389E+02 0.  0.
          5    1    5    5  501    0  0.65250670977E+02  0.32113348913E+02  0.18271629238E+03  0.19671362622E+03  0.47000000000E+01 0. -1.
        -11    1    6    6    0    0 -0.36374189014E+01 -0.10469328197E+02 -0.39156808954E+01  0.11754582342E+02  0.00000000000E+00 0.  1.
         12    1    6    6    0    0 -0.61986993305E+02  0.25640877381E+02  0.18582127217E+03  0.19755856631E+03  0.00000000000E+00 0. -1.
         -5    1    3    3    0  503  0.50249477059E+02 -0.68515915809E+01  0.55275281909E+02  0.75162497578E+02  0.47000000000E+01 0.  1.
         11    1    4    4    0    0  0.82676200256E+01 -0.35058486389E+02  0.11768454152E+02  0.37893898215E+02  0.00000000000E+00 0. -1.
        -12    1    4    4    0    0 -0.58143355856E+02 -0.53748201265E+01 -0.36361336009E+02  0.68787246477E+02  0.00000000000E+00 0.  1.
<mgrwt>
<rscale>  2 0.17908460E+03</rscale>
<asrwt>0</asrwt>
<pdfrwt beam="1">  1       21 0.75628821E-01 0.17923644E+03</pdfrwt>
<pdfrwt beam="2">  1       21 0.14812780E-01 0.17923644E+03</pdfrwt>
<totfact> 0.63013475E+04</totfact>
</mgrwt>
</event>
<event>
12    1  0.1026879E-001  0.1917359E+03  0.7546771E-02  0.1157081E+00
         21   -1    0    0  501  502  0.00000000000E+00  0.00000000000E+00  0.46836282498E+03  0.46836282498E+03  0.00000000000E+00 0.  1.
         21   -1    0    0  502  503 -0.00000000000E+00 -0.00000000000E+00 -0.14068077869E+03  0.14068077869E+03  0.00000000000E+00 0.  1.
         -6    2    1    2    0  503 -0.36680429964E+02 -0.74691329344E+02 -0.39338273384E+02  0.19495839732E+03  0.17186340015E+03 0.  0.
        -24    2    3    3    0    0 -0.48370788450E+00 -0.11147087916E+03 -0.19359088535E+02  0.13942286094E+03  0.81473731778E+02 0.  0.
          6    2    1    2  501    0  0.36680429964E+02  0.74691329344E+02  0.36702031968E+03  0.41408520635E+03  0.17273793574E+03 0.  0.
         24    2    5    5    0    0  0.87321864464E+02  0.62535518969E+02  0.30287279949E+03  0.33132463023E+03  0.80673903966E+02 0.  0.
          5    1    5    5  501    0 -0.50641434500E+02  0.12155810375E+02  0.64147520190E+02  0.82760576125E+02  0.47000000000E+01 0. -1.
        -11    1    6    6    0    0  0.24292863171E+02  0.61611954478E+02  0.19994596454E+03  0.21062897444E+03  0.00000000000E+00 0.  1.
         12    1    6    6    0    0  0.63029001293E+02  0.92356449082E+00  0.10292683495E+03  0.12069565579E+03  0.00000000000E+00 0. -1.
         -5    1    3    3    0  503 -0.36196722080E+02  0.36779549817E+02 -0.19979184849E+02  0.55535536382E+02  0.47000000000E+01 0.  1.
         13    1    4    4    0    0 -0.31750320526E+02 -0.88701390618E+02  0.38928325194E+01  0.94293020399E+02  0.00000000000E+00 0. -1.
        -14    1    4    4    0    0  0.31266612641E+02 -0.22769488543E+02 -0.23251921055E+02  0.45129840541E+02  0.00000000000E+00 0.  1.
<mgrwt>
<rscale>  2 0.19153869E+03</rscale>
<asrwt>0</asrwt>
<pdfrwt beam="1">  1       21 0.72055819E-01 0.19173587E+03</pdfrwt>
<pdfrwt beam="2">  1       21 0.21643197E-01 0.19173587E+03</pdfrwt>
<totfact> 0.34617572E+04</totfact>
</mgrwt>
</event>
<event>
12    1  0.1026879E-001  0.3478487E+03  0.7546771E-02  0.1064699E+00
         21   -1    0    0  503  502  0.00000000000E+00  0.00000000000E+00  0.22303214644E+03  0.22303214644E+03  0.00000000000E+00 0.  1.
         21   -1    0    0  501  503 -0.00000000000E+00 -0.00000000000E+00 -0.54902518185E+03  0.54902518185E+03  0.00000000000E+00 0.  1.
          6    2    1    2  501    0  0.21220395994E+01 -0.28887500507E+03 -0.79543361635E+02  0.34575211732E+03  0.17252277718E+03 0.  0.
         24    2    3    3    0    0  0.29291339034E+02 -0.26313855598E+03 -0.23051154048E+02  0.27782572214E+03  0.80968475311E+02 0.  0.
         -6    2    1    2    0  502 -0.21220395994E+01  0.28887500507E+03 -0.24644967378E+03  0.42630521097E+03  0.19376640470E+03 0.  0.
        -24    2    5    5    0    0 -0.52491944466E+02  0.10625164980E+03 -0.16945266562E+03  0.22175925899E+03  0.80113330621E+02 0.  0.
          5    1    3    3  501    0 -0.27169299435E+02 -0.25736449083E+02 -0.56492207587E+02  0.67926395173E+02  0.47000000000E+01 0. -1.
        -13    1    4    4    0    0 -0.10125492266E+02 -0.21156326943E+03 -0.21504472105E+02  0.21289430450E+03  0.00000000000E+00 0.  1.
         14    1    4    4    0    0  0.39416831300E+02 -0.51575286550E+02 -0.15466819429E+01  0.64931417646E+02  0.00000000000E+00 0. -1.
         -5    1    5    5    0  502  0.50369904866E+02  0.18262335527E+03 -0.76997008152E+02  0.20454595198E+03  0.47000000000E+01 0.  1.
         11    1    6    6    0    0 -0.19137405491E+02  0.28366682775E+02 -0.11748073048E+03  0.12236270271E+03  0.00000000000E+00 0. -1.
        -12    1    6    6    0    0 -0.33354538975E+02  0.77884967025E+02 -0.51971935150E+02  0.99396556288E+02  0.00000000000E+00 0.  1.
<mgrwt>
<rscale>  2 0.34497045E+03</rscale>
<asrwt>0</asrwt>
<pdfrwt beam="1">  1       21 0.34312638E-01 0.34784866E+03</pdfrwt>
<pdfrwt beam="2">  1       21 0.84465411E-01 0.34784866E+03</pdfrwt>
<totfact> 0.91652182E+03</totfact>
</mgrwt>
</event>
<event>
12    1  0.1026879E-001  0.1933459E+03  0.7546771E-02  0.1155515E+00
         21   -1    0    0  503  502  0.00000000000E+00  0.00000000000E+00  0.80720928600E+03  0.80720928600E+03  0.00000000000E+00 0. -1.
         21   -1    0    0  501  503 -0.00000000000E+00 -0.00000000000E+00 -0.47047001526E+02  0.47047001526E+02  0.00000000000E+00 0. -1.
          6    2    1    2  501    0  0.25218172720E+02 -0.81448193359E+02  0.32503889480E+03  0.37811030064E+03  0.17334171997E+03 0.  0.
         24    2    3    3    0    0  0.62208078296E+02 -0.29784302742E+02  0.28183168999E+03  0.30112742426E+03  0.80570928161E+02 0.  0.
         -6    2    1    2    0  502 -0.25218172720E+02  0.81448193359E+02  0.43512338967E+03  0.47614598688E+03  0.17353060867E+03 0.  0.
        -24    2    5    5    0    0 -0.38578404608E+01  0.51989042032E+02  0.13552704444E+03  0.17431132110E+03  0.96431911028E+02 0.  0.
          5    1    3    3  501    0 -0.36989905576E+02 -0.51663890617E+02  0.43207204807E+02  0.76982876378E+02  0.47000000000E+01 0. -1.
        -13    1    4    4    0    0  0.13276881265E+02  0.11698023857E+02  0.72010319893E+01  0.19104297946E+02  0.00000000000E+00 0.  1.
         14    1    4    4    0    0  0.48931197031E+02 -0.41482326599E+02  0.27463065800E+03  0.28202312632E+03  0.00000000000E+00 0. -1.
         -5    1    5    5    0  502 -0.21360332259E+02  0.29459151327E+02  0.29959634523E+03  0.30183466578E+03  0.47000000000E+01 0.  1.
         11    1    6    6    0    0  0.32298105657E+02 -0.73465443638E+00  0.90562053809E+02  0.96151926326E+02  0.00000000000E+00 0. -1.
        -12    1    6    6    0    0 -0.36155946118E+02  0.52723696469E+02  0.44964990633E+02  0.78159394775E+02  0.00000000000E+00 0.  1.
<mgrwt>
<rscale>  2 0.19330351E+03</rscale>
<asrwt>0</asrwt>
<pdfrwt beam="1">  1       21 0.12418603E+00 0.19334590E+03</pdfrwt>
<pdfrwt beam="2">  1       21 0.72380008E-02 0.19334590E+03</pdfrwt>
<totfact> 0.69206955E+04</totfact>
</mgrwt>
</event>
<event>
12    1  0.1026879E-001  0.2546997E+03  0.7546771E-02  0.1110549E+00
         21   -1    0    0  501  502  0.00000000000E+00  0.00000000000E+00  0.48102233959E+02  0.48102233959E+02  0.00000000000E+00 0.  1.
         21   -1    0    0  502  503 -0.00000000000E+00 -0.00000000000E+00 -0.13433053405E+04  0.13433053405E+04  0.00000000000E+00 0. -1.
         -6    2    1    2    0  503 -0.15930390214E+03  0.94974475470E+02 -0.66302648013E+03  0.70985111347E+03  0.17287742973E+03 0.  0.
        -24    2    3    3    0    0 -0.18413517693E+03  0.10409907974E+03 -0.60145609261E+03  0.64267334014E+03  0.80853008595E+02 0.  0.
          6    2    1    2  501    0  0.15930390214E+03 -0.94974475470E+02 -0.63217662641E+03  0.68155646099E+03  0.17456814803E+03 0.  0.
         24    2    5    5    0    0  0.16085296289E+03 -0.10106571350E+03 -0.40673812189E+03  0.45598139125E+03  0.79969839618E+02 0.  0.
          5    1    5    5  501    0 -0.15490607454E+01  0.60912380267E+01 -0.22543850452E+03  0.22557506974E+03  0.47000000000E+01 0. -1.
        -13    1    6    6    0    0  0.69773353630E+02  0.36189296518E+00 -0.14075159841E+03  0.15709699010E+03  0.00000000000E+00 0.  1.
         14    1    6    6    0    0  0.91079609259E+02 -0.10142760646E+03 -0.26598652348E+03  0.29888440115E+03  0.00000000000E+00 0. -1.
         -5    1    3    3    0  503  0.24831274787E+02 -0.91246042689E+01 -0.61570387521E+02  0.67177773333E+02  0.47000000000E+01 0.  1.
         11    1    4    4    0    0 -0.36359013029E+02  0.63119277693E+02 -0.17969274716E+03  0.19389560188E+03  0.00000000000E+00 0. -1.
        -12    1    4    4    0    0 -0.14777616390E+03  0.40979802046E+02 -0.42176334545E+03  0.44877773826E+03  0.00000000000E+00 0.  1.
<mgrwt>
<rscale>  2 0.25441023E+03</rscale>
<asrwt>0</asrwt>
<pdfrwt beam="1">  1       21 0.74003434E-02 0.25469967E+03</pdfrwt>
<pdfrwt beam="2">  1       21 0.20666237E+00 0.25469967E+03</pdfrwt>
<totfact> 0.16007889E+04</totfact>
</mgrwt>
</event>
<event>
12    1  0.1026879E-001  0.2383684E+03  0.7546771E-02  0.1121529E+00
         21   -1    0    0  503  502  0.00000000000E+00  0.00000000000E+00  0.45031612593E+03  0.45031612593E+03  0.00000000000E+00 0. -1.
         21   -1    0    0  501  503 -0.00000000000E+00 -0.00000000000E+00 -0.13775950464E+03  0.13775950464E+03  0.00000000000E+00 0. -1.
          6    2    1    2  501    0  0.15401749725E+03  0.59283104170E+02  0.62798300685E+02  0.24282394086E+03  0.16668522367E+03 0.  0.
         24    2    3    3    0    0  0.88889257523E+01  0.38013406179E+01  0.23628574926E+02  0.82521458763E+02  0.78473042581E+02 0.  0.
         -6    2    1    2    0  502 -0.15401749725E+03 -0.59283104170E+02  0.24975832061E+03  0.34525168971E+03  0.17199893791E+03 0.  0.
        -24    2    5    5    0    0 -0.10863207640E+03 -0.74901612940E+02  0.89714990885E+02  0.17809986762E+03  0.79117656768E+02 0.  0.
          5    1    3    3  501    0  0.14512857149E+03  0.55481763552E+02  0.39169725759E+02  0.16030248210E+03  0.47000000000E+01 0. -1.
        -11    1    4    4    0    0  0.28594743291E+02 -0.24030087787E+02 -0.53980868922E+01  0.37739154800E+02  0.00000000000E+00 0.  1.
         12    1    4    4    0    0 -0.19705817539E+02  0.27831428405E+02  0.29026661818E+02  0.44782303963E+02  0.00000000000E+00 0. -1.
         -5    1    5    5    0  502 -0.45385420842E+02  0.15618508770E+02  0.16004332972E+03  0.16715182209E+03  0.47000000000E+01 0.  1.
         11    1    6    6    0    0 -0.80862888761E+02 -0.28832839971E+02  0.16779388491E+02  0.87473923644E+02  0.00000000000E+00 0. -1.
        -12    1    6    6    0    0 -0.27769187642E+02 -0.46068772968E+02  0.72935602394E+02  0.90625943977E+02  0.00000000000E+00 0.  1.
<mgrwt>
<rscale>  2 0.23741135E+03</rscale>
<asrwt>0</asrwt>
<pdfrwt beam="1">  1       21 0.69279404E-01 0.23836843E+03</pdfrwt>
<pdfrwt beam="2">  1       21 0.21193770E-01 0.23836843E+03</pdfrwt>
<totfact> 0.38383112E+04</totfact>
</mgrwt>
</event>
<event>
12    1  0.1026879E-001  0.1885513E+03  0.7546771E-02  0.1161013E+00
         21   -1    0    0  501  502  0.00000000000E+00  0.00000000000E+00  0.19217842696E+04  0.19217842696E+04  0.00000000000E+00 0. -1.
         21   -1    0    0  502  503 -0.00000000000E+00 -0.00000000000E+00 -0.31189233860E+02  0.31189233860E+02  0.00000000000E+00 0. -1.
         -6    2    1    2    0  503 -0.71280304166E+01 -0.59606266244E+02  0.30194582382E+03  0.35317417369E+03  0.17308090782E+03 0.  0.
        -24    2    3    3    0    0 -0.36560078632E+02 -0.43393522667E+02  0.75122153413E+02  0.12382691303E+03  0.80437113940E+02 0.  0.
          6    2    1    2  501    0  0.71280304166E+01  0.59606266244E+02  0.15886492119E+04  0.15997993297E+04  0.17873964638E+03 0.  0.
         24    2    5    5    0    0  0.73528139285E+02  0.22572545691E+02  0.94613783934E+03  0.95278818240E+03  0.81930473018E+02 0.  0.
          5    1    5    5  501    0 -0.66400108869E+02  0.37033720553E+02  0.64251137254E+03  0.64701114732E+03  0.47000000000E+01 0. -1.
        -13    1    6    6    0    0  0.79807528393E+02 -0.33402329079E+01  0.81891612836E+03  0.82280254256E+03  0.00000000000E+00 0.  1.
         14    1    6    6    0    0 -0.62793891080E+01  0.25912778599E+02  0.12722171098E+03  0.12998563985E+03  0.00000000000E+00 0. -1.
         -5    1    3    3    0  503  0.29432048216E+02 -0.16212743577E+02  0.22682367040E+03  0.22934726066E+03  0.47000000000E+01 0.  1.
         11    1    4    4    0    0 -0.31207718147E+02  0.15840634750E+02  0.11751903370E+02  0.36918215206E+02  0.00000000000E+00 0. -1.
        -12    1    4    4    0    0 -0.53523604858E+01 -0.59234157416E+02  0.63370250043E+02  0.86908697828E+02  0.00000000000E+00 0.  1.
<mgrwt>
<rscale>  2 0.18719790E+03</rscale>
<asrwt>0</asrwt>
<pdfrwt beam="1">  1       21 0.29565902E+00 0.18855126E+03</pdfrwt>
<pdfrwt beam="2">  1       21 0.47983452E-02 0.18855126E+03</pdfrwt>
<totfact> 0.10474094E+04</totfact>
</mgrwt>
</event>
<event>
12    1  0.1026879E-001  0.2072069E+03  0.7546771E-02  0.1143991E+00
         21   -1    0    0  503  502  0.00000000000E+00  0.00000000000E+00  0.10942416524E+03  0.10942416524E+03  0.00000000000E+00 0. -1.
         21   -1    0    0  501  503 -0.00000000000E+00 -0.00000000000E+00 -0.54629402432E+03  0.54629402432E+03  0.00000000000E+00 0. -1.
          6    2    1    2  501    0 -0.67498522087E+02 -0.91550280428E+02 -0.39385017504E+03  0.44503107303E+03  0.17319697240E+03 0.  0.
         24    2    3    3    0    0 -0.98186045272E+01 -0.79647160807E+02 -0.12277468997E+03  0.16759159178E+03  0.81075532186E+02 0.  0.
         -6    2    1    2    0  502  0.67498522087E+02  0.91550280428E+02 -0.43019684040E+02  0.21068711653E+03  0.17204901489E+03 0.  0.
        -24    2    5    5    0    0  0.10015268364E+03  0.57029846632E+02 -0.36656052571E+00  0.14666107837E+03  0.90699361044E+02 0.  0.
          5    1    3    3  501    0 -0.57679917560E+02 -0.11903119621E+02 -0.27107548508E+03  0.27743948125E+03  0.47000000000E+01 0. -1.
        -11    1    4    4    0    0 -0.30826632023E+01  0.12972237964E+02  0.39210689368E+00  0.13339247281E+02  0.00000000000E+00 0.  1.
         12    1    4    4    0    0 -0.67359413249E+01 -0.92619398771E+02 -0.12316679686E+03  0.15425234450E+03  0.00000000000E+00 0. -1.
         -5    1    5    5    0  502 -0.32654161558E+02  0.34520433796E+02 -0.42653123514E+02  0.64026038157E+02  0.47000000000E+01 0.  1.
         13    1    6    6    0    0  0.28094670884E+02  0.65065339286E+02 -0.15611946595E+02  0.72570943118E+02  0.00000000000E+00 0. -1.
        -14    1    6    6    0    0  0.72058012761E+02 -0.80354926540E+01  0.15245386070E+02  0.74090135252E+02  0.00000000000E+00 0.  1.
<mgrwt>
<rscale>  2 0.20696683E+03</rscale>
<asrwt>0</asrwt>
<pdfrwt beam="1">  1       21 0.16834487E-01 0.20720689E+03</pdfrwt>
<pdfrwt beam="2">  1       21 0.84045235E-01 0.20720689E+03</pdfrwt>
<totfact> 0.38756183E+04</totfact>
</mgrwt>
</event>
<event>
12    1  0.1026879E-001  0.2864976E+03  0.7546771E-02  0.1092442E+00
         21   -1    0    0  501  502  0.00000000000E+00  0.00000000000E+00  0.90431290177E+02  0.90431290177E+02  0.00000000000E+00 0.  1.
         21   -1    0    0  502  503 -0.00000000000E+00 -0.00000000000E+00 -0.17080676645E+04  0.17080676645E+04  0.00000000000E+00 0. -1.
         -6    2    1    2    0  503  0.11133292800E+03 -0.19899514521E+03 -0.14252722755E+04  0.14534122856E+04  0.17032945720E+03 0.  0.
        -24    2    3    3    0    0  0.10426133395E+03 -0.21617601198E+03 -0.11515861257E+04  0.11790559694E+04  0.80124155427E+02 0.  0.
          6    2    1    2  501    0 -0.11133292800E+03  0.19899514521E+03 -0.19236409885E+03  0.34508666909E+03  0.17345539479E+03 0.  0.
         24    2    5    5    0    0 -0.14817331040E+03  0.16146429569E+03 -0.15310420124E+03  0.27928995184E+03  0.80845111576E+02 0.  0.
          5    1    5    5  501    0  0.36840382393E+02  0.37530849516E+02 -0.39259897610E+02  0.65796717248E+02  0.47000000000E+01 0. -1.
        -13    1    6    6    0    0 -0.65998695714E+02  0.11346533459E+03 -0.12190650680E+03  0.17914074464E+03  0.00000000000E+00 0.  1.
         14    1    6    6    0    0 -0.82174614682E+02  0.47998961100E+02 -0.31197694440E+02  0.10014920720E+03  0.00000000000E+00 0. -1.
         -5    1    3    3    0  503  0.70715940492E+01  0.17180866769E+02 -0.27368614981E+03  0.27435631617E+03  0.47000000000E+01 0.  1.
         11    1    4    4    0    0  0.49582383623E+02 -0.48517696261E+02 -0.21192798344E+03  0.22299293662E+03  0.00000000000E+00 0. -1.
        -12    1    4    4    0    0  0.54678950331E+02 -0.16765831572E+03 -0.93965814221E+03  0.95606303278E+03  0.00000000000E+00 0.  1.
<mgrwt>
<rscale>  2 0.28602600E+03</rscale>
<asrwt>0</asrwt>
<pdfrwt beam="1">  1       21 0.13912507E-01 0.28649758E+03</pdfrwt>
<pdfrwt beam="2">  1       21 0.26277963E+00 0.28649758E+03</pdfrwt>
<totfact> 0.23026710E+03</totfact>
</mgrwt>
</event>
<event>
12    1  0.1026879E-001  0.1736509E+03  0.7546771E-02  0.1174118E+00
         21   -1    0    0  503  502  0.00000000000E+00  0.00000000000E+00  0.13218036489E+03  0.13218036489E+03  0.00000000000E+00 0. -1.
         21   -1    0    0  501  503 -0.00000000000E+00 -0.00000000000E+00 -0.48478183039E+03  0.48478183039E+03  0.00000000000E+00 0. -1.
          6    2    1    2  501    0 -0.11431850833E+02  0.12294205293E+02 -0.40078639478E+03  0.43675003430E+03  0.17273975663E+03 0.  0.
         24    2    3    3    0    0 -0.85395915569E+01  0.74824221905E+02 -0.27787929558E+03  0.29874056660E+03  0.79733521245E+02 0.  0.
         -6    2    1    2    0  502  0.11431850833E+02 -0.12294205293E+02  0.48184929284E+02  0.18021216099E+03  0.17283749842E+03 0.  0.
        -24    2    5    5    0    0 -0.54633289792E+02  0.15861171651E+02  0.46288067812E+02  0.10821899367E+03  0.79576329713E+02 0.  0.
          5    1    3    3  501    0 -0.28922592763E+01 -0.62530016612E+02 -0.12290709920E+03  0.13800946770E+03  0.47000000000E+01 0. -1.
        -13    1    4    4    0    0 -0.35012467643E+02  0.71619333272E+02 -0.17234537527E+03  0.18988978426E+03  0.00000000000E+00 0.  1.
         14    1    4    4    0    0  0.26472876086E+02  0.32048886332E+01 -0.10553392031E+03  0.10885078233E+03  0.00000000000E+00 0. -1.
         -5    1    5    5    0  502  0.66065140625E+02 -0.28155376944E+02  0.18968614726E+01  0.71993167315E+02  0.47000000000E+01 0.  1.
         11    1    6    6    0    0  0.18258400722E-02 -0.27225505159E+02  0.20231286451E+02  0.33919508928E+02  0.00000000000E+00 0. -1.
        -12    1    6    6    0    0 -0.54635115632E+02  0.43086676810E+02  0.26056781361E+02  0.74299484746E+02  0.00000000000E+00 0.  1.
<mgrwt>
<rscale>  2 0.17362658E+03</rscale>
<asrwt>0</asrwt>
<pdfrwt beam="1">  1       21 0.20335441E-01 0.17365090E+03</pdfrwt>
<pdfrwt beam="2">  1       21 0.74581818E-01 0.17365090E+03</pdfrwt>
<totfact> 0.36388266E+04</totfact>
</mgrwt>
</event>
<event>
12    1  0.1026879E-001  0.3419530E+03  0.7546771E-02  0.1066057E+00
         21   -1    0    0  503  502  0.00000000000E+00  0.00000000000E+00  0.11629801668E+03  0.11629801668E+03  0.00000000000E+00 0. -1.
         21   -1    0    0  501  503 -0.00000000000E+00 -0.00000000000E+00 -0.10503637782E+04  0.10503637782E+04  0.00000000000E+00 0.  1.
          6    2    1    2  501    0 -0.18344034353E+03 -0.23278238307E+03 -0.59152569636E+03  0.68325285974E+03  0.17056911615E+03 0.  0.
         24    2    3    3    0    0 -0.61871064712E+02 -0.17841194515E+03 -0.30971699900E+03  0.37152627124E+03  0.80301307137E+02 0.  0.
         -6    2    1    2    0  502  0.18344034353E+03  0.23278238307E+03 -0.34254006513E+03  0.48340893511E+03  0.16885646220E+03 0.  0.
        -24    2    5    5    0    0  0.19765160229E+03  0.19920471319E+03 -0.33639405898E+03  0.44613584587E+03  0.84424856581E+02 0.  0.
          5    1    3    3  501    0 -0.12156927882E+03 -0.54370437921E+02 -0.28180869736E+03  0.31172658850E+03  0.47000000000E+01 0. -1.
        -11    1    4    4    0    0 -0.16062799497E+02 -0.10483584005E+02 -0.85767344883E+02  0.87886042746E+02  0.00000000000E+00 0.  1.
         12    1    4    4    0    0 -0.45808265215E+02 -0.16792836114E+03 -0.22394965412E+03  0.28364022849E+03  0.00000000000E+00 0. -1.
         -5    1    5    5    0  502 -0.14211258759E+02  0.33577669881E+02 -0.61460061498E+01  0.37273089244E+02  0.47000000000E+01 0.  1.
         11    1    6    6    0    0 -0.16018184918E+01  0.21487966838E+01  0.42555197166E+01  0.50291746567E+01  0.00000000000E+00 0. -1.
        -12    1    6    6    0    0  0.19925342078E+03  0.19705591650E+03 -0.34064957870E+03  0.44110667121E+03  0.00000000000E+00 0.  1.
<mgrwt>
<rscale>  2 0.34173999E+03</rscale>
<asrwt>0</asrwt>
<pdfrwt beam="1">  1       21 0.17892003E-01 0.34195295E+03</pdfrwt>
<pdfrwt beam="2">  1       21 0.16159442E+00 0.34195295E+03</pdfrwt>
<totfact> 0.63374674E+03</totfact>
</mgrwt>
</event>
<event>
12    1  0.1026879E-001  0.2254753E+03  0.7546771E-02  0.1129944E+00
         21   -1    0    0  501  502  0.00000000000E+00  0.00000000000E+00  0.57290048518E+03  0.57290048518E+03  0.00000000000E+00 0. -1.
         21   -1    0    0  502  503 -0.00000000000E+00 -0.00000000000E+00 -0.14711838233E+03  0.14711838233E+03  0.00000000000E+00 0.  1.
         -6    2    1    2    0  503  0.14401251575E+03  0.15267413115E+02 -0.14098366782E+02  0.22591564688E+03  0.17281902952E+03 0.  0.
        -24    2    3    3    0    0  0.58476977451E+02 -0.49007198658E+02  0.20415986547E+02  0.11339505047E+03  0.81365610382E+02 0.  0.
          6    2    1    2  501    0 -0.14401251575E+03 -0.15267413115E+02  0.43988046963E+03  0.49410322063E+03  0.17225117266E+03 0.  0.
         24    2    5    5    0    0 -0.86559741004E+02  0.39555059715E+02  0.15326921303E+03  0.19665670903E+03  0.78263772160E+02 0.  0.
          5    1    5    5  501    0 -0.57452774743E+02 -0.54822472830E+02  0.28661125660E+03  0.29744651160E+03  0.47000000000E+01 0. -1.
        -11    1    6    6    0    0  0.11814893757E+02  0.17091507799E+02  0.15673996521E+02  0.26026630982E+02  0.00000000000E+00 0.  1.
         12    1    6    6    0    0 -0.98374634761E+02  0.22463551916E+02  0.13759521651E+03  0.17063007805E+03  0.00000000000E+00 0. -1.
         -5    1    3    3    0  503  0.85535538296E+02  0.64274611773E+02 -0.34514353329E+02  0.11252059641E+03  0.47000000000E+01 0.  1.
         13    1    4    4    0    0 -0.52149082949E+01 -0.47547776697E+02  0.89278011747E+01  0.48658935162E+02  0.00000000000E+00 0. -1.
        -14    1    4    4    0    0  0.63691885746E+02 -0.14594219614E+01  0.11488185373E+02  0.64736115310E+02  0.00000000000E+00 0.  1.
<mgrwt>
<rscale>  2 0.22536649E+03</rscale>
<asrwt>0</asrwt>
<pdfrwt beam="1">  1       21 0.88138535E-01 0.22547531E+03</pdfrwt>
<pdfrwt beam="2">  1       21 0.22633598E-01 0.22547531E+03</pdfrwt>
<totfact> 0.19785519E+04</totfact>
</mgrwt>
</event>
<event>
12    1  0.1026879E-001  0.2334579E+03  0.7546771E-02  0.1128004E+00
         21   -1    0    0  503  502  0.00000000000E+00  0.00000000000E+00  0.12213188798E+03  0.12213188798E+03  0.00000000000E+00 0. -1.
         21   -1    0    0  501  503 -0.00000000000E+00 -0.00000000000E+00 -0.50781726153E+03  0.50781726153E+03  0.00000000000E+00 0. -1.
          6    2    1    2  501    0  0.97966245301E+02  0.84907884010E+02 -0.32559020302E+03  0.38888062080E+03  0.16855984974E+03 0.  0.
         24    2    3    3    0    0  0.10351406217E+03  0.41501091974E+02 -0.31516259153E+03  0.34365062027E+03  0.79566249162E+02 0.  0.
         -6    2    1    2    0  502 -0.97966245301E+02 -0.84907884010E+02 -0.60095170524E+02  0.24106852871E+03  0.19415424803E+03 0.  0.
        -24    2    5    5    0    0 -0.51489169624E+01 -0.10129411989E+03 -0.22061928342E+01  0.13035814571E+03  0.81861888549E+02 0.  0.
          5    1    3    3  501    0 -0.55478168697E+01  0.43406792035E+02 -0.10427611489E+02  0.45230000533E+02  0.47000000000E+01 0. -1.
        -11    1    4    4    0    0 -0.78524230477E-01 -0.12021935105E+01 -0.10899614372E+03  0.10900280171E+03  0.00000000000E+00 0.  1.
         12    1    4    4    0    0  0.10359258640E+03  0.42703285485E+02 -0.20616644781E+03  0.23464781855E+03  0.00000000000E+00 0. -1.
         -5    1    5    5    0  502 -0.92817328339E+02  0.16386235879E+02 -0.57888977690E+02  0.11071038300E+03  0.47000000000E+01 0.  1.
         11    1    6    6    0    0 -0.30232992762E+02 -0.10048282207E+03  0.17728373321E+01  0.10494748370E+03  0.00000000000E+00 0. -1.
        -12    1    6    6    0    0  0.25084075799E+02 -0.81129781755E+00 -0.39790301663E+01  0.25410662012E+02  0.00000000000E+00 0.  1.
<mgrwt>
<rscale>  2 0.22807190E+03</rscale>
<asrwt>0</asrwt>
<pdfrwt beam="1">  1       21 0.18789522E-01 0.23345793E+03</pdfrwt>
<pdfrwt beam="2">  1       21 0.78125731E-01 0.23345793E+03</pdfrwt>
<totfact> 0.36853651E+04</totfact>
</mgrwt>
</event>
<event>
12    1  0.1026879E-001  0.2475309E+03  0.7546771E-02  0.1115011E+00
         21   -1    0    0  503  502  0.00000000000E+00  0.00000000000E+00  0.51013587005E+03  0.51013587005E+03  0.00000000000E+00 0. -1.
         21   -1    0    0  501  503 -0.00000000000E+00 -0.00000000000E+00 -0.13455385818E+03  0.13455385818E+03  0.00000000000E+00 0.  1.
          6    2    1    2  501    0  0.13268792218E+03 -0.11283289711E+03  0.80969259684E+02  0.26043728351E+03  0.17588123909E+03 0.  0.
         24    2    3    3    0    0 -0.73267604619E+01 -0.24900677397E+02  0.22613935548E+02  0.85041672177E+02  0.77762270877E+02 0.  0.
         -6    2    1    2    0  502 -0.13268792218E+03  0.11283289711E+03  0.29461275218E+03  0.38425244473E+03  0.17468806533E+03 0.  0.
        -24    2    5    5    0    0 -0.13336536781E+03  0.10369815866E+03  0.31191072337E+03  0.36412256181E+03  0.82202866251E+02 0.  0.
          5    1    3    3  501    0  0.14001468264E+03 -0.87932219718E+02  0.58355324136E+02  0.17539561133E+03  0.47000000000E+01 0. -1.
        -11    1    4    4    0    0  0.12226531883E+02 -0.48574789392E+02  0.69427302607E+01  0.50568762589E+02  0.00000000000E+00 0.  1.
         12    1    4    4    0    0 -0.19553292345E+02  0.23674111995E+02  0.15671205287E+02  0.34472909587E+02  0.00000000000E+00 0. -1.
         -5    1    5    5    0  502  0.67744563436E+00  0.91347384558E+01 -0.17297971190E+02  0.20129882924E+02  0.47000000000E+01 0.  1.
         13    1    6    6    0    0 -0.10145994097E+03  0.11479507282E+03  0.24096701750E+03  0.28554707473E+03  0.00000000000E+00 0. -1.
        -14    1    6    6    0    0 -0.31905426838E+02 -0.11096914160E+02  0.70943705874E+02  0.78575487073E+02  0.00000000000E+00 0.  1.
<mgrwt>
<rscale>  2 0.24731906E+03</rscale>
<asrwt>0</asrwt>
<pdfrwt beam="1">  1       21 0.78482440E-01 0.24753092E+03</pdfrwt>
<pdfrwt beam="2">  1       21 0.20700594E-01 0.24753092E+03</pdfrwt>
<totfact> 0.30222508E+04</totfact>
</mgrwt>
</event>
<event>
12    1  0.1026879E-001  0.1950380E+03  0.7546771E-02  0.1154330E+00
         21   -1    0    0  501  502  0.00000000000E+00  0.00000000000E+00  0.34718664788E+02  0.34718664788E+02  0.00000000000E+00 0.  1.
         21   -1    0    0  502  503 -0.00000000000E+00 -0.00000000000E+00 -0.13464710008E+04  0.13464710008E+04  0.00000000000E+00 0. -1.
         -6    2    1    2    0  503 -0.87145835322E+02 -0.80808641635E+01 -0.96109427416E+03  0.98068446212E+03  0.17429891980E+03 0.  0.
        -24    2    3    3    0    0 -0.11385728405E+03  0.13845028289E+02 -0.89757726788E+03  0.90822242834E+03  0.77896479912E+02 0.  0.
          6    2    1    2  501    0  0.87145835322E+02  0.80808641635E+01 -0.35065806183E+03  0.40050520345E+03  0.17257938660E+03 0.  0.
         24    2    5    5    0    0  0.11947195162E+03  0.12342873989E+02 -0.20299724286E+03  0.24921425863E+03  0.80460998849E+02 0.  0.
          5    1    5    5  501    0 -0.32326116298E+02 -0.42620098256E+01 -0.14766081897E+03  0.15129094481E+03  0.47000000000E+01 0. -1.
        -11    1    6    6    0    0  0.17434090462E+02 -0.21509071150E+02 -0.85894175611E+02  0.90246313253E+02  0.00000000000E+00 0.  1.
         12    1    6    6    0    0  0.10203786116E+03  0.33851945139E+02 -0.11710306725E+03  0.15896794538E+03  0.00000000000E+00 0. -1.
         -5    1    3    3    0  503  0.26711448731E+02 -0.21925892453E+02 -0.63517006285E+02  0.72462033788E+02  0.47000000000E+01 0.  1.
         11    1    4    4    0    0 -0.14508056876E+02 -0.84469463731E+01 -0.39908034455E+03  0.39943329358E+03  0.00000000000E+00 0. -1.
        -12    1    4    4    0    0 -0.99349227177E+02  0.22291974662E+02 -0.49849692333E+03  0.50878913475E+03  0.00000000000E+00 0.  1.
<mgrwt>
<rscale>  2 0.19465305E+03</rscale>
<asrwt>0</asrwt>
<pdfrwt beam="1">  1       21 0.53413325E-02 0.19503797E+03</pdfrwt>
<pdfrwt beam="2">  1       21 0.20714941E+00 0.19503797E+03</pdfrwt>
<totfact> 0.29026000E+04</totfact>
</mgrwt>
</event>
<event>
12    1  0.1026879E-001  0.1846935E+03  0.7546771E-02  0.1163549E+00
         21   -1    0    0  501  502  0.00000000000E+00  0.00000000000E+00  0.39158177490E+02  0.39158177490E+02  0.00000000000E+00 0. -1.
         21   -1    0    0  502  503 -0.00000000000E+00 -0.00000000000E+00 -0.17188357825E+04  0.17188357825E+04  0.00000000000E+00 0. -1.
         -6    2    1    2    0  503 -0.49480999164E+02  0.40381419861E+02 -0.14597247147E+04  0.14713626121E+04  0.17329935228E+03 0.  0.
        -24    2    3    3    0    0  0.32796764390E+02  0.44590989212E+02 -0.94903000295E+03  0.95404401649E+03  0.80486364224E+02 0.  0.
          6    2    1    2  501    0  0.49480999164E+02 -0.40381419861E+02 -0.21995289034E+03  0.28663134783E+03  0.17233463738E+03 0.  0.
         24    2    5    5    0    0  0.58263940893E+02  0.32188469186E+02 -0.93494087992E+02  0.14048947309E+03  0.81026928868E+02 0.  0.
          5    1    5    5  501    0 -0.87829417293E+01 -0.72569889047E+02 -0.12645880235E+03  0.14614187474E+03  0.47000000000E+01 0. -1.
        -13    1    6    6    0    0  0.53361439527E+02  0.45241379591E+02 -0.10234765766E+03  0.12397285462E+03  0.00000000000E+00 0.  1.
         14    1    6    6    0    0  0.49025013666E+01 -0.13052910405E+02  0.88535696636E+01  0.16516618464E+02  0.00000000000E+00 0. -1.
         -5    1    3    3    0  503 -0.82277763554E+02 -0.42095693509E+01 -0.51069471171E+03  0.51731859566E+03  0.47000000000E+01 0.  1.
         13    1    4    4    0    0  0.59797309292E+01  0.33898258415E+02 -0.85474881968E+03  0.85544163673E+03  0.00000000000E+00 0. -1.
        -14    1    4    4    0    0  0.26817033461E+02  0.10692730797E+02 -0.94281183270E+02  0.98602379760E+02  0.00000000000E+00 0.  1.
<mgrwt>
<rscale>  2 0.18446687E+03</rscale>
<asrwt>0</asrwt>
<pdfrwt beam="1">  1       21 0.60243343E-02 0.18469351E+03</pdfrwt>
<pdfrwt beam="2">  1       21 0.26443631E+00 0.18469351E+03</pdfrwt>
<totfact> 0.10807872E+04</totfact>
</mgrwt>
</event>
<event>
12    1  0.1026879E-001  0.1970330E+03  0.7546771E-02  0.1152451E+00
         21   -1    0    0  501  502  0.00000000000E+00  0.00000000000E+00  0.46726579992E+03  0.46726579992E+03  0.00000000000E+00 0. -1.
         21   -1    0    0  502  503 -0.00000000000E+00 -0.00000000000E+00 -0.13534213840E+03  0.13534213840E+03  0.00000000000E+00 0. -1.
         -6    2    1    2    0  503  0.68545140945E+02  0.64342429170E+02 -0.21688846873E+02  0.19822312990E+03  0.17315778530E+03 0.  0.
        -24    2    3    3    0    0  0.69689293557E+01  0.14379666349E+02  0.45763937555E+02  0.94012402861E+02  0.80552176448E+02 0.  0.
          6    2    1    2  501    0 -0.68545140945E+02 -0.64342429170E+02  0.35361250840E+03  0.40438480843E+03  0.17218270137E+03 0.  0.
         24    2    5    5    0    0  0.26635629596E+02 -0.38387095508E+02  0.16042872473E+03  0.18741678614E+03  0.84880210534E+02 0.  0.
          5    1    5    5  501    0 -0.95180770541E+02 -0.25955333662E+02  0.19318378366E+03  0.21696802229E+03  0.47000000000E+01 0. -1.
        -11    1    6    6    0    0 -0.30987986940E-01 -0.55853893743E+02  0.59655292635E+02  0.81721553742E+02  0.00000000000E+00 0.  1.
         12    1    6    6    0    0  0.26666617583E+02  0.17466798235E+02  0.10077343210E+03  0.10569523239E+03  0.00000000000E+00 0. -1.
         -5    1    3    3    0  503  0.61576211589E+02  0.49962762822E+02 -0.67452784428E+02  0.10421072704E+03  0.47000000000E+01 0.  1.
         11    1    4    4    0    0 -0.32889956603E+01  0.10642852090E+02 -0.22380225861E+02  0.24999246042E+02  0.00000000000E+00 0. -1.
        -12    1    4    4    0    0  0.10257925016E+02  0.37368142585E+01  0.68144163416E+02  0.69013156819E+02  0.00000000000E+00 0.  1.
<mgrwt>
<rscale>  2 0.19681856E+03</rscale>
<asrwt>0</asrwt>
<pdfrwt beam="1">  1       21 0.71887045E-01 0.19703300E+03</pdfrwt>
<pdfrwt beam="2">  1       21 0.20821868E-01 0.19703300E+03</pdfrwt>
<totfact> 0.37314829E+04</totfact>
</mgrwt>
</event>
<event>
12    1  0.1026879E-001  0.2370459E+03  0.7546771E-02  0.1121789E+00
         21   -1    0    0  501  502  0.00000000000E+00  0.00000000000E+00  0.10092132009E+03  0.10092132009E+03  0.00000000000E+00 0. -1.
         21   -1    0    0  502  503 -0.00000000000E+00 -0.00000000000E+00 -0.59935603323E+03  0.59935603323E+03  0.00000000000E+00 0.  1.
         -6    2    1    2    0  503  0.10462943913E+03 -0.12282043363E+03 -0.34277035135E+03  0.41675207990E+03  0.17366232721E+03 0.  0.
        -24    2    3    3    0    0 -0.14182964003E+02 -0.61211097153E+02 -0.13402097027E+03  0.16873899239E+03  0.81014024696E+02 0.  0.
          6    2    1    2  501    0 -0.10462943913E+03  0.12282043363E+03 -0.15566436179E+03  0.28352527342E+03  0.17355981300E+03 0.  0.
         24    2    5    5    0    0 -0.13874267125E+03  0.79021615931E+02 -0.13563979943E+03  0.22432120147E+03  0.80174195541E+02 0.  0.
          5    1    5    5  501    0  0.34113232123E+02  0.43798817694E+02 -0.20024562357E+02  0.59204071945E+02  0.47000000000E+01 0. -1.
        -11    1    6    6    0    0 -0.84704300023E+02  0.34844635408E+01 -0.52838592711E+02  0.99894328208E+02  0.00000000000E+00 0.  1.
         12    1    6    6    0    0 -0.54038371228E+02  0.75537152390E+02 -0.82801206721E+02  0.12442687327E+03  0.00000000000E+00 0. -1.
         -5    1    3    3    0  503  0.11881240313E+03 -0.61609336472E+02 -0.20874938107E+03  0.24801308751E+03  0.47000000000E+01 0.  1.
         13    1    4    4    0    0 -0.26262858596E+01 -0.79796682948E+02 -0.11326523660E+03  0.13857641144E+03  0.00000000000E+00 0. -1.
        -14    1    4    4    0    0 -0.11556678143E+02  0.18585585794E+02 -0.20755733674E+02  0.30162580946E+02  0.00000000000E+00 0.  1.
<mgrwt>
<rscale>  2 0.23702717E+03</rscale>
<asrwt>0</asrwt>
<pdfrwt beam="1">  1       21 0.15526357E-01 0.23704595E+03</pdfrwt>
<pdfrwt beam="2">  1       21 0.92208622E-01 0.23704595E+03</pdfrwt>
<totfact> 0.35761605E+04</totfact>
</mgrwt>
</event>
<event>
12    1  0.1026879E-001  0.1871432E+03  0.7546771E-02  0.1162315E+00
         21   -1    0    0  503  502  0.00000000000E+00  0.00000000000E+00  0.21240870982E+02  0.21240870982E+02  0.00000000000E+00 0. -1.
         21   -1    0    0  501  503 -0.00000000000E+00 -0.00000000000E+00 -0.18144921884E+04  0.18144921884E+04  0.00000000000E+00 0. -1.
          6    2    1    2  501    0  0.48710352468E+02  0.22255451851E+02 -0.11992350558E+04  0.12129346102E+04  0.17371714307E+03 0.  0.
         24    2    3    3    0    0  0.21362335980E+02  0.25776661775E+02 -0.28194091617E+03  0.29521409628E+03  0.80869628051E+02 0.  0.
         -6    2    1    2    0  502 -0.48710352468E+02 -0.22255451851E+02 -0.59401626156E+03  0.62279844920E+03  0.17931699796E+03 0.  0.
        -24    2    5    5    0    0 -0.69451774637E+02  0.41984724402E+01 -0.57298619288E+03  0.58286888005E+03  0.81128157419E+02 0.  0.
          5    1    3    3  501    0  0.27348016488E+02 -0.35212099236E+01 -0.91729413966E+03  0.91772051387E+03  0.47000000000E+01 0. -1.
        -11    1    4    4    0    0  0.17690218618E+02 -0.13517081571E+02 -0.18826234373E+02  0.29156173096E+02  0.00000000000E+00 0.  1.
         12    1    4    4    0    0  0.36721173621E+01  0.39293743345E+02 -0.26311468180E+03  0.26605792319E+03  0.00000000000E+00 0. -1.
         -5    1    5    5    0  502  0.20741422169E+02 -0.26453924292E+02 -0.21030068675E+02  0.39929569150E+02  0.47000000000E+01 0.  1.
         11    1    6    6    0    0 -0.58897898681E+02 -0.28201814155E+02 -0.46689410221E+03  0.47143865716E+03  0.00000000000E+00 0. -1.
        -12    1    6    6    0    0 -0.10553875956E+02  0.32400286595E+02 -0.10609209068E+03  0.11143022289E+03  0.00000000000E+00 0.  1.
<mgrwt>
<rscale>  2 0.18578895E+03</rscale>
<asrwt>0</asrwt>
<pdfrwt beam="1">  1       21 0.32678256E-02 0.18714323E+03</pdfrwt>
<pdfrwt beam="2">  1       21 0.27915271E+00 0.18714323E+03</pdfrwt>
<totfact> 0.24839078E+04</totfact>
</mgrwt>
</event>
<event>
12    1  0.1026879E-001  0.2000514E+03  0.7546771E-02  0.1149880E+00
         21   -1    0    0  503  502  0.00000000000E+00  0.00000000000E+00  0.49902435973E+03  0.49902435973E+03  0.00000000000E+00 0. -1.
         21   -1    0    0  501  503 -0.00000000000E+00 -0.00000000000E+00 -0.25841924131E+03  0.25841924131E+03  0.00000000000E+00 0. -1.
          6    2    1    2  501    0  0.97220568883E+02 -0.21702004718E+02 -0.19443622368E+03  0.27897312113E+03  0.17348700588E+03 0.  0.
         24    2    3    3    0    0  0.83771937713E+02 -0.77937468036E+02 -0.11958785882E+03  0.18427538759E+03  0.81019602707E+02 0.  0.
         -6    2    1    2    0  502 -0.97220568883E+02  0.21702004718E+02  0.43504134210E+03  0.47847047991E+03  0.17248250575E+03 0.  0.
        -24    2    5    5    0    0 -0.11493694203E+03 -0.20966280559E+02  0.25282162755E+03  0.29042642440E+03  0.82332539539E+02 0.  0.
          5    1    3    3  501    0  0.13448631171E+02  0.56235463318E+02 -0.74848364853E+02  0.94697733532E+02  0.47000000000E+01 0. -1.
        -11    1    4    4    0    0 -0.12054660288E+02 -0.11189034996E+01 -0.29719665828E+02  0.32090891490E+02  0.00000000000E+00 0.  1.
         12    1    4    4    0    0  0.95826598001E+02 -0.76818564536E+02 -0.89868192995E+02  0.15218449610E+03  0.00000000000E+00 0. -1.
         -5    1    5    5    0  502  0.17716373144E+02  0.42668285277E+02  0.18221971454E+03  0.18804405551E+03  0.47000000000E+01 0.  1.
         13    1    6    6    0    0 -0.10684676698E+03 -0.44954048742E+01  0.24993169649E+03  0.27184976216E+03  0.00000000000E+00 0. -1.
        -14    1    6    6    0    0 -0.80901750504E+01 -0.16470875685E+02  0.28899310624E+01  0.18576662233E+02  0.00000000000E+00 0.  1.
<mgrwt>
<rscale>  2 0.19983341E+03</rscale>
<asrwt>0</asrwt>
<pdfrwt beam="1">  1       21 0.76772978E-01 0.20005139E+03</pdfrwt>
<pdfrwt beam="2">  1       21 0.39756806E-01 0.20005139E+03</pdfrwt>
<totfact> 0.91538702E+03</totfact>
</mgrwt>
</event>
<event>
12    1  0.1026879E-001  0.2006926E+03  0.7546771E-02  0.1149167E+00
         21   -1    0    0  503  502  0.00000000000E+00  0.00000000000E+00  0.33863070759E+03  0.33863070759E+03  0.00000000000E+00 0. -1.
         21   -1    0    0  501  503 -0.00000000000E+00 -0.00000000000E+00 -0.28446065116E+03  0.28446065116E+03  0.00000000000E+00 0. -1.
          6    2    1    2  501    0  0.65355367347E+02  0.78451494313E+02 -0.21058295510E+03  0.29089981823E+03  0.17277604656E+03 0.  0.
         24    2    3    3    0    0  0.80469206204E-01 -0.13650386222E+02 -0.85878198844E+02  0.12262345341E+03  0.86458699789E+02 0.  0.
         -6    2    1    2    0  502 -0.65355367347E+02 -0.78451494313E+02  0.26475301152E+03  0.33219154052E+03  0.17271682455E+03 0.  0.
        -24    2    5    5    0    0 -0.10843427434E+03 -0.39237920656E+02  0.21537141185E+03  0.25567926064E+03  0.75428330283E+02 0.  0.
          5    1    3    3  501    0  0.65274898141E+02  0.92101880535E+02 -0.12470475625E+03  0.16827636482E+03  0.47000000000E+01 0. -1.
        -13    1    4    4    0    0 -0.35629287064E+02  0.36409546632E+01 -0.72306853804E+02  0.80690667084E+02  0.00000000000E+00 0.  1.
         14    1    4    4    0    0  0.35709756270E+02 -0.17291340885E+02 -0.13571345041E+02  0.41932786322E+02  0.00000000000E+00 0. -1.
         -5    1    5    5    0  502  0.43078906990E+02 -0.39213573657E+02  0.49381599670E+02  0.76512279880E+02  0.47000000000E+01 0.  1.
         11    1    6    6    0    0 -0.41498874077E+02 -0.91163738827E+00  0.14652569089E+03  0.15229171259E+03  0.00000000000E+00 0. -1.
        -12    1    6    6    0    0 -0.66935400260E+02 -0.38326283268E+02  0.68845720963E+02  0.10338754805E+03  0.00000000000E+00 0.  1.
<mgrwt>
<rscale>  2 0.20067986E+03</rscale>
<asrwt>0</asrwt>
<pdfrwt beam="1">  1       21 0.52097031E-01 0.20069261E+03</pdfrwt>
<pdfrwt beam="2">  1       21 0.43763178E-01 0.20069261E+03</pdfrwt>
<totfact> 0.17456365E+04</totfact>
</mgrwt>
</event>
<event>
12    1  0.1026879E-001  0.1810438E+03  0.7546771E-02  0.1167674E+00
         21   -1    0    0  501  502  0.00000000000E+00  0.00000000000E+00  0.99070524528E+03  0.99070524528E+03  0.00000000000E+00 0.  1.
         21   -1    0    0  502  503 -0.00000000000E+00 -0.00000000000E+00 -0.12439626178E+03  0.12439626178E+03  0.00000000000E+00 0.  1.
         -6    2    1    2    0  503  0.22906572515E+02  0.33273836267E+02 -0.45104710063E+02  0.18657785541E+03  0.17647946627E+03 0.  0.
        -24    2    3    3    0    0  0.46397604607E+02  0.73654783400E+02  0.10005913761E+02  0.11417812932E+03  0.73203565991E+02 0.  0.
          6    2    1    2  501    0 -0.22906572515E+02 -0.33273836267E+02  0.91141369356E+03  0.92852365165E+03  0.17276976477E+03 0.  0.
         24    2    5    5    0    0  0.14205379408E+02  0.55799704230E+01  0.24037855546E+03  0.25532445243E+03  0.84710077366E+02 0.  0.
          5    1    5    5  501    0 -0.37111951923E+02 -0.38853806690E+02  0.67103513810E+03  0.67319919922E+03  0.47000000000E+01 0. -1.
        -13    1    6    6    0    0 -0.21034519667E+02 -0.60322372551E+01  0.19713016505E+03  0.19834097125E+03  0.00000000000E+00 0.  1.
         14    1    6    6    0    0  0.35239899074E+02  0.11612207678E+02  0.43248390415E+02  0.56983481181E+02  0.00000000000E+00 0. -1.
         -5    1    3    3    0  503 -0.23491032093E+02 -0.40380947133E+02 -0.55110623825E+02  0.72399726094E+02  0.47000000000E+01 0.  1.
         11    1    4    4    0    0 -0.86796086269E+00 -0.12637297455E+02  0.94230360879E+01  0.15787598049E+02  0.00000000000E+00 0. -1.
        -12    1    4    4    0    0  0.47265565470E+02  0.86292080855E+02  0.58287767348E+00  0.98390531271E+02  0.00000000000E+00 0.  1.
<mgrwt>
<rscale>  2 0.18013341E+03</rscale>
<asrwt>0</asrwt>
<pdfrwt beam="1">  1       21 0.15241619E+00 0.18104381E+03</pdfrwt>
<pdfrwt beam="2">  1       21 0.19137887E-01 0.18104381E+03</pdfrwt>
<totfact> 0.72490602E+03</totfact>
</mgrwt>
</event>
<event>
12    1  0.1026879E-001  0.1759546E+03  0.7546771E-02  0.1172162E+00
         21   -1    0    0  501  502  0.00000000000E+00  0.00000000000E+00  0.95358646020E+02  0.95358646020E+02  0.00000000000E+00 0.  1.
         21   -1    0    0  502  503 -0.00000000000E+00 -0.00000000000E+00 -0.37532805875E+03  0.37532805875E+03  0.00000000000E+00 0.  1.
         -6    2    1    2    0  503 -0.30264808980E+02  0.11707294318E+02 -0.50614411238E+02  0.18161275095E+03  0.17137197343E+03 0.  0.
        -24    2    3    3    0    0  0.16527412876E+02  0.61438767111E+02 -0.30797193715E+02  0.11035586691E+03  0.84747110510E+02 0.  0.
          6    2    1    2  501    0  0.30264808980E+02 -0.11707294318E+02 -0.22935500149E+03  0.28907395382E+03  0.17293644690E+03 0.  0.
         24    2    5    5    0    0 -0.47593964656E+02 -0.76277090522E+01 -0.77873279859E+02  0.11864087711E+03  0.75419112890E+02 0.  0.
          5    1    5    5  501    0  0.77858773636E+02 -0.40795852656E+01 -0.15148172163E+03  0.17043307671E+03  0.47000000000E+01 0. -1.
        -11    1    6    6    0    0  0.78960597694E+01 -0.28213360319E+02 -0.17651396069E+02  0.34203994556E+02  0.00000000000E+00 0.  1.
         12    1    6    6    0    0 -0.55490024425E+02  0.20585651267E+02 -0.60221883790E+02  0.84436882558E+02  0.00000000000E+00 0. -1.
         -5    1    3    3    0  503 -0.46792221856E+02 -0.49731472793E+02 -0.19817217523E+02  0.71256884037E+02  0.47000000000E+01 0.  1.
         11    1    4    4    0    0  0.96685687559E+01 -0.11427668634E+02  0.17223926021E+02  0.22819650737E+02  0.00000000000E+00 0. -1.
        -12    1    4    4    0    0  0.68588441200E+01  0.72866435745E+02 -0.48021119736E+02  0.87536216171E+02  0.00000000000E+00 0.  1.
<mgrwt>
<rscale>  2 0.17556902E+03</rscale>
<asrwt>0</asrwt>
<pdfrwt beam="1">  1       21 0.14670561E-01 0.17595464E+03</pdfrwt>
<pdfrwt beam="2">  1       21 0.57742779E-01 0.17595464E+03</pdfrwt>
<totfact> 0.11559650E+05</totfact>
</mgrwt>
</event>
<event>
12    1  0.1026879E-001  0.1739921E+03  0.7546771E-02  0.1173884E+00
         21   -1    0    0  501  502  0.00000000000E+00  0.00000000000E+00  0.81061707008E+02  0.81061707008E+02  0.00000000000E+00 0.  1.
         21   -1    0    0  502  503 -0.00000000000E+00 -0.00000000000E+00 -0.37244199893E+03  0.37244199893E+03  0.00000000000E+00 0.  1.
         -6    2    1    2    0  503  0.30345309046E+01  0.16547509215E+02 -0.14984140984E+03  0.22921261154E+03  0.17263529404E+03 0.  0.
        -24    2    3    3    0    0 -0.39410168332E+02  0.41325003233E+02 -0.15061005058E+03  0.17983490897E+03  0.79976808427E+02 0.  0.
          6    2    1    2  501    0 -0.30345309046E+01 -0.16547509215E+02 -0.14153888207E+03  0.22429109439E+03  0.17317682133E+03 0.  0.
         24    2    5    5    0    0  0.40129769068E+02  0.42380886606E+02 -0.66384223335E+02  0.11938148875E+03  0.80240493724E+02 0.  0.
          5    1    5    5  501    0 -0.43164299973E+02 -0.58928395821E+02 -0.75154658737E+02  0.10490960564E+03  0.47000000000E+01 0. -1.
        -13    1    6    6    0    0 -0.17113778800E+02  0.69452823384E+01 -0.45160784852E+02  0.48791544965E+02  0.00000000000E+00 0.  1.
         14    1    6    6    0    0  0.57243547869E+02  0.35435604267E+02 -0.21223438483E+02  0.70589943784E+02  0.00000000000E+00 0. -1.
         -5    1    3    3    0  503  0.42444699236E+02 -0.24777494019E+02  0.76864073755E+00  0.49377702576E+02  0.47000000000E+01 0.  1.
         13    1    4    4    0    0 -0.18253570783E+02 -0.22027856695E+02 -0.66779733454E+02  0.72649515601E+02  0.00000000000E+00 0. -1.
        -14    1    4    4    0    0 -0.21156597548E+02  0.63352859928E+02 -0.83830317128E+02  0.10718539336E+03  0.00000000000E+00 0.  1.
<mgrwt>
<rscale>  2 0.17385717E+03</rscale>
<asrwt>0</asrwt>
<pdfrwt beam="1">  1       21 0.12471032E-01 0.17399207E+03</pdfrwt>
<pdfrwt beam="2">  1       21 0.57298770E-01 0.17399207E+03</pdfrwt>
<totfact> 0.15757473E+05</totfact>
</mgrwt>
</event>
<event>
12    1  0.1026879E-001  0.3222911E+03  0.7546771E-02  0.1074653E+00
         21   -1    0    0  501  502  0.00000000000E+00  0.00000000000E+00  0.15890554474E+03  0.15890554474E+03  0.00000000000E+00 0.  1.
         21   -1    0    0  502  503 -0.00000000000E+00 -0.00000000000E+00 -0.15647631105E+04  0.15647631105E+04  0.00000000000E+00 0. -1.
         -6    2    1    2    0  503 -0.25460061789E+03 -0.94459419459E+02 -0.13611110088E+04  0.13987475502E+04  0.17357267801E+03 0.  0.
        -24    2    3    3    0    0 -0.19311861560E+03 -0.10316133221E+03 -0.12481271723E+04  0.12697390343E+04  0.80490476020E+02 0.  0.
          6    2    1    2  501    0  0.25460061789E+03  0.94459419459E+02 -0.44746556989E+02  0.32492110499E+03  0.17270614799E+03 0.  0.
         24    2    5    5    0    0  0.26160136030E+03  0.52914535881E+02 -0.45008653075E+02  0.28252834099E+03  0.81001634516E+02 0.  0.
          5    1    5    5  501    0 -0.70007424030E+01  0.41544883578E+02  0.26209608614E+00  0.42392764006E+02  0.47000000000E+01 0. -1.
        -11    1    6    6    0    0  0.11811524033E+03 -0.24948679081E+01  0.11417246161E+02  0.11869198741E+03  0.00000000000E+00 0.  1.
         12    1    6    6    0    0  0.14348611996E+03  0.55409403789E+02 -0.56425899236E+02  0.16383635358E+03  0.00000000000E+00 0. -1.
         -5    1    3    3    0  503 -0.61482002293E+02  0.87019127524E+01 -0.11298383643E+03  0.12900851595E+03  0.47000000000E+01 0.  1.
         11    1    4    4    0    0 -0.15273493644E+03 -0.11323961575E+03 -0.10744998707E+04  0.10911925327E+04  0.00000000000E+00 0. -1.
        -12    1    4    4    0    0 -0.40383679161E+02  0.10078283539E+02 -0.17362730162E+03  0.17854650153E+03  0.00000000000E+00 0.  1.
<mgrwt>
<rscale>  2 0.32217454E+03</rscale>
<asrwt>0</asrwt>
<pdfrwt beam="1">  1       21 0.24447006E-01 0.32229107E+03</pdfrwt>
<pdfrwt beam="2">  1       21 0.24073280E+00 0.32229107E+03</pdfrwt>
<totfact> 0.10583069E+03</totfact>
</mgrwt>
</event>
<event>
12    1  0.1026879E-001  0.1851872E+03  0.7546771E-02  0.1163910E+00
         21   -1    0    0  501  502  0.00000000000E+00  0.00000000000E+00  0.14938900252E+03  0.14938900252E+03  0.00000000000E+00 0. -1.
         21   -1    0    0  502  503 -0.00000000000E+00 -0.00000000000E+00 -0.24952950803E+03  0.24952950803E+03  0.00000000000E+00 0. -1.
         -6    2    1    2    0  503 -0.26439687205E+01 -0.54531195960E+02 -0.11312307877E+03  0.21327683220E+03  0.17236453899E+03 0.  0.
        -24    2    3    3    0    0 -0.58690968063E+02 -0.81923722092E+00 -0.52081489974E+02  0.11441123551E+03  0.83259523967E+02 0.  0.
          6    2    1    2  501    0  0.26439687205E+01  0.54531195960E+02  0.12982573262E+02  0.18564167835E+03  0.17695661511E+03 0.  0.
         24    2    5    5    0    0 -0.13003182224E+02  0.44467869689E+02  0.75516067814E+02  0.12023042696E+03  0.81278563506E+02 0.  0.
          5    1    5    5  501    0  0.15647150944E+02  0.10063326271E+02 -0.62533494551E+02  0.65411251395E+02  0.47000000000E+01 0. -1.
        -13    1    6    6    0    0  0.17419566516E+02 -0.20464501415E+01 -0.85027719178E+01  0.19491700441E+02  0.00000000000E+00 0.  1.
         14    1    6    6    0    0 -0.30422748740E+02  0.46514319830E+02  0.84018839731E+02  0.10073872652E+03  0.00000000000E+00 0. -1.
         -5    1    3    3    0  503  0.56046999342E+02 -0.53711958739E+02 -0.61041588796E+02  0.98865596693E+02  0.47000000000E+01 0.  1.
         11    1    4    4    0    0 -0.62568901745E+00  0.11613439654E+02 -0.53762479094E+02  0.55006068990E+02  0.00000000000E+00 0. -1.
        -12    1    4    4    0    0 -0.58065279045E+02 -0.12432676875E+02  0.16809891199E+01  0.59405166520E+02  0.00000000000E+00 0.  1.
<mgrwt>
<rscale>  2 0.18408157E+03</rscale>
<asrwt>0</asrwt>
<pdfrwt beam="1">  1       21 0.22982923E-01 0.18518716E+03</pdfrwt>
<pdfrwt beam="2">  1       21 0.38389155E-01 0.18518716E+03</pdfrwt>
<totfact> 0.11660683E+05</totfact>
</mgrwt>
</event>
<event>
12    1  0.1026879E-001  0.1932799E+03  0.7546771E-02  0.1155672E+00
         21   -1    0    0  503  502  0.00000000000E+00  0.00000000000E+00  0.13973365680E+03  0.13973365680E+03  0.00000000000E+00 0. -1.
         21   -1    0    0  501  503 -0.00000000000E+00 -0.00000000000E+00 -0.35731354491E+03  0.35731354491E+03  0.00000000000E+00 0. -1.
          6    2    1    2  501    0 -0.21862328654E+02 -0.81883233628E+02  0.16634017315E+02  0.19338083963E+03  0.17302205998E+03 0.  0.
         24    2    3    3    0    0 -0.28683874368E+02  0.21486612719E+02  0.36673485198E+01  0.88872069089E+02  0.81242575316E+02 0.  0.
         -6    2    1    2    0  502  0.21862328654E+02  0.81883233628E+02 -0.23421390542E+03  0.30366636209E+03  0.17370745697E+03 0.  0.
        -24    2    5    5    0    0 -0.20423598329E+02  0.90495101378E+02 -0.83933135742E+02  0.14724173608E+03  0.77645803656E+02 0.  0.
          5    1    3    3  501    0  0.68215457141E+01 -0.10336984635E+03  0.12966668796E+02  0.10450877054E+03  0.47000000000E+01 0. -1.
        -13    1    4    4    0    0 -0.26093849568E+02 -0.21746666759E+01 -0.34851744336E+02  0.43591997473E+02  0.00000000000E+00 0.  1.
         14    1    4    4    0    0 -0.25900247996E+01  0.23661279395E+02  0.38519092856E+02  0.45280071616E+02  0.00000000000E+00 0. -1.
         -5    1    5    5    0  502  0.42285926983E+02 -0.86118677494E+01 -0.15028076968E+03  0.15642462601E+03  0.47000000000E+01 0.  1.
         13    1    6    6    0    0 -0.49956771116E+02  0.56755494169E+02 -0.45953502785E+02  0.88479316887E+02  0.00000000000E+00 0. -1.
        -14    1    6    6    0    0  0.29533172786E+02  0.33739607209E+02 -0.37979632957E+02  0.58762419189E+02  0.00000000000E+00 0.  1.
<mgrwt>
<rscale>  2 0.19312574E+03</rscale>
<asrwt>0</asrwt>
<pdfrwt beam="1">  1       21 0.21497486E-01 0.19327986E+03</pdfrwt>
<pdfrwt beam="2">  1       21 0.54971315E-01 0.19327986E+03</pdfrwt>
<totfact> 0.62943154E+04</totfact>
</mgrwt>
</event>
<event>
12    1  0.1026879E-001  0.1743630E+03  0.7546771E-02  0.1173962E+00
         21   -1    0    0  503  502  0.00000000000E+00  0.00000000000E+00  0.17154677099E+03  0.17154677099E+03  0.00000000000E+00 0.  1.
         21   -1    0    0  501  503 -0.00000000000E+00 -0.00000000000E+00 -0.26211456182E+03  0.26211456182E+03  0.00000000000E+00 0.  1.
          6    2    1    2  501    0 -0.15064497669E+02  0.92813992595E+01 -0.17017296374E+03  0.24198596030E+03  0.17112943620E+03 0.  0.
         24    2    3    3    0    0 -0.66981555140E+02  0.29012279400E+02 -0.14359992606E+03  0.18023723709E+03  0.80847274429E+02 0.  0.
         -6    2    1    2    0  502  0.15064497669E+02 -0.92813992595E+01  0.79605172918E+02  0.19167537251E+03  0.17346291075E+03 0.  0.
        -24    2    5    5    0    0 -0.39876303362E+02 -0.38178815801E+02  0.84286605123E+02  0.12924494636E+03  0.80946172311E+02 0.  0.
          5    1    3    3  501    0  0.51917057471E+02 -0.19730880140E+02 -0.26573037681E+02  0.61748723218E+02  0.47000000000E+01 0. -1.
        -11    1    4    4    0    0  0.15110903986E+02  0.20182728251E+02 -0.45474984372E+02  0.51996693573E+02  0.00000000000E+00 0.  1.
         12    1    4    4    0    0 -0.82092459126E+02  0.88295511484E+01 -0.98124941689E+02  0.12824054351E+03  0.00000000000E+00 0. -1.
         -5    1    5    5    0  502  0.54940801031E+02  0.28897416542E+02 -0.46814322043E+01  0.62430426141E+02  0.47000000000E+01 0.  1.
         13    1    6    6    0    0 -0.33185778243E+02 -0.10625821522E+02 -0.53292734214E+01  0.35250604474E+02  0.00000000000E+00 0. -1.
        -14    1    6    6    0    0 -0.66905251191E+01 -0.27552994279E+02  0.89615878544E+02  0.93994341890E+02  0.00000000000E+00 0.  1.
<mgrwt>
<rscale>  2 0.17377979E+03</rscale>
<asrwt>0</asrwt>
<pdfrwt beam="1">  1       21 0.26391811E-01 0.17436303E+03</pdfrwt>
<pdfrwt beam="2">  1       21 0.40325317E-01 0.17436303E+03</pdfrwt>
<totfact> 0.81518093E+04</totfact>
</mgrwt>
</event>
<event>
12    1  0.1026879E-001  0.4615534E+03  0.7546771E-02  0.1024339E+00
         21   -1    0    0  501  502  0.00000000000E+00  0.00000000000E+00  0.62675659027E+03  0.62675659027E+03  0.00000000000E+00 0. -1.
         21   -1    0    0  502  503 -0.00000000000E+00 -0.00000000000E+00 -0.42628573856E+03  0.42628573856E+03  0.00000000000E+00 0.  1.
         -6    2    1    2    0  503  0.42026070455E+03  0.80609484731E+02 -0.13689134010E+03  0.48142575792E+03  0.17295829722E+03 0.  0.
        -24    2    3    3    0    0  0.40102264302E+03  0.11147458264E+03 -0.11765262603E+03  0.44001349646E+03  0.80771244032E+02 0.  0.
          6    2    1    2  501    0 -0.42026070455E+03 -0.80609484731E+02  0.33736219181E+03  0.57161657091E+03  0.17267109445E+03 0.  0.
         24    2    5    5    0    0 -0.26935778041E+03 -0.12156112258E+02  0.27836457930E+03  0.39566099413E+03  0.79745835861E+02 0.  0.
          5    1    5    5  501    0 -0.15090292414E+03 -0.68453372473E+02  0.58997612510E+02  0.17595557677E+03  0.47000000000E+01 0. -1.
        -13    1    6    6    0    0  0.29501943140E+01 -0.19206640293E+01  0.19467495893E+02  0.19783225044E+02  0.00000000000E+00 0.  1.
         14    1    6    6    0    0 -0.27230797473E+03 -0.10235448229E+02  0.25889708340E+03  0.37587776909E+03  0.00000000000E+00 0. -1.
         -5    1    3    3    0  503  0.19238061529E+02 -0.30865097910E+02 -0.19238714070E+02  0.41412261463E+02  0.47000000000E+01 0.  1.
         11    1    4    4    0    0  0.36114587140E+02  0.27887553060E+02  0.54049276165E+01  0.45947712266E+02  0.00000000000E+00 0. -1.
        -12    1    4    4    0    0  0.36490805588E+03  0.83587029582E+02 -0.12305755364E+03  0.39406578419E+03  0.00000000000E+00 0.  1.
<mgrwt>
<rscale>  2 0.46152649E+03</rscale>
<asrwt>0</asrwt>
<pdfrwt beam="1">  1       21 0.96424091E-01 0.46155338E+03</pdfrwt>
<pdfrwt beam="2">  1       21 0.65582421E-01 0.46155338E+03</pdfrwt>
<totfact> 0.16358810E+03</totfact>
</mgrwt>
</event>
<event>
12    1  0.1026879E-001  0.3129647E+03  0.7546771E-02  0.1079033E+00
         21   -1    0    0  503  502  0.00000000000E+00  0.00000000000E+00  0.25090577243E+03  0.25090577243E+03  0.00000000000E+00 0.  1.
         21   -1    0    0  501  503 -0.00000000000E+00 -0.00000000000E+00 -0.17836725786E+04  0.17836725786E+04  0.00000000000E+00 0. -1.
          6    2    1    2  501    0 -0.23450419950E+03  0.11134401202E+03 -0.16660494635E+04  0.16951895885E+04  0.17480622812E+03 0.  0.
         24    2    3    3    0    0 -0.48733061307E+02  0.74683146614E+02 -0.56726012952E+03  0.58019406142E+03  0.82997654873E+02 0.  0.
         -6    2    1    2    0  502  0.23450419950E+03 -0.11134401202E+03  0.13328265732E+03  0.33938876259E+03  0.17329384535E+03 0.  0.
        -24    2    5    5    0    0  0.21011933075E+03 -0.14664976096E+03  0.12046670928E+03  0.29436147912E+03  0.80499483237E+02 0.  0.
          5    1    3    3  501    0 -0.18577113820E+03  0.36660865403E+02 -0.10987893340E+04  0.11149955271E+04  0.47000000000E+01 0. -1.
        -13    1    4    4    0    0 -0.17891153516E+02 -0.76134445113E+01 -0.29710133120E+02  0.35507040450E+02  0.00000000000E+00 0.  1.
         14    1    4    4    0    0 -0.30841907791E+02  0.82296591125E+02 -0.53754999640E+03  0.54468702097E+03  0.00000000000E+00 0. -1.
         -5    1    5    5    0  502  0.24384868756E+02  0.35305748945E+02  0.12815948031E+02  0.45027283471E+02  0.47000000000E+01 0.  1.
         11    1    6    6    0    0  0.58615720668E+02 -0.87605675893E+02  0.38043246826E+02  0.11206179450E+03  0.00000000000E+00 0. -1.
        -12    1    6    6    0    0  0.15150361008E+03 -0.59044085068E+02  0.82423462459E+02  0.18229968462E+03  0.00000000000E+00 0.  1.
<mgrwt>
<rscale>  2 0.31275397E+03</rscale>
<asrwt>0</asrwt>
<pdfrwt beam="1">  1       21 0.38600889E-01 0.31296474E+03</pdfrwt>
<pdfrwt beam="2">  1       21 0.27441116E+00 0.31296474E+03</pdfrwt>
<totfact> 0.27111081E+02</totfact>
</mgrwt>
</event>
<event>
12    1  0.1026879E-001  0.2223781E+03  0.7546771E-02  0.1134747E+00
         21   -1    0    0  503  502  0.00000000000E+00  0.00000000000E+00  0.85759017472E+02  0.85759017472E+02  0.00000000000E+00 0.  1.
         21   -1    0    0  501  503 -0.00000000000E+00 -0.00000000000E+00 -0.54159126713E+03  0.54159126713E+03  0.00000000000E+00 0.  1.
          6    2    1    2  501    0 -0.10016327111E+03 -0.63083383274E+02 -0.22635727750E+03  0.30780247425E+03  0.17173395690E+03 0.  0.
         24    2    3    3    0    0 -0.17895542360E+02 -0.66979498013E+02 -0.60338676665E+02  0.12241794219E+03  0.80863422371E+02 0.  0.
         -6    2    1    2    0  502  0.10016327111E+03  0.63083383274E+02 -0.22947497216E+03  0.31954781035E+03  0.18825473733E+03 0.  0.
        -24    2    5    5    0    0  0.10926750510E+03 -0.65236407619E+00 -0.82717689006E+02  0.15922026211E+03  0.81049753504E+02 0.  0.
          5    1    3    3  501    0 -0.82267728754E+02  0.38961147390E+01 -0.16601860084E+03  0.18538453206E+03  0.47000000000E+01 0. -1.
        -13    1    4    4    0    0 -0.49748207413E+02 -0.39164814928E+02 -0.28237609417E+02  0.69326253719E+02  0.00000000000E+00 0.  1.
         14    1    4    4    0    0  0.31852665052E+02 -0.27814683086E+02 -0.32101067248E+02  0.53091688470E+02  0.00000000000E+00 0. -1.
         -5    1    5    5    0  502 -0.91042339835E+01  0.63735747350E+02 -0.14675728315E+03  0.16032754824E+03  0.47000000000E+01 0.  1.
         13    1    6    6    0    0  0.84034085882E+02  0.29260916705E+02 -0.80549265486E+02  0.12002546816E+03  0.00000000000E+00 0. -1.
        -14    1    6    6    0    0  0.25233419215E+02 -0.29913280781E+02 -0.21684235201E+01  0.39194793952E+02  0.00000000000E+00 0.  1.
<mgrwt>
<rscale>  2 0.21884476E+03</rscale>
<asrwt>0</asrwt>
<pdfrwt beam="1">  1       21 0.13193695E-01 0.22237815E+03</pdfrwt>
<pdfrwt beam="2">  1       21 0.83321735E-01 0.22237815E+03</pdfrwt>
<totfact> 0.61222930E+04</totfact>
</mgrwt>
</event>
<event>
12    1  0.1026879E-001  0.1735044E+03  0.7546771E-02  0.1174449E+00
         21   -1    0    0  503  502  0.00000000000E+00  0.00000000000E+00  0.61311307340E+03  0.61311307340E+03  0.00000000000E+00 0. -1.
         21   -1    0    0  501  503 -0.00000000000E+00 -0.00000000000E+00 -0.14423144349E+03  0.14423144349E+03  0.00000000000E+00 0. -1.
          6    2    1    2  501    0 -0.79468035321E+01  0.41952434754E+01 -0.73653739505E+02  0.18774080504E+03  0.17245574731E+03 0.  0.
         24    2    3    3    0    0 -0.64903489777E+02 -0.96830418981E+01 -0.71776488527E+02  0.12889962062E+03  0.84599193877E+02 0.  0.
         -6    2    1    2    0  502  0.79468035321E+01 -0.41952434754E+01  0.54253536942E+03  0.56960371186E+03  0.17327149142E+03 0.  0.
        -24    2    5    5    0    0 -0.95454037375E+01 -0.67995062455E+02  0.36286262369E+03  0.37808144220E+03  0.81005246842E+02 0.  0.
          5    1    3    3  501    0  0.56956686245E+02  0.13878285373E+02 -0.18772509789E+01  0.58841184422E+02  0.47000000000E+01 0. -1.
        -13    1    4    4    0    0  0.91048960156E+01 -0.19429117539E+02 -0.44539529550E+02  0.49438440836E+02  0.00000000000E+00 0.  1.
         14    1    4    4    0    0 -0.74008385792E+02  0.97460756408E+01 -0.27236958977E+02  0.79461179782E+02  0.00000000000E+00 0. -1.
         -5    1    5    5    0  502  0.17492207270E+02  0.63799818980E+02  0.17967274573E+03  0.19152226966E+03  0.47000000000E+01 0.  1.
         11    1    6    6    0    0  0.33155376880E+02 -0.45226725247E+02  0.16055062197E+03  0.17006245296E+03  0.00000000000E+00 0. -1.
        -12    1    6    6    0    0 -0.42700780617E+02 -0.22768337208E+02  0.20231200172E+03  0.20801898924E+03  0.00000000000E+00 0.  1.
<mgrwt>
<rscale>  2 0.17330034E+03</rscale>
<asrwt>0</asrwt>
<pdfrwt beam="1">  1       21 0.94325087E-01 0.17350436E+03</pdfrwt>
<pdfrwt beam="2">  1       21 0.22189453E-01 0.17350436E+03</pdfrwt>
<totfact> 0.18110219E+04</totfact>
</mgrwt>
</event>
<event>
12    1  0.1026879E-001  0.2077183E+03  0.7546771E-02  0.1143386E+00
         21   -1    0    0  501  502  0.00000000000E+00  0.00000000000E+00  0.39575437533E+03  0.39575437533E+03  0.00000000000E+00 0.  1.
         21   -1    0    0  502  503 -0.00000000000E+00 -0.00000000000E+00 -0.12671407432E+03  0.12671407432E+03  0.00000000000E+00 0.  1.
         -6    2    1    2    0  503  0.82844339838E+02 -0.78937587580E+02  0.36911956073E+02  0.21097248410E+03  0.17335676845E+03 0.  0.
        -24    2    3    3    0    0  0.10905703166E+03 -0.28685363670E+02  0.60901740164E+02  0.14924735987E+03  0.76481803260E+02 0.  0.
          6    2    1    2  501    0 -0.82844339838E+02  0.78937587580E+02  0.23212834494E+03  0.31149596555E+03  0.17335466724E+03 0.  0.
         24    2    5    5    0    0 -0.74297893694E+02  0.11205257509E+03  0.22820973334E+03  0.27675276973E+03  0.80227530000E+02 0.  0.
          5    1    5    5  501    0 -0.85464461435E+01 -0.33114987508E+02  0.39186116025E+01  0.34743195827E+02  0.47000000000E+01 0. -1.
        -11    1    6    6    0    0 -0.64321131287E+02  0.81892443878E+02  0.22081366756E+03  0.24413573289E+03  0.00000000000E+00 0.  1.
         12    1    6    6    0    0 -0.99767624073E+01  0.30160131210E+02  0.73960657776E+01  0.32617036833E+02  0.00000000000E+00 0. -1.
         -5    1    3    3    0  503 -0.26212691820E+02 -0.50252223910E+02 -0.23989784091E+02  0.61725124229E+02  0.47000000000E+01 0.  1.
         13    1    4    4    0    0  0.60280602753E+02 -0.53786913324E+02  0.43151764152E+02  0.91590708386E+02  0.00000000000E+00 0. -1.
        -14    1    4    4    0    0  0.48776428905E+02  0.25101549655E+02  0.17749976012E+02  0.57656651483E+02  0.00000000000E+00 0.  1.
<mgrwt>
<rscale>  2 0.20771787E+03</rscale>
<asrwt>0</asrwt>
<pdfrwt beam="1">  1       21 0.60885288E-01 0.20771831E+03</pdfrwt>
<pdfrwt beam="2">  1       21 0.19494473E-01 0.20771831E+03</pdfrwt>
<totfact> 0.60368682E+04</totfact>
</mgrwt>
</event>
<event>
12    1  0.1026879E-001  0.1964043E+03  0.7546771E-02  0.1153523E+00
         21   -1    0    0  501  502  0.00000000000E+00  0.00000000000E+00  0.55344378852E+02  0.55344378852E+02  0.00000000000E+00 0. -1.
         21   -1    0    0  502  503 -0.00000000000E+00 -0.00000000000E+00 -0.70372012367E+03  0.70372012367E+03  0.00000000000E+00 0. -1.
         -6    2    1    2    0  503  0.24165624494E+02  0.89841665708E+02 -0.38806259576E+03  0.43493359443E+03  0.17297153243E+03 0.  0.
        -24    2    3    3    0    0  0.56736664056E+02  0.10541703861E+03 -0.36311241928E+03  0.39079669189E+03  0.80867943461E+02 0.  0.
          6    2    1    2  501    0 -0.24165624494E+02 -0.89841665708E+02 -0.26031314906E+03  0.32413090809E+03  0.16924067981E+03 0.  0.
         24    2    5    5    0    0 -0.29221554413E+02  0.12635597096E+02 -0.15211817915E+03  0.17494849179E+03  0.80333534694E+02 0.  0.
          5    1    5    5  501    0  0.50559299196E+01 -0.10247726280E+03 -0.10819496991E+03  0.14918241630E+03  0.47000000000E+01 0. -1.
        -11    1    6    6    0    0 -0.49143365085E+02  0.31961313914E+02 -0.10551319299E+03  0.12070472159E+03  0.00000000000E+00 0.  1.
         12    1    6    6    0    0  0.19921810672E+02 -0.19325716817E+02 -0.46604986160E+02  0.54243770204E+02  0.00000000000E+00 0. -1.
         -5    1    3    3    0  503 -0.32571039562E+02 -0.15575372903E+02 -0.24950176473E+02  0.44136902534E+02  0.47000000000E+01 0.  1.
         11    1    4    4    0    0 -0.23548079279E+01  0.24619916331E+01 -0.12198827246E+03  0.12203583548E+03  0.00000000000E+00 0. -1.
        -12    1    4    4    0    0  0.59091471984E+02  0.10295504698E+03 -0.24112414682E+03  0.26876085641E+03  0.00000000000E+00 0.  1.
<mgrwt>
<rscale>  2 0.19557972E+03</rscale>
<asrwt>0</asrwt>
<pdfrwt beam="1">  1       21 0.85145205E-02 0.19640431E+03</pdfrwt>
<pdfrwt beam="2">  1       21 0.10826463E+00 0.19640431E+03</pdfrwt>
<totfact> 0.72926049E+04</totfact>
</mgrwt>
</event>
<event>
12    1  0.1026879E-001  0.2618387E+03  0.7546771E-02  0.1106309E+00
         21   -1    0    0  503  502  0.00000000000E+00  0.00000000000E+00  0.21891354166E+03  0.21891354166E+03  0.00000000000E+00 0. -1.
         21   -1    0    0  501  503 -0.00000000000E+00 -0.00000000000E+00 -0.31125887745E+03  0.31125887745E+03  0.00000000000E+00 0.  1.
          6    2    1    2  501    0 -0.19288280818E+03 -0.23199279276E+02 -0.39254761623E+02  0.26300561524E+03  0.17288445011E+03 0.  0.
         24    2    3    3    0    0 -0.35849623004E+02  0.20980674848E+02  0.11332620750E+01  0.94884908454E+02  0.85302270678E+02 0.  0.
         -6    2    1    2    0  502  0.19288280818E+03  0.23199279276E+02 -0.53090574164E+02  0.26716680387E+03  0.17554916057E+03 0.  0.
        -24    2    5    5    0    0  0.18077791907E+03 -0.35501497158E+02 -0.32917470282E+02  0.20375266022E+03  0.80564101028E+02 0.  0.
          5    1    3    3  501    0 -0.15703318517E+03 -0.44179954124E+02 -0.40388023698E+02  0.16812070679E+03  0.47000000000E+01 0. -1.
        -11    1    4    4    0    0 -0.12785463251E+02 -0.26805559212E+02 -0.22040966982E+02  0.36983919489E+02  0.00000000000E+00 0.  1.
         12    1    4    4    0    0 -0.23064159753E+02  0.47786234060E+02  0.23174229057E+02  0.57900988966E+02  0.00000000000E+00 0. -1.
         -5    1    5    5    0  502  0.12104889106E+02  0.58700776434E+02 -0.20173103881E+02  0.63414143647E+02  0.47000000000E+01 0.  1.
         13    1    6    6    0    0  0.13108674756E+03  0.90392413591E+01 -0.52207156105E+01  0.13150170775E+03  0.00000000000E+00 0. -1.
        -14    1    6    6    0    0  0.49691171511E+02 -0.44540738517E+02 -0.27696754672E+02  0.72250952472E+02  0.00000000000E+00 0.  1.
<mgrwt>
<rscale>  2 0.26139278E+03</rscale>
<asrwt>0</asrwt>
<pdfrwt beam="1">  1       21 0.33679006E-01 0.26183868E+03</pdfrwt>
<pdfrwt beam="2">  1       21 0.47885981E-01 0.26183868E+03</pdfrwt>
<totfact> 0.34257954E+04</totfact>
</mgrwt>
</event>
<event>
12    1  0.1026879E-001  0.1989710E+03  0.7546771E-02  0.1157725E+00
         21   -1    0    0  501  502  0.00000000000E+00  0.00000000000E+00  0.20684235575E+03  0.20684235575E+03  0.00000000000E+00 0.  1.
         21   -1    0    0  502  503 -0.00000000000E+00 -0.00000000000E+00 -0.19523927861E+03  0.19523927861E+03  0.00000000000E+00 0.  1.
         -6    2    1    2    0  503  0.37071877683E+02  0.99157130144E+01 -0.75198416511E+02  0.21270694839E+03  0.19523523906E+03 0.  0.
        -24    2    3    3    0    0  0.54841239915E+02  0.78522546934E+02 -0.60207980774E+02  0.14011596370E+03  0.82668799215E+02 0.  0.
          6    2    1    2  501    0 -0.37071877683E+02 -0.99157130144E+01  0.86801493655E+02  0.18937468597E+03  0.16387686507E+03 0.  0.
         24    2    5    5    0    0 -0.24202937583E+02  0.47910059691E+02  0.20792653615E+02  0.10055640761E+03  0.82450595263E+02 0.  0.
          5    1    5    5  501    0 -0.12868940099E+02 -0.57825772705E+02  0.66008840040E+02  0.88818278364E+02  0.47000000000E+01 0. -1.
        -13    1    6    6    0    0  0.26404500905E+02  0.38777313968E+02  0.84042064590E+01  0.47660344447E+02  0.00000000000E+00 0.  1.
         14    1    6    6    0    0 -0.50607438489E+02  0.91327457228E+01  0.12388447156E+02  0.52896063159E+02  0.00000000000E+00 0. -1.
         -5    1    3    3    0  503 -0.17769362233E+02 -0.68606833919E+02 -0.14990435736E+02  0.72590984689E+02  0.47000000000E+01 0.  1.
         13    1    4    4    0    0  0.21059096344E+02  0.31942955397E+02  0.18596474829E+02  0.42540178825E+02  0.00000000000E+00 0. -1.
        -14    1    4    4    0    0  0.33782143571E+02  0.46579591536E+02 -0.78804455604E+02  0.97575784880E+02  0.00000000000E+00 0.  1.
<mgrwt>
<rscale>  2 0.19081820E+03</rscale>
<asrwt>0</asrwt>
<pdfrwt beam="1">  1       21 0.31821901E-01 0.19897096E+03</pdfrwt>
<pdfrwt beam="2">  1       21 0.30036812E-01 0.19897096E+03</pdfrwt>
<totfact> 0.10069204E+05</totfact>
</mgrwt>
</event>
<event>
12    1  0.1026879E-001  0.2060422E+03  0.7546771E-02  0.1145948E+00
         21   -1    0    0  501  502  0.00000000000E+00  0.00000000000E+00  0.26545413128E+02  0.26545413128E+02  0.00000000000E+00 0. -1.
         21   -1    0    0  502  503 -0.00000000000E+00 -0.00000000000E+00 -0.15542616824E+04  0.15542616824E+04  0.00000000000E+00 0. -1.
         -6    2    1    2    0  503  0.46631703609E+02 -0.10088532408E+03 -0.76145194917E+03  0.78732463902E+03  0.16648919459E+03 0.  0.
        -24    2    3    3    0    0 -0.10509624565E+02  0.13550116802E+01 -0.35737231566E+03  0.36658640941E+03  0.80983549533E+02 0.  0.
          6    2    1    2  501    0 -0.46631703609E+02  0.10088532408E+03 -0.76626432005E+03  0.79348245646E+03  0.17349650177E+03 0.  0.
         24    2    5    5    0    0 -0.48772560487E+02 -0.98666329021E+01 -0.32140728381E+03  0.33501713395E+03  0.80359970486E+02 0.  0.
          5    1    5    5  501    0  0.21408568780E+01  0.11075195698E+03 -0.44485703625E+03  0.45846532251E+03  0.47000000000E+01 0. -1.
        -11    1    6    6    0    0  0.21429709879E+02 -0.10917625744E+02 -0.93236311781E+02  0.96288300701E+02  0.00000000000E+00 0.  1.
         12    1    6    6    0    0 -0.70202270365E+02  0.10509928423E+01 -0.22817097203E+03  0.23872883325E+03  0.00000000000E+00 0. -1.
         -5    1    3    3    0  503  0.57141328174E+02 -0.10224033576E+03 -0.40407963351E+03  0.42073822961E+03  0.47000000000E+01 0.  1.
         13    1    4    4    0    0  0.33369113507E+02  0.96585878657E+01 -0.11492553333E+03  0.12006108556E+03  0.00000000000E+00 0. -1.
        -14    1    4    4    0    0 -0.43878738072E+02 -0.83035761854E+01 -0.24244678234E+03  0.24652532385E+03  0.00000000000E+00 0.  1.
<mgrwt>
<rscale>  2 0.20456012E+03</rscale>
<asrwt>0</asrwt>
<pdfrwt beam="1">  1       21 0.40839089E-02 0.20604223E+03</pdfrwt>
<pdfrwt beam="2">  1       21 0.23911723E+00 0.20604223E+03</pdfrwt>
<totfact> 0.28875065E+04</totfact>
</mgrwt>
</event>
<event>
12    1  0.1026879E-001  0.1895914E+03  0.7546771E-02  0.1158958E+00
         21   -1    0    0  501  502  0.00000000000E+00  0.00000000000E+00  0.44094913437E+02  0.44094913437E+02  0.00000000000E+00 0.  1.
         21   -1    0    0  502  503 -0.00000000000E+00 -0.00000000000E+00 -0.81414447329E+03  0.81414447329E+03  0.00000000000E+00 0.  1.
         -6    2    1    2    0  503 -0.77270236141E+02 -0.96203854927E+01 -0.36786173546E+03  0.41384434819E+03  0.17286308717E+03 0.  0.
        -24    2    3    3    0    0 -0.83194530124E+02  0.49346603229E+02 -0.29196061888E+03  0.31743235456E+03  0.78523115398E+02 0.  0.
          6    2    1    2  501    0  0.77270236141E+02  0.96203854927E+01 -0.40218782440E+03  0.44439503854E+03  0.17224593746E+03 0.  0.
         24    2    5    5    0    0  0.28879574008E+02  0.16722407983E+02 -0.79663657111E+02  0.11814969621E+03  0.80618755429E+02 0.  0.
          5    1    5    5  501    0  0.48390662133E+02 -0.71020224908E+01 -0.32252416729E+03  0.32624534233E+03  0.47000000000E+01 0. -1.
        -13    1    6    6    0    0  0.37038220054E+02 -0.11361892439E+02 -0.64028567135E+01  0.39267275417E+02  0.00000000000E+00 0.  1.
         14    1    6    6    0    0 -0.81586460457E+01  0.28084300423E+02 -0.73260800397E+02  0.78882420795E+02  0.00000000000E+00 0. -1.
         -5    1    3    3    0  503  0.59242939836E+01 -0.58966988722E+02 -0.75901116572E+02  0.96411993626E+02  0.47000000000E+01 0.  1.
         13    1    4    4    0    0 -0.49201923647E+01 -0.16666156180E+02 -0.82167358016E+02  0.83984783015E+02  0.00000000000E+00 0. -1.
        -14    1    4    4    0    0 -0.78274337759E+02  0.66012759409E+02 -0.20979326087E+03  0.23344757155E+03  0.00000000000E+00 0.  1.
<mgrwt>
<rscale>  2 0.18945058E+03</rscale>
<asrwt>0</asrwt>
<pdfrwt beam="1">  1       21 0.67838326E-02 0.18959137E+03</pdfrwt>
<pdfrwt beam="2">  1       21 0.12525300E+00 0.18959137E+03</pdfrwt>
<totfact> 0.75897011E+04</totfact>
</mgrwt>
</event>
<event>
12    1  0.1026879E-001  0.1812676E+03  0.7546771E-02  0.1167257E+00
         21   -1    0    0  501  502  0.00000000000E+00  0.00000000000E+00  0.10131791513E+04  0.10131791513E+04  0.00000000000E+00 0.  1.
         21   -1    0    0  502  503 -0.00000000000E+00 -0.00000000000E+00 -0.45621873656E+02  0.45621873656E+02  0.00000000000E+00 0.  1.
         -6    2    1    2    0  503  0.26722211111E+02 -0.42803125790E+02  0.19116085624E+03  0.26152482370E+03  0.17119163621E+03 0.  0.
        -24    2    3    3    0    0 -0.37462045176E+00 -0.85014428399E+02  0.17048728347E+03  0.20706824503E+03  0.81140316125E+02 0.  0.
          6    2    1    2  501    0 -0.26722211111E+02  0.42803125790E+02  0.77639642144E+03  0.79727620129E+03  0.17410271042E+03 0.  0.
         24    2    5    5    0    0 -0.62848057320E+02 -0.24735779748E+02  0.44586574979E+03  0.45795453174E+03  0.79776871315E+02 0.  0.
          5    1    5    5  501    0  0.36125846210E+02  0.67538905538E+02  0.33053067165E+03  0.33932166955E+03  0.47000000000E+01 0. -1.
        -11    1    6    6    0    0  0.15091111285E+02 -0.21760934520E+02  0.11929916663E+03  0.12220299125E+03  0.00000000000E+00 0.  1.
         12    1    6    6    0    0 -0.77939168605E+02 -0.29748452274E+01  0.32656658316E+03  0.33575154050E+03  0.00000000000E+00 0. -1.
         -5    1    3    3    0  503  0.27096831563E+02  0.42211302609E+02  0.20673572770E+02  0.54456578664E+02  0.47000000000E+01 0.  1.
         13    1    4    4    0    0 -0.31166643598E+02 -0.59645439809E+02  0.14464330458E+03  0.15953251620E+03  0.00000000000E+00 0. -1.
        -14    1    4    4    0    0  0.30792023146E+02 -0.25368988590E+02  0.25843978882E+02  0.47535728836E+02  0.00000000000E+00 0.  1.
<mgrwt>
<rscale>  2 0.18056497E+03</rscale>
<asrwt>0</asrwt>
<pdfrwt beam="1">  1       21 0.15587370E+00 0.18126759E+03</pdfrwt>
<pdfrwt beam="2">  1       21 0.70187506E-02 0.18126759E+03</pdfrwt>
<totfact> 0.40928999E+04</totfact>
</mgrwt>
</event>
<event>
12    1  0.1026879E-001  0.2875739E+03  0.7546771E-02  0.1092007E+00
         21   -1    0    0  501  502  0.00000000000E+00  0.00000000000E+00  0.15417921585E+03  0.15417921585E+03  0.00000000000E+00 0. -1.
         21   -1    0    0  502  503 -0.00000000000E+00 -0.00000000000E+00 -0.71782114113E+03  0.71782114113E+03  0.00000000000E+00 0. -1.
         -6    2    1    2    0  503 -0.22769776990E+03 -0.37517179598E+02 -0.50530722992E+03  0.58140702306E+03  0.17159521170E+03 0.  0.
        -24    2    3    3    0    0 -0.19454860111E+03  0.12666681691E+02 -0.27631436467E+03  0.34460096389E+03  0.66261551251E+02 0.  0.
          6    2    1    2  501    0  0.22769776990E+03  0.37517179598E+02 -0.58334695358E+02  0.29059333391E+03  0.16669653821E+03 0.  0.
         24    2    5    5    0    0  0.75111829928E+02  0.50019357553E+02 -0.65249949339E+02  0.13726791440E+03  0.80257095078E+02 0.  0.
          5    1    5    5  501    0  0.15258593997E+03 -0.12502177955E+02  0.69152539809E+01  0.15332541951E+03  0.47000000000E+01 0. -1.
        -13    1    6    6    0    0  0.77530111952E+02  0.28638320101E+02 -0.76819367679E+02  0.11283743567E+03  0.00000000000E+00 0.  1.
         14    1    6    6    0    0 -0.24182820241E+01  0.21381037452E+02  0.11569418340E+02  0.24430478734E+02  0.00000000000E+00 0. -1.
         -5    1    3    3    0  503 -0.33149168788E+02 -0.50183861289E+02 -0.22899286525E+03  0.23680605918E+03  0.47000000000E+01 0.  1.
         13    1    4    4    0    0 -0.88368224991E+02  0.31142484312E+02 -0.16442579544E+03  0.18924756200E+03  0.00000000000E+00 0. -1.
        -14    1    4    4    0    0 -0.10618037612E+03 -0.18475802621E+02 -0.11188856923E+03  0.15535340189E+03  0.00000000000E+00 0.  1.
<mgrwt>
<rscale>  2 0.28684714E+03</rscale>
<asrwt>0</asrwt>
<pdfrwt beam="1">  1       21 0.23719879E-01 0.28757387E+03</pdfrwt>
<pdfrwt beam="2">  1       21 0.11043402E+00 0.28757387E+03</pdfrwt>
<totfact> 0.10235321E+04</totfact>
</mgrwt>
</event>
<event>
12    1  0.1026879E-001  0.2050037E+03  0.7546771E-02  0.1145655E+00
         21   -1    0    0  501  502  0.00000000000E+00  0.00000000000E+00  0.30349706732E+03  0.30349706732E+03  0.00000000000E+00 0. -1.
         21   -1    0    0  502  503 -0.00000000000E+00 -0.00000000000E+00 -0.15461864717E+03  0.15461864717E+03  0.00000000000E+00 0. -1.
         -6    2    1    2    0  503 -0.78156040162E+02 -0.78418891033E+02 -0.16574782031E+00  0.20465823356E+03  0.17212517540E+03 0.  0.
        -24    2    3    3    0    0  0.10840800800E+02 -0.79956090434E+02  0.67840382703E+01  0.11525359045E+03  0.82017483354E+02 0.  0.
          6    2    1    2  501    0  0.78156040162E+02  0.78418891033E+02  0.14904416797E+03  0.25345748093E+03  0.17253591380E+03 0.  0.
         24    2    5    5    0    0 -0.20997412133E+02  0.57668518410E+02  0.94361654515E+02  0.13824353931E+03  0.80253379906E+02 0.  0.
          5    1    5    5  501    0  0.99153452296E+02  0.20750372623E+02  0.54682513456E+02  0.11521394162E+03  0.47000000000E+01 0. -1.
        -13    1    6    6    0    0 -0.18176805623E+02  0.70998989641E+02  0.99589025315E+02  0.12364961284E+03  0.00000000000E+00 0.  1.
         14    1    6    6    0    0 -0.28206065106E+01 -0.13330471231E+02 -0.52273707991E+01  0.14593926469E+02  0.00000000000E+00 0. -1.
         -5    1    3    3    0  503 -0.88996840963E+02  0.15371994009E+01 -0.69497860906E+01  0.89404643113E+02  0.47000000000E+01 0.  1.
         13    1    4    4    0    0 -0.30449937565E+02 -0.25991990601E+02  0.21914958512E+02  0.45640417173E+02  0.00000000000E+00 0. -1.
        -14    1    4    4    0    0  0.41290738366E+02 -0.53964099833E+02 -0.15130920242E+02  0.69613173272E+02  0.00000000000E+00 0.  1.
<mgrwt>
<rscale>  2 0.20491729E+03</rscale>
<asrwt>0</asrwt>
<pdfrwt beam="1">  1       21 0.46691857E-01 0.20500373E+03</pdfrwt>
<pdfrwt beam="2">  1       21 0.23787484E-01 0.20500373E+03</pdfrwt>
<totfact> 0.72730383E+04</totfact>
</mgrwt>
</event>
<event>
12    1  0.1026879E-001  0.1749552E+03  0.7546771E-02  0.1173162E+00
         21   -1    0    0  503  502  0.00000000000E+00  0.00000000000E+00  0.46716595081E+03  0.46716595081E+03  0.00000000000E+00 0. -1.
         21   -1    0    0  501  503 -0.00000000000E+00 -0.00000000000E+00 -0.27564166466E+03  0.27564166466E+03  0.00000000000E+00 0. -1.
          6    2    1    2  501    0  0.16465842683E+02 -0.10287864038E+02 -0.22904752169E+03  0.28729695145E+03  0.17233631944E+03 0.  0.
         24    2    3    3    0    0  0.52235390721E+02 -0.46716119267E+02 -0.93375599210E+02  0.14226095973E+03  0.81291120622E+02 0.  0.
         -6    2    1    2    0  502 -0.16465842683E+02  0.10287864038E+02  0.42057180784E+03  0.45551066402E+03  0.17387453916E+03 0.  0.
        -24    2    5    5    0    0  0.51492014973E+02 -0.19362404495E+01  0.18024673186E+03  0.20541881831E+03  0.83981128457E+02 0.  0.
          5    1    3    3  501    0 -0.35769548037E+02  0.36428255229E+02 -0.13567192248E+03  0.14503599172E+03  0.47000000000E+01 0. -1.
        -11    1    4    4    0    0  0.54536501770E+02 -0.20259085354E+02 -0.99266361236E+02  0.11505855482E+03  0.00000000000E+00 0.  1.
         12    1    4    4    0    0 -0.23011110488E+01 -0.26457033913E+02  0.58907620253E+01  0.27202404907E+02  0.00000000000E+00 0. -1.
         -5    1    5    5    0  502 -0.67957857656E+02  0.12224104487E+02  0.24032507598E+03  0.25009184571E+03  0.47000000000E+01 0.  1.
         13    1    6    6    0    0  0.48837752542E+02  0.31467723607E+02  0.74412288454E+02  0.94406209411E+02  0.00000000000E+00 0. -1.
        -14    1    6    6    0    0  0.26542624307E+01 -0.33403964056E+02  0.10583444341E+03  0.11101260890E+03  0.00000000000E+00 0.  1.
<mgrwt>
<rscale>  2 0.17457178E+03</rscale>
<asrwt>0</asrwt>
<pdfrwt beam="1">  1       21 0.71871685E-01 0.17495519E+03</pdfrwt>
<pdfrwt beam="2">  1       21 0.42406410E-01 0.17495519E+03</pdfrwt>
<totfact> 0.94706636E+03</totfact>
</mgrwt>
</event>
<event>
12    1  0.1026879E-001  0.2879423E+03  0.7546771E-02  0.1091835E+00
         21   -1    0    0  501  502  0.00000000000E+00  0.00000000000E+00  0.59169941976E+03  0.59169941976E+03  0.00000000000E+00 0. -1.
         21   -1    0    0  502  503 -0.00000000000E+00 -0.00000000000E+00 -0.15371134777E+03  0.15371134777E+03  0.00000000000E+00 0. -1.
         -6    2    1    2    0  503  0.18522034641E+03  0.13183330630E+03  0.10120131599E+03  0.30231247917E+03  0.17165235602E+03 0.  0.
        -24    2    3    3    0    0  0.10968512446E+03  0.14646044450E+03  0.39784051643E+02  0.20375440854E+03  0.80321851950E+02 0.  0.
          6    2    1    2  501    0 -0.18522034641E+03 -0.13183330630E+03  0.33678675601E+03  0.44309828836E+03  0.17670364102E+03 0.  0.
         24    2    5    5    0    0 -0.16046296903E+03 -0.16160662524E+03  0.25187734425E+03  0.34965805901E+03  0.83387624580E+02 0.  0.
          5    1    5    5  501    0 -0.24757377383E+02  0.29773318941E+02  0.84909411756E+02  0.93440229347E+02  0.47000000000E+01 0. -1.
        -13    1    6    6    0    0 -0.15645157600E+02 -0.61354022879E+02  0.92665821432E+02  0.11223208784E+03  0.00000000000E+00 0.  1.
         14    1    6    6    0    0 -0.14481781143E+03 -0.10025260236E+03  0.15921152282E+03  0.23742597117E+03  0.00000000000E+00 0. -1.
         -5    1    3    3    0  503  0.75535221952E+02 -0.14627138201E+02  0.61417264346E+02  0.98558070634E+02  0.47000000000E+01 0.  1.
         11    1    4    4    0    0  0.10282463930E+03  0.73137277358E+02  0.25941632982E+02  0.12882133405E+03  0.00000000000E+00 0. -1.
        -12    1    4    4    0    0  0.68604851646E+01  0.73323167146E+02  0.13842418661E+02  0.74933074482E+02  0.00000000000E+00 0.  1.
<mgrwt>
<rscale>  2 0.28717123E+03</rscale>
<asrwt>0</asrwt>
<pdfrwt beam="1">  1       21 0.91030679E-01 0.28794231E+03</pdfrwt>
<pdfrwt beam="2">  1       21 0.23647900E-01 0.28794231E+03</pdfrwt>
<totfact> 0.16370371E+04</totfact>
</mgrwt>
</event>
<event>
12    1  0.1026879E-001  0.2417054E+03  0.7546771E-02  0.1118673E+00
         21   -1    0    0  501  502  0.00000000000E+00  0.00000000000E+00  0.17438481070E+03  0.17438481070E+03  0.00000000000E+00 0.  1.
         21   -1    0    0  502  503 -0.00000000000E+00 -0.00000000000E+00 -0.35689990781E+03  0.35689990781E+03  0.00000000000E+00 0. -1.
         -6    2    1    2    0  503 -0.11042337480E+03 -0.12763199497E+03 -0.15716530710E+03  0.28825367217E+03  0.17293350722E+03 0.  0.
        -24    2    3    3    0    0 -0.15409377096E+02 -0.10147571814E+02 -0.18215909842E+02  0.82926434708E+02  0.78768979211E+02 0.  0.
          6    2    1    2  501    0  0.11042337480E+03  0.12763199497E+03 -0.25349790014E+02  0.24303104635E+03  0.17302667364E+03 0.  0.
         24    2    5    5    0    0  0.94801003116E+02  0.15438765942E+03  0.32117111901E+01  0.20063088799E+03  0.86137439906E+02 0.  0.
          5    1    5    5  501    0  0.15622371686E+02 -0.26755664453E+02 -0.28561501205E+02  0.42400158354E+02  0.47000000000E+01 0. -1.
        -13    1    6    6    0    0  0.39079879186E+02  0.12698096995E+03 -0.19964776452E+02  0.13435027349E+03  0.00000000000E+00 0.  1.
         14    1    6    6    0    0  0.55721123930E+02  0.27406689472E+02  0.23176487642E+02  0.66280614506E+02  0.00000000000E+00 0. -1.
         -5    1    3    3    0  503 -0.95013997705E+02 -0.11748442316E+03 -0.13894939726E+03  0.20532723746E+03  0.47000000000E+01 0.  1.
         13    1    4    4    0    0  0.22978296360E+02  0.14693335869E+02 -0.24636360214E+02  0.36753863296E+02  0.00000000000E+00 0. -1.
        -14    1    4    4    0    0 -0.38387673456E+02 -0.24840907683E+02  0.64204503726E+01  0.46172571413E+02  0.00000000000E+00 0.  1.
<mgrwt>
<rscale>  2 0.24168868E+03</rscale>
<asrwt>0</asrwt>
<pdfrwt beam="1">  1       21 0.26828432E-01 0.24170535E+03</pdfrwt>
<pdfrwt beam="2">  1       21 0.54907678E-01 0.24170535E+03</pdfrwt>
<totfact> 0.40457213E+04</totfact>
</mgrwt>
</event>
<event>
12    1  0.1026879E-001  0.1893148E+03  0.7546771E-02  0.1159105E+00
         21   -1    0    0  501  502  0.00000000000E+00  0.00000000000E+00  0.25741947613E+03  0.25741947613E+03  0.00000000000E+00 0.  1.
         21   -1    0    0  502  503 -0.00000000000E+00 -0.00000000000E+00 -0.62800582818E+03  0.62800582818E+03  0.00000000000E+00 0.  1.
         -6    2    1    2    0  503 -0.28719251556E+02  0.70810722742E+02 -0.57590380965E+03  0.60622215060E+03  0.17320838332E+03 0.  0.
        -24    2    3    3    0    0  0.96891749776E+01  0.35229823017E+02 -0.13136743878E+03  0.15858850277E+03  0.80980792142E+02 0.  0.
          6    2    1    2  501    0  0.28719251556E+02 -0.70810722742E+02  0.20531745759E+03  0.27920315370E+03  0.17309011750E+03 0.  0.
         24    2    5    5    0    0  0.95674044452E+01 -0.10689926307E+03  0.19598951672E+03  0.23703353820E+03  0.79082361465E+02 0.  0.
          5    1    5    5  501    0  0.19151847111E+02  0.36088540324E+02  0.93279408724E+01  0.42169615500E+02  0.47000000000E+01 0. -1.
        -13    1    6    6    0    0  0.88702911304E+00  0.11036304105E+02  0.38677647596E+02  0.40231172646E+02  0.00000000000E+00 0.  1.
         14    1    6    6    0    0  0.86803753322E+01 -0.11793556717E+03  0.15731186913E+03  0.19680236555E+03  0.00000000000E+00 0. -1.
         -5    1    3    3    0  503 -0.38408426534E+02  0.35580899725E+02 -0.44453637087E+03  0.44763364784E+03  0.47000000000E+01 0.  1.
         11    1    4    4    0    0 -0.10687520169E+02 -0.16804611415E+02 -0.51752907283E+01  0.20576726812E+02  0.00000000000E+00 0. -1.
        -12    1    4    4    0    0  0.20376695146E+02  0.52034434432E+02 -0.12619214805E+03  0.13801177595E+03  0.00000000000E+00 0.  1.
<mgrwt>
<rscale>  2 0.18928776E+03</rscale>
<asrwt>0</asrwt>
<pdfrwt beam="1">  1       21 0.39602997E-01 0.18931481E+03</pdfrwt>
<pdfrwt beam="2">  1       21 0.96616280E-01 0.18931481E+03</pdfrwt>
<totfact> 0.54869023E+03</totfact>
</mgrwt>
</event>
<event>
12    1  0.1026879E-001  0.2199720E+03  0.7546771E-02  0.1133934E+00
         21   -1    0    0  501  502  0.00000000000E+00  0.00000000000E+00  0.86807893067E+03  0.86807893067E+03  0.00000000000E+00 0. -1.
         21   -1    0    0  502  503 -0.00000000000E+00 -0.00000000000E+00 -0.94155354492E+02  0.94155354492E+02  0.00000000000E+00 0. -1.
         -6    2    1    2    0  503 -0.10637381921E+03  0.85497253613E+02  0.79572919528E+02  0.23392209459E+03  0.17251819332E+03 0.  0.
        -24    2    3    3    0    0 -0.60444208153E+02  0.89644737493E+01  0.99871752726E+02  0.14226551711E+03  0.80816126345E+02 0.  0.
          6    2    1    2  501    0  0.10637381921E+03 -0.85497253613E+02  0.69435065665E+03  0.72831219058E+03  0.17230972915E+03 0.  0.
         24    2    5    5    0    0  0.13455574382E+03 -0.91755007212E+02  0.65028693617E+03  0.67542474577E+03  0.82469741773E+02 0.  0.
          5    1    5    5  501    0 -0.28181924612E+02  0.62577535989E+01  0.44063720486E+02  0.52887444805E+02  0.47000000000E+01 0. -1.
        -13    1    6    6    0    0  0.69939609169E+02 -0.78557216041E+00  0.21658521631E+03  0.22759903773E+03  0.00000000000E+00 0.  1.
         14    1    6    6    0    0  0.64616134653E+02 -0.90969435052E+02  0.43370171986E+03  0.44782570804E+03  0.00000000000E+00 0. -1.
         -5    1    3    3    0  503 -0.45929611058E+02  0.76532779864E+02 -0.20298833199E+02  0.91656577477E+02  0.47000000000E+01 0.  1.
         13    1    4    4    0    0 -0.47743905120E+02  0.15428495786E+02  0.98623278620E+01  0.51134963275E+02  0.00000000000E+00 0. -1.
        -14    1    4    4    0    0 -0.12700303033E+02 -0.64640220364E+01  0.90009424864E+02  0.91130553836E+02  0.00000000000E+00 0.  1.
<mgrwt>
<rscale>  2 0.21993116E+03</rscale>
<asrwt>0</asrwt>
<pdfrwt beam="1">  1       21 0.13355060E+00 0.21997204E+03</pdfrwt>
<pdfrwt beam="2">  1       21 0.14485440E-01 0.21997204E+03</pdfrwt>
<totfact> 0.16577971E+04</totfact>
</mgrwt>
</event>
<event>
12    1  0.1026879E-001  0.1821009E+03  0.7546771E-02  0.1166475E+00
         21   -1    0    0  503  502  0.00000000000E+00  0.00000000000E+00  0.12062904554E+03  0.12062904554E+03  0.00000000000E+00 0. -1.
         21   -1    0    0  501  503 -0.00000000000E+00 -0.00000000000E+00 -0.33344789370E+03  0.33344789370E+03  0.00000000000E+00 0. -1.
          6    2    1    2  501    0 -0.28821825914E+02 -0.26369718214E+02 -0.20430272117E+03  0.27177699954E+03  0.17492019869E+03 0.  0.
         24    2    3    3    0    0 -0.56692595550E+02 -0.28444272923E+02 -0.21726635508E+03  0.24061244625E+03  0.81648963163E+02 0.  0.
         -6    2    1    2    0  502  0.28821825914E+02  0.26369718214E+02 -0.85161269838E+01  0.18229993970E+03  0.17786141770E+03 0.  0.
        -24    2    5    5    0    0 -0.21957298531E+02  0.70330200405E+02  0.18630553530E+02  0.10970465241E+03  0.79117338097E+02 0.  0.
          5    1    3    3  501    0  0.27870769636E+02  0.20745547089E+01  0.12963633913E+02  0.31164553287E+02  0.47000000000E+01 0. -1.
        -13    1    4    4    0    0 -0.16533258178E+02  0.22739524336E+02 -0.24946844545E+02  0.37586961113E+02  0.00000000000E+00 0.  1.
         14    1    4    4    0    0 -0.40159337373E+02 -0.51183797259E+02 -0.19231951054E+03  0.20302548514E+03  0.00000000000E+00 0. -1.
         -5    1    5    5    0  502  0.50779124445E+02 -0.43960482190E+02 -0.27146680514E+02  0.72595287290E+02  0.47000000000E+01 0.  1.
         13    1    6    6    0    0 -0.36607556753E+02  0.25478477851E+01 -0.36217907564E+01  0.36874409935E+02  0.00000000000E+00 0. -1.
        -14    1    6    6    0    0  0.14650258222E+02  0.67782352619E+02  0.22252344286E+02  0.72830242474E+02  0.00000000000E+00 0.  1.
<mgrwt>
<rscale>  2 0.18137872E+03</rscale>
<asrwt>0</asrwt>
<pdfrwt beam="1">  1       21 0.18558315E-01 0.18210092E+03</pdfrwt>
<pdfrwt beam="2">  1       21 0.51299676E-01 0.18210092E+03</pdfrwt>
<totfact> 0.96209304E+04</totfact>
</mgrwt>
</event>
<event>
12    1  0.1026879E-001  0.1908885E+03  0.7546771E-02  0.1158598E+00
         21   -1    0    0  501  502  0.00000000000E+00  0.00000000000E+00  0.44563654547E+03  0.44563654547E+03  0.00000000000E+00 0.  1.
         21   -1    0    0  502  503 -0.00000000000E+00 -0.00000000000E+00 -0.32758598392E+03  0.32758598392E+03  0.00000000000E+00 0.  1.
         -6    2    1    2    0  503 -0.40017475124E+02 -0.71913863754E+02 -0.27691082683E+03  0.33633023702E+03  0.17223652401E+03 0.  0.
        -24    2    3    3    0    0 -0.28361210749E+02  0.16326772523E+02 -0.58079138678E+02  0.10004296244E+03  0.74595483828E+02 0.  0.
          6    2    1    2  501    0  0.40017475124E+02  0.71913863754E+02  0.39496138838E+03  0.43689229237E+03  0.16765254161E+03 0.  0.
         24    2    5    5    0    0  0.32774827990E+01  0.54673600564E+02  0.12265763751E+03  0.16154074171E+03  0.89724972568E+02 0.  0.
          5    1    5    5  501    0  0.36739992325E+02  0.17240263190E+02  0.27230375087E+03  0.27535155066E+03  0.47000000000E+01 0. -1.
        -11    1    6    6    0    0  0.98025655584E+01  0.76805317200E+02  0.11191580096E+03  0.13608928520E+03  0.00000000000E+00 0.  1.
         12    1    6    6    0    0 -0.65250827594E+01 -0.22131716636E+02  0.10741836550E+02  0.25451456515E+02  0.00000000000E+00 0. -1.
         -5    1    3    3    0  503 -0.11656264375E+02 -0.88240636277E+02 -0.21883168816E+03  0.23628727459E+03  0.47000000000E+01 0.  1.
         11    1    4    4    0    0 -0.29163818721E+02 -0.26024697723E+02 -0.28719984796E+02  0.48504131171E+02  0.00000000000E+00 0. -1.
        -12    1    4    4    0    0  0.80260797214E+00  0.42351470246E+02 -0.29359153882E+02  0.51538831266E+02  0.00000000000E+00 0.  1.
<mgrwt>
<rscale>  2 0.18984864E+03</rscale>
<asrwt>0</asrwt>
<pdfrwt beam="1">  1       21 0.68559468E-01 0.19088851E+03</pdfrwt>
<pdfrwt beam="2">  1       21 0.50397844E-01 0.19088851E+03</pdfrwt>
<totfact> 0.72794029E+03</totfact>
</mgrwt>
</event>
<event>
12    1  0.1026879E-001  0.1977717E+03  0.7546771E-02  0.1151644E+00
         21   -1    0    0  503  502  0.00000000000E+00  0.00000000000E+00  0.11889807544E+04  0.11889807544E+04  0.00000000000E+00 0. -1.
         21   -1    0    0  501  503 -0.00000000000E+00 -0.00000000000E+00 -0.35961732402E+02  0.35961732402E+02  0.00000000000E+00 0. -1.
          6    2    1    2  501    0  0.78826889921E+02  0.55934496215E+02  0.39739378291E+03  0.44386428288E+03  0.17248575731E+03 0.  0.
         24    2    3    3    0    0  0.41967036582E+02  0.33830777760E+02  0.38509012514E+03  0.39891216221E+03  0.89054786487E+02 0.  0.
         -6    2    1    2    0  502 -0.78826889921E+02 -0.55934496215E+02  0.75562523911E+03  0.78107820395E+03  0.17254365322E+03 0.  0.
        -24    2    5    5    0    0 -0.76922492351E+02 -0.46549304113E+01  0.68245530973E+03  0.69158435408E+03  0.81270725501E+02 0.  0.
          5    1    3    3  501    0  0.36859853338E+02  0.22103718455E+02  0.12303657771E+02  0.44952120664E+02  0.47000000000E+01 0. -1.
        -13    1    4    4    0    0  0.61760229046E+02  0.25393621619E+02  0.16840320201E+03  0.18115959914E+03  0.00000000000E+00 0.  1.
         14    1    4    4    0    0 -0.19793192464E+02  0.84371561406E+01  0.21668692313E+03  0.21775256308E+03  0.00000000000E+00 0. -1.
         -5    1    5    5    0  502 -0.19043975692E+01 -0.51279565804E+02  0.73169929379E+02  0.89493849869E+02  0.47000000000E+01 0.  1.
         11    1    6    6    0    0 -0.82265025845E+02 -0.28811273231E+02  0.54302282501E+03  0.54997401068E+03  0.00000000000E+00 0. -1.
        -12    1    6    6    0    0  0.53425334933E+01  0.24156342820E+02  0.13943248473E+03  0.14161034340E+03  0.00000000000E+00 0.  1.
<mgrwt>
<rscale>  2 0.19775911E+03</rscale>
<asrwt>0</asrwt>
<pdfrwt beam="1">  1       21 0.18292009E+00 0.19777173E+03</pdfrwt>
<pdfrwt beam="2">  1       21 0.55325751E-02 0.19777173E+03</pdfrwt>
<totfact> 0.39243906E+04</totfact>
</mgrwt>
</event>
<event>
12    1  0.1026879E-001  0.2196567E+03  0.7546771E-02  0.1134675E+00
         21   -1    0    0  501  502  0.00000000000E+00  0.00000000000E+00  0.29333614995E+03  0.29333614995E+03  0.00000000000E+00 0.  1.
         21   -1    0    0  502  503 -0.00000000000E+00 -0.00000000000E+00 -0.38686100058E+03  0.38686100058E+03  0.00000000000E+00 0.  1.
         -6    2    1    2    0  503 -0.12375273511E+03 -0.39569893594E+02 -0.30571564610E+03  0.37478925371E+03  0.17356385712E+03 0.  0.
        -24    2    3    3    0    0 -0.42865718086E+02  0.21418639554E+02 -0.22740566414E+03  0.24666098215E+03  0.82656373757E+02 0.  0.
          6    2    1    2  501    0  0.12375273511E+03  0.39569893594E+02  0.21219079547E+03  0.30540789683E+03  0.17711164229E+03 0.  0.
         24    2    5    5    0    0  0.15729284208E+03  0.43579422949E+02  0.19851621697E+03  0.26866420079E+03  0.78304278996E+02 0.  0.
          5    1    5    5  501    0 -0.33540106973E+02 -0.40095293546E+01  0.13674578503E+02  0.36743696040E+02  0.47000000000E+01 0. -1.
        -11    1    6    6    0    0  0.26945806049E+02  0.29172944053E+01  0.90770742143E+02  0.94730748437E+02  0.00000000000E+00 0.  1.
         12    1    6    6    0    0  0.13034703603E+03  0.40662128543E+02  0.10774547483E+03  0.17393345235E+03  0.00000000000E+00 0. -1.
         -5    1    3    3    0  503 -0.80887017024E+02 -0.60988533148E+02 -0.78309981960E+02  0.12812827156E+03  0.47000000000E+01 0.  1.
         11    1    4    4    0    0  0.64166389008E+01  0.28614431290E+02 -0.16102506715E+03  0.16367355066E+03  0.00000000000E+00 0. -1.
        -12    1    4    4    0    0 -0.49282356987E+02 -0.71957917356E+01 -0.66380596990E+02  0.82987431492E+02  0.00000000000E+00 0.  1.
<mgrwt>
<rscale>  2 0.21894055E+03</rscale>
<asrwt>0</asrwt>
<pdfrwt beam="1">  1       21 0.45128639E-01 0.21965666E+03</pdfrwt>
<pdfrwt beam="2">  1       21 0.59517077E-01 0.21965666E+03</pdfrwt>
<totfact> 0.12206794E+04</totfact>
</mgrwt>
</event>
<event>
12    1  0.1026879E-001  0.1930153E+03  0.7546771E-02  0.1156439E+00
         21   -1    0    0  503  502  0.00000000000E+00  0.00000000000E+00  0.14129129326E+04  0.14129129326E+04  0.00000000000E+00 0. -1.
         21   -1    0    0  501  503 -0.00000000000E+00 -0.00000000000E+00 -0.27262334290E+02  0.27262334290E+02  0.00000000000E+00 0. -1.
          6    2    1    2  501    0 -0.81692324242E+01 -0.78932275462E+02  0.54052615158E+03  0.57395418907E+03  0.17594843034E+03 0.  0.
         24    2    3    3    0    0  0.63207993595E+02 -0.38564886461E+02  0.26122945392E+03  0.28283055586E+03  0.79182035906E+02 0.  0.
         -6    2    1    2    0  502  0.81692324242E+01  0.78932275462E+02  0.84512444668E+03  0.86622107777E+03  0.17264583613E+03 0.  0.
        -24    2    5    5    0    0 -0.33858408959E+02  0.68228622263E+02  0.78054967329E+03  0.78829237837E+03  0.79658926504E+02 0.  0.
          5    1    3    3  501    0 -0.71377226019E+02 -0.40367389001E+02  0.27929669766E+03  0.29112363321E+03  0.47000000000E+01 0. -1.
        -11    1    4    4    0    0  0.93180960497E+01  0.12661744790E+02  0.57304038256E+01  0.16732729100E+02  0.00000000000E+00 0.  1.
         12    1    4    4    0    0  0.53889897545E+02 -0.51226631252E+02  0.25549905010E+03  0.26609782676E+03  0.00000000000E+00 0. -1.
         -5    1    5    5    0  502  0.42027641383E+02  0.10703653200E+02  0.64574773394E+02  0.77928699405E+02  0.47000000000E+01 0.  1.
         11    1    6    6    0    0  0.11768187152E+02  0.78338601232E+01  0.23188384617E+02  0.27158070153E+02  0.00000000000E+00 0. -1.
        -12    1    6    6    0    0 -0.45626596111E+02  0.60394762140E+02  0.75736128867E+03  0.76113430822E+03  0.00000000000E+00 0.  1.
<mgrwt>
<rscale>  2 0.19225940E+03</rscale>
<asrwt>0</asrwt>
<pdfrwt beam="1">  1       21 0.21737116E+00 0.19301526E+03</pdfrwt>
<pdfrwt beam="2">  1       21 0.41942064E-02 0.19301526E+03</pdfrwt>
<totfact> 0.37776882E+04</totfact>
</mgrwt>
</event>
<event>
12    1  0.1026879E-001  0.1897290E+03  0.7546771E-02  0.1158908E+00
         21   -1    0    0  503  502  0.00000000000E+00  0.00000000000E+00  0.37520155322E+03  0.37520155322E+03  0.00000000000E+00 0.  1.
         21   -1    0    0  501  503 -0.00000000000E+00 -0.00000000000E+00 -0.15418523130E+03  0.15418523130E+03  0.00000000000E+00 0.  1.
          6    2    1    2  501    0 -0.22495362977E+02  0.72070229358E+02 -0.52964562351E+02  0.19612620842E+03  0.17308981903E+03 0.  0.
         24    2    3    3    0    0 -0.67795946617E+02  0.39791272087E+02 -0.76857153560E+02  0.13540537283E+03  0.79044020808E+02 0.  0.
         -6    2    1    2    0  502  0.22495362977E+02 -0.72070229358E+02  0.27398088428E+03  0.33326057610E+03  0.17406012558E+03 0.  0.
        -24    2    5    5    0    0  0.46525876608E+02  0.56465522291E+01  0.20800835628E+03  0.22841865616E+03  0.81921092853E+02 0.  0.
          5    1    3    3  501    0  0.45300583640E+02  0.32278957270E+02  0.23892591209E+02  0.60720835594E+02  0.47000000000E+01 0. -1.
        -11    1    4    4    0    0 -0.69726261791E+02  0.18952115566E+02 -0.86206762819E+02  0.11248351090E+03  0.00000000000E+00 0.  1.
         12    1    4    4    0    0  0.19303151738E+01  0.20839156521E+02  0.93496092587E+01  0.22921861933E+02  0.00000000000E+00 0. -1.
         -5    1    5    5    0  502 -0.24030513631E+02 -0.77716781587E+02  0.65972528004E+02  0.10484191994E+03  0.47000000000E+01 0.  1.
         13    1    6    6    0    0  0.35634017766E+02 -0.54798447077E+01  0.23018188539E+02  0.42774395656E+02  0.00000000000E+00 0. -1.
        -14    1    6    6    0    0  0.10891858842E+02  0.11126396937E+02  0.18499016774E+03  0.18564426050E+03  0.00000000000E+00 0.  1.
<mgrwt>
<rscale>  2 0.18950615E+03</rscale>
<asrwt>0</asrwt>
<pdfrwt beam="1">  1       21 0.57723316E-01 0.18972898E+03</pdfrwt>
<pdfrwt beam="2">  1       21 0.23720805E-01 0.18972898E+03</pdfrwt>
<totfact> 0.47187643E+04</totfact>
</mgrwt>
</event>
<event>
12    1  0.1026879E-001  0.2493867E+03  0.7546771E-02  0.1113980E+00
         21   -1    0    0  501  502  0.00000000000E+00  0.00000000000E+00  0.46636786319E+03  0.46636786319E+03  0.00000000000E+00 0.  1.
         21   -1    0    0  502  503 -0.00000000000E+00 -0.00000000000E+00 -0.56690567643E+03  0.56690567643E+03  0.00000000000E+00 0.  1.
         -6    2    1    2    0  503 -0.25147455254E+02 -0.17793159482E+03 -0.50252916951E+03  0.56020825601E+03  0.17031053094E+03 0.  0.
        -24    2    3    3    0    0 -0.41814514650E+02 -0.73371388737E+02 -0.14442884869E+03  0.18675336270E+03  0.82977779101E+02 0.  0.
          6    2    1    2  501    0  0.25147455254E+02  0.17793159482E+03  0.40199135628E+03  0.47306528361E+03  0.17292097934E+03 0.  0.
         24    2    5    5    0    0 -0.35759191449E+02  0.69614935645E+02  0.11266221785E+03  0.15814377179E+03  0.78687471596E+02 0.  0.
          5    1    5    5  501    0  0.60906646703E+02  0.10831665918E+03  0.28932913843E+03  0.31492151183E+03  0.47000000000E+01 0. -1.
        -13    1    6    6    0    0 -0.49591356076E+02  0.67858719854E+02  0.11652639695E+03  0.14367501399E+03  0.00000000000E+00 0.  1.
         14    1    6    6    0    0  0.13832164627E+02  0.17562157913E+01 -0.38641791002E+01  0.14468757801E+02  0.00000000000E+00 0. -1.
         -5    1    3    3    0  503  0.16667059396E+02 -0.10456020609E+03 -0.35810032083E+03  0.37345489332E+03  0.47000000000E+01 0.  1.
         11    1    4    4    0    0 -0.12099007687E+02  0.16369639778E+02 -0.45888095753E+02  0.50200283120E+02  0.00000000000E+00 0. -1.
        -12    1    4    4    0    0 -0.29715506963E+02 -0.89741028514E+02 -0.98540752935E+02  0.13655307958E+03  0.00000000000E+00 0.  1.
<mgrwt>
<rscale>  2 0.24893472E+03</rscale>
<asrwt>0</asrwt>
<pdfrwt beam="1">  1       21 0.71748902E-01 0.24938667E+03</pdfrwt>
<pdfrwt beam="2">  1       21 0.87216258E-01 0.24938667E+03</pdfrwt>
<totfact> 0.18918833E+03</totfact>
</mgrwt>
</event>
<event>
12    1  0.1026879E-001  0.2450789E+03  0.7546771E-02  0.1116857E+00
         21   -1    0    0  501  502  0.00000000000E+00  0.00000000000E+00  0.41508634177E+03  0.41508634177E+03  0.00000000000E+00 0.  1.
         21   -1    0    0  502  503 -0.00000000000E+00 -0.00000000000E+00 -0.16704607064E+03  0.16704607064E+03  0.00000000000E+00 0.  1.
         -6    2    1    2    0  503 -0.17366521852E+03 -0.67314800642E+01  0.14701659245E+02  0.24551949797E+03  0.17279688698E+03 0.  0.
        -24    2    3    3    0    0 -0.15394046033E+03 -0.80470090653E-01 -0.47154701530E+02  0.18008555122E+03  0.80681894363E+02 0.  0.
          6    2    1    2  501    0  0.17366521852E+03  0.67314800642E+01  0.23333861189E+03  0.33661291444E+03  0.16928208830E+03 0.  0.
         24    2    5    5    0    0  0.19176028730E+03 -0.16388869213E+02  0.22051311434E+03  0.30423135407E+03  0.83006508060E+02 0.  0.
          5    1    5    5  501    0 -0.18095068777E+02  0.23120349277E+02  0.12825497542E+02  0.32381560370E+02  0.47000000000E+01 0. -1.
        -11    1    6    6    0    0  0.81074268353E+02 -0.67571537431E+01  0.15551883707E+03  0.17551297616E+03  0.00000000000E+00 0.  1.
         12    1    6    6    0    0  0.11068601895E+03 -0.96317154700E+01  0.64994277271E+02  0.12871837791E+03  0.00000000000E+00 0. -1.
         -5    1    3    3    0  503 -0.19724758192E+02 -0.66510099736E+01  0.61856360775E+02  0.65433946754E+02  0.47000000000E+01 0.  1.
         13    1    4    4    0    0  0.26404310149E+01  0.15165758078E+02  0.13591705378E+01  0.15453783956E+02  0.00000000000E+00 0. -1.
        -14    1    4    4    0    0 -0.15658089135E+03 -0.15246228168E+02 -0.48513872068E+02  0.16463176726E+03  0.00000000000E+00 0.  1.
<mgrwt>
<rscale>  2 0.24446026E+03</rscale>
<asrwt>0</asrwt>
<pdfrwt beam="1">  1       21 0.63859437E-01 0.24507894E+03</pdfrwt>
<pdfrwt beam="2">  1       21 0.25699396E-01 0.24507894E+03</pdfrwt>
<totfact> 0.31697729E+04</totfact>
</mgrwt>
</event>
<event>
12    1  0.1026879E-001  0.2162650E+03  0.7546771E-02  0.1136779E+00
         21   -1    0    0  503  502  0.00000000000E+00  0.00000000000E+00  0.19689257978E+03  0.19689257978E+03  0.00000000000E+00 0.  1.
         21   -1    0    0  501  503 -0.00000000000E+00 -0.00000000000E+00 -0.54289244184E+03  0.54289244184E+03  0.00000000000E+00 0. -1.
          6    2    1    2  501    0 -0.44082444139E+00  0.12902596632E+03 -0.45054335422E+03  0.49957698534E+03  0.17303166167E+03 0.  0.
         24    2    3    3    0    0 -0.28914480399E+02  0.10224703152E+03 -0.16871495499E+03  0.21501205945E+03  0.80467055625E+02 0.  0.
         -6    2    1    2    0  502  0.44082444139E+00 -0.12902596632E+03  0.10454349216E+03  0.24020803627E+03  0.17355882180E+03 0.  0.
        -24    2    5    5    0    0 -0.55670421329E+02 -0.45808691702E+02  0.21319762301E+02  0.10974016318E+03  0.79942098445E+02 0.  0.
          5    1    3    3  501    0  0.28473655957E+02  0.26778934799E+02 -0.28182839923E+03  0.28456492589E+03  0.47000000000E+01 0. -1.
        -13    1    4    4    0    0 -0.32155486955E+02  0.97198117207E+01 -0.80080447131E+02  0.86840820435E+02  0.00000000000E+00 0.  1.
         14    1    4    4    0    0  0.32410065559E+01  0.92527219802E+02 -0.88634507855E+02  0.12817123901E+03  0.00000000000E+00 0. -1.
         -5    1    5    5    0  502  0.56111245770E+02 -0.83217274620E+02  0.83223729862E+02  0.13046787309E+03  0.47000000000E+01 0.  1.
         11    1    6    6    0    0 -0.30767850199E+02  0.78338140006E+01  0.36803531605E+02  0.48605855473E+02  0.00000000000E+00 0. -1.
        -12    1    6    6    0    0 -0.24902571130E+02 -0.53642505703E+02 -0.15483769305E+02  0.61134307707E+02  0.00000000000E+00 0.  1.
<mgrwt>
<rscale>  2 0.21615923E+03</rscale>
<asrwt>0</asrwt>
<pdfrwt beam="1">  1       21 0.30291167E-01 0.21626502E+03</pdfrwt>
<pdfrwt beam="2">  1       21 0.83521912E-01 0.21626502E+03</pdfrwt>
<totfact> 0.12844513E+04</totfact>
</mgrwt>
</event>
<event>
12    1  0.1026879E-001  0.1780160E+03  0.7546771E-02  0.1169852E+00
         21   -1    0    0  503  502  0.00000000000E+00  0.00000000000E+00  0.59989619302E+02  0.59989619302E+02  0.00000000000E+00 0. -1.
         21   -1    0    0  501  503 -0.00000000000E+00 -0.00000000000E+00 -0.16035080687E+04  0.16035080687E+04  0.00000000000E+00 0. -1.
          6    2    1    2  501    0 -0.41109079629E+02  0.33095541776E+01 -0.14529672578E+04  0.14637748856E+04  0.17269091985E+03 0.  0.
         24    2    3    3    0    0  0.12837849517E+02  0.42482441773E+02 -0.11415657258E+04  0.11452818866E+04  0.80800526684E+02 0.  0.
         -6    2    1    2    0  502  0.41109079629E+02 -0.33095541776E+01 -0.90551191534E+02  0.19972280237E+03  0.17317265928E+03 0.  0.
        -24    2    5    5    0    0  0.50336484051E+02  0.46439667903E+02 -0.15034162964E+02  0.10870059797E+03  0.83062564142E+02 0.  0.
          5    1    3    3  501    0 -0.53946929146E+02 -0.39172887595E+02 -0.31140153202E+03  0.31849299903E+03  0.47000000000E+01 0. -1.
        -11    1    4    4    0    0  0.23627321028E+02  0.26053089384E+02 -0.17412824218E+03  0.17764475362E+03  0.00000000000E+00 0.  1.
         12    1    4    4    0    0 -0.10789471512E+02  0.16429352388E+02 -0.96743748362E+03  0.96763713293E+03  0.00000000000E+00 0. -1.
         -5    1    5    5    0  502 -0.92274044220E+01 -0.49749222081E+02 -0.75517028569E+02  0.91022204401E+02  0.47000000000E+01 0.  1.
         11    1    6    6    0    0  0.66883228379E+02  0.10099901358E+02 -0.11534508858E+02  0.68617921423E+02  0.00000000000E+00 0. -1.
        -12    1    6    6    0    0 -0.16546744328E+02  0.36339766545E+02 -0.34996541067E+01  0.40082676548E+02  0.00000000000E+00 0.  1.
<mgrwt>
<rscale>  2 0.17789869E+03</rscale>
<asrwt>0</asrwt>
<pdfrwt beam="1">  1       21 0.92291714E-02 0.17801595E+03</pdfrwt>
<pdfrwt beam="2">  1       21 0.24669357E+00 0.17801595E+03</pdfrwt>
<totfact> 0.65985122E+03</totfact>
</mgrwt>
</event>
<event>
12    1  0.1026879E-001  0.2159811E+03  0.7546771E-02  0.1136969E+00
         21   -1    0    0  501  502  0.00000000000E+00  0.00000000000E+00  0.86239919687E+02  0.86239919687E+02  0.00000000000E+00 0. -1.
         21   -1    0    0  502  503 -0.00000000000E+00 -0.00000000000E+00 -0.54323362010E+03  0.54323362010E+03  0.00000000000E+00 0.  1.
         -6    2    1    2    0  503  0.75758299264E+02  0.10453864943E+03 -0.20486144386E+03  0.29748183244E+03  0.17279924861E+03 0.  0.
        -24    2    3    3    0    0  0.70886452442E+02  0.11749680992E+03 -0.91157027156E+02  0.18284138062E+03  0.79315681850E+02 0.  0.
          6    2    1    2  501    0 -0.75758299264E+02 -0.10453864943E+03 -0.25213225655E+03  0.33199170735E+03  0.17314782649E+03 0.  0.
         24    2    5    5    0    0 -0.24401971196E+02  0.10360252169E+02 -0.14107165197E+03  0.16407572266E+03  0.79478555308E+02 0.  0.
          5    1    5    5  501    0 -0.51356328069E+02 -0.11489890160E+03 -0.11106060458E+03  0.16791598468E+03  0.47000000000E+01 0. -1.
        -13    1    6    6    0    0  0.18537179894E+02 -0.20249725849E+02 -0.27494647899E+02  0.38854010070E+02  0.00000000000E+00 0.  1.
         14    1    6    6    0    0 -0.42939151089E+02  0.30609978019E+02 -0.11357700407E+03  0.12522171259E+03  0.00000000000E+00 0. -1.
         -5    1    3    3    0  503  0.48718468221E+01 -0.12958160487E+02 -0.11370441671E+03  0.11464045182E+03  0.47000000000E+01 0.  1.
         13    1    4    4    0    0 -0.54442850755E+01  0.63591054737E+02 -0.25971546921E+02  0.68905614662E+02  0.00000000000E+00 0. -1.
        -14    1    4    4    0    0  0.76330737518E+02  0.53905755184E+02 -0.65185480235E+02  0.11393576596E+03  0.00000000000E+00 0.  1.
<mgrwt>
<rscale>  2 0.21591119E+03</rscale>
<asrwt>0</asrwt>
<pdfrwt beam="1">  1       21 0.13267680E-01 0.21598106E+03</pdfrwt>
<pdfrwt beam="2">  1       21 0.83574402E-01 0.21598106E+03</pdfrwt>
<totfact> 0.60359241E+04</totfact>
</mgrwt>
</event>
<event>
12    1  0.1026879E-001  0.1911629E+03  0.7546771E-02  0.1157522E+00
         21   -1    0    0  501  502  0.00000000000E+00  0.00000000000E+00  0.60632954833E+03  0.60632954833E+03  0.00000000000E+00 0.  1.
         21   -1    0    0  502  503 -0.00000000000E+00 -0.00000000000E+00 -0.60121450595E+02  0.60121450595E+02  0.00000000000E+00 0.  1.
         -6    2    1    2    0  503 -0.75897943991E+02  0.27594787035E+02  0.27317469809E+03  0.33341814289E+03  0.17326647730E+03 0.  0.
        -24    2    3    3    0    0  0.14440260604E+02  0.52442481269E+02  0.15010176460E+03  0.17866855137E+03  0.80207085372E+02 0.  0.
          6    2    1    2  501    0  0.75897943991E+02 -0.27594787035E+02  0.27303339965E+03  0.33303285604E+03  0.17274743328E+03 0.  0.
         24    2    5    5    0    0  0.11351840971E+02  0.15086839736E+02  0.45621397298E+02  0.92770021852E+02  0.78539722665E+02 0.  0.
          5    1    5    5  501    0  0.64546103020E+02 -0.42681626772E+02  0.22741200235E+03  0.24026283419E+03  0.47000000000E+01 0. -1.
        -11    1    6    6    0    0 -0.12241317843E+02  0.23421700507E+02  0.58817112886E+02  0.64481615096E+02  0.00000000000E+00 0.  1.
         12    1    6    6    0    0  0.23593158814E+02 -0.83348607707E+01 -0.13195715588E+02  0.28288406755E+02  0.00000000000E+00 0. -1.
         -5    1    3    3    0  503 -0.90338204595E+02 -0.24847694234E+02  0.12307293349E+03  0.15474959152E+03  0.47000000000E+01 0.  1.
         13    1    4    4    0    0  0.46484630141E+01 -0.45161350351E+01 -0.80225757411E+01  0.10313360537E+02  0.00000000000E+00 0. -1.
        -14    1    4    4    0    0  0.97917975899E+01  0.56958616304E+02  0.15812434034E+03  0.16835519083E+03  0.00000000000E+00 0.  1.
<mgrwt>
<rscale>  2 0.19104518E+03</rscale>
<asrwt>0</asrwt>
<pdfrwt beam="1">  1       21 0.93281465E-01 0.19116287E+03</pdfrwt>
<pdfrwt beam="2">  1       21 0.92494543E-02 0.19116287E+03</pdfrwt>
<totfact> 0.90063824E+04</totfact>
</mgrwt>
</event>
<event>
12    1  0.1026879E-001  0.2637162E+03  0.7546771E-02  0.1105216E+00
         21   -1    0    0  501  502  0.00000000000E+00  0.00000000000E+00  0.10101244545E+04  0.10101244545E+04  0.00000000000E+00 0. -1.
         21   -1    0    0  502  503 -0.00000000000E+00 -0.00000000000E+00 -0.11766525294E+03  0.11766525294E+03  0.00000000000E+00 0. -1.
         -6    2    1    2    0  503 -0.16965229617E+03 -0.10011931250E+03  0.80212171579E+02  0.27380407794E+03  0.17242071307E+03 0.  0.
        -24    2    3    3    0    0 -0.17066753878E+03 -0.44329472325E+02  0.26838654915E+02  0.19644543740E+03  0.82328522219E+02 0.  0.
          6    2    1    2  501    0  0.16965229617E+03  0.10011931250E+03  0.81224703001E+03  0.85398562954E+03  0.17532951654E+03 0.  0.
         24    2    5    5    0    0  0.59193889317E+02  0.11150805411E+03  0.37664776142E+03  0.40443076540E+03  0.75912746969E+02 0.  0.
          5    1    5    5  501    0  0.11045840685E+03 -0.11388741608E+02  0.43559926859E+03  0.44955486415E+03  0.47000000000E+01 0. -1.
        -11    1    6    6    0    0  0.48382365396E+02  0.80120414650E+02  0.16088709823E+03  0.18613111643E+03  0.00000000000E+00 0.  1.
         12    1    6    6    0    0  0.10811523921E+02  0.31387639455E+02  0.21576066319E+03  0.21829964897E+03  0.00000000000E+00 0. -1.
         -5    1    3    3    0  503  0.10152426092E+01 -0.55789840172E+02  0.53373516663E+02  0.77358640532E+02  0.47000000000E+01 0.  1.
         13    1    4    4    0    0 -0.15580619575E+03 -0.31114327924E+02  0.49385776346E+02  0.16638096929E+03  0.00000000000E+00 0. -1.
        -14    1    4    4    0    0 -0.14861343021E+02 -0.13215144401E+02 -0.22547121431E+02  0.30064468110E+02  0.00000000000E+00 0.  1.
<mgrwt>
<rscale>  2 0.26323363E+03</rscale>
<asrwt>0</asrwt>
<pdfrwt beam="1">  1       21 0.15540376E+00 0.26371617E+03</pdfrwt>
<pdfrwt beam="2">  1       21 0.18102347E-01 0.26371617E+03</pdfrwt>
<totfact> 0.71931034E+03</totfact>
</mgrwt>
</event>
<event>
12    1  0.1026879E-001  0.2174034E+03  0.7546771E-02  0.1136284E+00
         21   -1    0    0  503  502  0.00000000000E+00  0.00000000000E+00  0.74202804387E+03  0.74202804387E+03  0.00000000000E+00 0.  1.
         21   -1    0    0  501  503 -0.00000000000E+00 -0.00000000000E+00 -0.94384773368E+02  0.94384773368E+02  0.00000000000E+00 0.  1.
          6    2    1    2  501    0  0.13314606438E+03 -0.87724664742E+01  0.83869071579E+02  0.23301985452E+03  0.17163741086E+03 0.  0.
         24    2    3    3    0    0  0.14313868920E+03 -0.40740137439E+02  0.98255915831E+02  0.19626586392E+03  0.81961095661E+02 0.  0.
         -6    2    1    2    0  502 -0.13314606438E+03  0.87724664742E+01  0.56377419892E+03  0.60339296271E+03  0.16863240927E+03 0.  0.
        -24    2    5    5    0    0 -0.58215373069E+02 -0.50486351358E+01  0.11998828888E+03  0.15308900392E+03  0.74996901773E+02 0.  0.
          5    1    3    3  501    0 -0.99926248155E+01  0.31967670965E+02 -0.14386844252E+02  0.36753990601E+02  0.47000000000E+01 0. -1.
        -11    1    4    4    0    0  0.19811089514E+02  0.10059443240E+02 -0.10112007568E+02  0.24411562078E+02  0.00000000000E+00 0.  1.
         12    1    4    4    0    0  0.12332759968E+03 -0.50799580679E+02  0.10836792340E+03  0.17185430184E+03  0.00000000000E+00 0. -1.
         -5    1    5    5    0  502 -0.74930691311E+02  0.13821101610E+02  0.44378591004E+03  0.45030395879E+03  0.47000000000E+01 0.  1.
         13    1    6    6    0    0 -0.49735966641E+02  0.29992289639E+02  0.84214026079E+02  0.10229958946E+03  0.00000000000E+00 0. -1.
        -14    1    6    6    0    0 -0.84794064279E+01 -0.35040924774E+02  0.35774262797E+02  0.50789414459E+02  0.00000000000E+00 0.  1.
<mgrwt>
<rscale>  2 0.21680983E+03</rscale>
<asrwt>0</asrwt>
<pdfrwt beam="1">  1       21 0.11415816E+00 0.21740338E+03</pdfrwt>
<pdfrwt beam="2">  1       21 0.14520735E-01 0.21740338E+03</pdfrwt>
<totfact> 0.24475345E+04</totfact>
</mgrwt>
</event>
<event>
12    1  0.1026879E-001  0.2169916E+03  0.7546771E-02  0.1136448E+00
         21   -1    0    0  501  502  0.00000000000E+00  0.00000000000E+00  0.12907985467E+04  0.12907985467E+04  0.00000000000E+00 0.  1.
         21   -1    0    0  502  503 -0.00000000000E+00 -0.00000000000E+00 -0.37052135225E+02  0.37052135225E+02  0.00000000000E+00 0.  1.
         -6    2    1    2    0  503  0.78158492456E+02 -0.10063428096E+03  0.72913508157E+03  0.76073867531E+03  0.17563984882E+03 0.  0.
        -24    2    3    3    0    0 -0.20081255491E+02 -0.30283470648E+02  0.40875097673E+03  0.41829400939E+03  0.81068932972E+02 0.  0.
          6    2    1    2  501    0 -0.78158492456E+02  0.10063428096E+03  0.52461132990E+03  0.56711200660E+03  0.17367490357E+03 0.  0.
         24    2    5    5    0    0 -0.62421586948E+02  0.13775940359E+03  0.37890725847E+03  0.41585827490E+03  0.80580931261E+02 0.  0.
          5    1    5    5  501    0 -0.15736905508E+02 -0.37125122629E+02  0.14570407143E+03  0.15125373171E+03  0.47000000000E+01 0. -1.
        -11    1    6    6    0    0 -0.52061296433E+02  0.77180145594E+02  0.13272582457E+03  0.16212124465E+03  0.00000000000E+00 0.  1.
         12    1    6    6    0    0 -0.10360290515E+02  0.60579257998E+02  0.24618143390E+03  0.25373703024E+03  0.00000000000E+00 0. -1.
         -5    1    3    3    0  503  0.98239747947E+02 -0.70350810315E+02  0.32038410483E+03  0.34244466592E+03  0.47000000000E+01 0.  1.
         11    1    4    4    0    0 -0.32069668541E+02  0.19555296902E+02  0.16872162680E+03  0.17285213516E+03  0.00000000000E+00 0. -1.
        -12    1    4    4    0    0  0.11988413050E+02 -0.49838767550E+02  0.24002934993E+03  0.24544187423E+03  0.00000000000E+00 0.  1.
<mgrwt>
<rscale>  2 0.21659368E+03</rscale>
<asrwt>0</asrwt>
<pdfrwt beam="1">  1       21 0.19858436E+00 0.21699162E+03</pdfrwt>
<pdfrwt beam="2">  1       21 0.57003295E-02 0.21699162E+03</pdfrwt>
<totfact> 0.29015814E+04</totfact>
</mgrwt>
</event>
<event>
12    1  0.1026879E-001  0.2585975E+03  0.7546771E-02  0.1108087E+00
         21   -1    0    0  501  502  0.00000000000E+00  0.00000000000E+00  0.74978594793E+03  0.74978594793E+03  0.00000000000E+00 0. -1.
         21   -1    0    0  502  503 -0.00000000000E+00 -0.00000000000E+00 -0.11689722657E+03  0.11689722657E+03  0.00000000000E+00 0.  1.
         -6    2    1    2    0  503  0.15526569007E+03 -0.11393298638E+03  0.10491954979E+03  0.27907131327E+03  0.17258194014E+03 0.  0.
        -24    2    3    3    0    0  0.53161452470E+02  0.29144327723E+01  0.78421277779E+02  0.12158212914E+03  0.76142520123E+02 0.  0.
          6    2    1    2  501    0 -0.15526569007E+03  0.11393298638E+03  0.52796917157E+03  0.58761186123E+03  0.17160446800E+03 0.  0.
         24    2    5    5    0    0 -0.11836476515E+03  0.14559422668E+03  0.46523576327E+03  0.50810284971E+03  0.80723565211E+02 0.  0.
          5    1    5    5  501    0 -0.36900924917E+02 -0.31661240303E+02  0.62733408293E+02  0.79509011523E+02  0.47000000000E+01 0. -1.
        -11    1    6    6    0    0  0.68280684905E+01  0.34692737040E+02  0.10829956904E+03  0.11392543692E+03  0.00000000000E+00 0.  1.
         12    1    6    6    0    0 -0.12519283364E+03  0.11090148964E+03  0.35693619423E+03  0.39417741279E+03  0.00000000000E+00 0. -1.
         -5    1    3    3    0  503  0.10210423760E+03 -0.11684741915E+03  0.26498272012E+02  0.15748918413E+03  0.47000000000E+01 0.  1.
         13    1    4    4    0    0 -0.21993585236E+01 -0.80116826338E+01  0.62361632432E+02  0.62912617463E+02  0.00000000000E+00 0. -1.
        -14    1    4    4    0    0  0.55360810994E+02  0.10926115406E+02  0.16059645347E+02  0.58669511677E+02  0.00000000000E+00 0.  1.
<mgrwt>
<rscale>  2 0.25843455E+03</rscale>
<asrwt>0</asrwt>
<pdfrwt beam="1">  1       21 0.11535168E+00 0.25859754E+03</pdfrwt>
<pdfrwt beam="2">  1       21 0.17984189E-01 0.25859754E+03</pdfrwt>
<totfact> 0.15740195E+04</totfact>
</mgrwt>
</event>
<event>
12    1  0.1026879E-001  0.3201051E+03  0.7546771E-02  0.1075724E+00
         21   -1    0    0  501  502  0.00000000000E+00  0.00000000000E+00  0.33371605363E+02  0.33371605363E+02  0.00000000000E+00 0. -1.
         21   -1    0    0  502  503 -0.00000000000E+00 -0.00000000000E+00 -0.30813217720E+04  0.30813217720E+04  0.00000000000E+00 0.  1.
         -6    2    1    2    0  503 -0.24721239237E+03 -0.10362211729E+03 -0.13927612039E+04  0.14288352026E+04  0.17301663176E+03 0.  0.
        -24    2    3    3    0    0 -0.89895785434E+02  0.15367886158E+02 -0.55165463631E+03  0.56489684610E+03  0.80425025956E+02 0.  0.
          6    2    1    2  501    0  0.24721239237E+03  0.10362211729E+03 -0.16551889627E+04  0.16858581747E+04  0.17497363526E+03 0.  0.
         24    2    5    5    0    0  0.44791942622E+02  0.83711531374E+01 -0.57341056509E+03  0.58118022342E+03  0.83032412995E+02 0.  0.
          5    1    5    5  501    0  0.20242044975E+03  0.95250964151E+02 -0.10817783976E+04  0.11046779513E+04  0.47000000000E+01 0. -1.
        -13    1    6    6    0    0  0.35850190737E+02  0.44404974387E+02 -0.37638832918E+03  0.38069044153E+03  0.00000000000E+00 0.  1.
         14    1    6    6    0    0  0.89417518855E+01 -0.36033821250E+02 -0.19702223591E+03  0.20048978189E+03  0.00000000000E+00 0. -1.
         -5    1    3    3    0  503 -0.15731660694E+03 -0.11899000345E+03 -0.84110656764E+03  0.86393835652E+03  0.47000000000E+01 0.  1.
         11    1    4    4    0    0 -0.19841783756E+02 -0.12716510260E+02 -0.31740150389E+02  0.39532811215E+02  0.00000000000E+00 0. -1.
        -12    1    4    4    0    0 -0.70054001678E+02  0.28084396418E+02 -0.51991448592E+03  0.52536403488E+03  0.00000000000E+00 0.  1.
<mgrwt>
<rscale>  2 0.31983840E+03</rscale>
<asrwt>0</asrwt>
<pdfrwt beam="1">  1       21 0.51340943E-02 0.32010511E+03</pdfrwt>
<pdfrwt beam="2">  1       21 0.47404939E+00 0.32010511E+03</pdfrwt>
<totfact> 0.62951925E+02</totfact>
</mgrwt>
</event>
<event>
12    1  0.1026879E-001  0.1965327E+03  0.7546771E-02  0.1154845E+00
         21   -1    0    0  501  502  0.00000000000E+00  0.00000000000E+00  0.10818448820E+04  0.10818448820E+04  0.00000000000E+00 0.  1.
         21   -1    0    0  502  503 -0.00000000000E+00 -0.00000000000E+00 -0.34282011578E+02  0.34282011578E+02  0.00000000000E+00 0. -1.
         -6    2    1    2    0  503  0.20443966548E+02 -0.68804990383E+02  0.59052994086E+03  0.62237505702E+03  0.18295632832E+03 0.  0.
        -24    2    3    3    0    0 -0.56216635264E+00  0.33421058827E+02  0.20241246473E+03  0.22044385888E+03  0.80668493449E+02 0.  0.
          6    2    1    2  501    0 -0.20443966548E+02  0.68804990383E+02  0.45703292959E+03  0.49375183659E+03  0.17250998504E+03 0.  0.
         24    2    5    5    0    0 -0.12927079124E+02  0.20194567145E+02  0.42802975439E+03  0.43645653997E+03  0.81914044679E+02 0.  0.
          5    1    5    5  501    0 -0.75168874241E+01  0.48610423237E+02  0.29003175195E+02  0.57295296624E+02  0.47000000000E+01 0. -1.
        -11    1    6    6    0    0 -0.24042125719E+02 -0.22707719783E+02  0.97208198488E+02  0.10267958999E+03  0.00000000000E+00 0.  1.
         12    1    6    6    0    0  0.11115046595E+02  0.42902286928E+02  0.33082155591E+03  0.33377694998E+03  0.00000000000E+00 0. -1.
         -5    1    3    3    0  503  0.21006132901E+02 -0.10222604921E+03  0.38811747613E+03  0.40193119814E+03  0.47000000000E+01 0.  1.
         11    1    4    4    0    0 -0.26904231534E+02 -0.12822570996E+02  0.42505728138E+02  0.51913321276E+02  0.00000000000E+00 0. -1.
        -12    1    4    4    0    0  0.26342065181E+02  0.46243629824E+02  0.15990673659E+03  0.16853053760E+03  0.00000000000E+00 0.  1.
<mgrwt>
<rscale>  2 0.19406517E+03</rscale>
<asrwt>0</asrwt>
<pdfrwt beam="1">  1       21 0.16643765E+00 0.19653270E+03</pdfrwt>
<pdfrwt beam="2">  1       21 0.52741565E-02 0.19653270E+03</pdfrwt>
<totfact> 0.55433014E+04</totfact>
</mgrwt>
</event>
<event>
12    1  0.1026879E-001  0.1905453E+03  0.7546771E-02  0.1159348E+00
         21   -1    0    0  501  502  0.00000000000E+00  0.00000000000E+00  0.11629336135E+03  0.11629336135E+03  0.00000000000E+00 0.  1.
         21   -1    0    0  502  503 -0.00000000000E+00 -0.00000000000E+00 -0.35931191572E+03  0.35931191572E+03  0.00000000000E+00 0. -1.
         -6    2    1    2    0  503  0.26241396746E+02  0.73740411678E+02 -0.21777886498E+03  0.28937026044E+03  0.17372752913E+03 0.  0.
        -24    2    3    3    0    0  0.22801089314E+02  0.63781885451E+02 -0.24129691448E+03  0.26317490565E+03  0.80304492039E+02 0.  0.
          6    2    1    2  501    0 -0.26241396746E+02 -0.73740411678E+02 -0.25239689389E+02  0.18623501663E+03  0.16709332805E+03 0.  0.
         24    2    5    5    0    0 -0.95605558185E+01 -0.11312337536E+03 -0.29966212832E+02  0.14294877971E+03  0.81535743249E+02 0.  0.
          5    1    5    5  501    0 -0.16680840927E+02  0.39382963686E+02  0.47265234437E+01  0.43286236919E+02  0.47000000000E+01 0. -1.
        -11    1    6    6    0    0  0.29480763221E+02 -0.16828981349E+02  0.26311440856E+01  0.34047803638E+02  0.00000000000E+00 0.  1.
         12    1    6    6    0    0 -0.39041319039E+02 -0.96294394015E+02 -0.32597356918E+02  0.10890097607E+03  0.00000000000E+00 0. -1.
         -5    1    3    3    0  503  0.34403074322E+01  0.99585262267E+01  0.23518049505E+02  0.26195354786E+02  0.47000000000E+01 0.  1.
         11    1    4    4    0    0 -0.91725009497E+01  0.53887258867E+02 -0.21121411232E+03  0.21817280464E+03  0.00000000000E+00 0. -1.
        -12    1    4    4    0    0  0.31973590263E+02  0.98946265835E+01 -0.30082802160E+02  0.45002101010E+02  0.00000000000E+00 0.  1.
<mgrwt>
<rscale>  2 0.18901995E+03</rscale>
<asrwt>0</asrwt>
<pdfrwt beam="1">  1       21 0.17891287E-01 0.19054531E+03</pdfrwt>
<pdfrwt beam="2">  1       21 0.55278755E-01 0.19054531E+03</pdfrwt>
<totfact> 0.87692895E+04</totfact>
</mgrwt>
</event>
<event>
12    1  0.1026879E-001  0.1830212E+03  0.7546771E-02  0.1167409E+00
         21   -1    0    0  503  502  0.00000000000E+00  0.00000000000E+00  0.67312995544E+03  0.67312995544E+03  0.00000000000E+00 0.  1.
         21   -1    0    0  501  503 -0.00000000000E+00 -0.00000000000E+00 -0.59006950239E+02  0.59006950239E+02  0.00000000000E+00 0.  1.
          6    2    1    2  501    0 -0.18609874326E+02  0.28651268443E+02  0.14915405515E+03  0.23610103730E+03  0.17980418527E+03 0.  0.
         24    2    3    3    0    0 -0.24332214833E+00 -0.30084170237E+02  0.15098225908E+03  0.17435466635E+03  0.81846139887E+02 0.  0.
         -6    2    1    2    0  502  0.18609874326E+02 -0.28651268443E+02  0.46496895006E+03  0.49603586839E+03  0.16937601837E+03 0.  0.
        -24    2    5    5    0    0  0.39163865962E+02 -0.71142778688E+02  0.25288715327E+03  0.27871404817E+03  0.84465999069E+02 0.  0.
          5    1    3    3  501    0 -0.18366552178E+02  0.58735438680E+02 -0.18282039381E+01  0.61746370949E+02  0.47000000000E+01 0. -1.
        -11    1    4    4    0    0  0.16804816534E+02 -0.14470796524E+02  0.57805048341E+00  0.22184227576E+02  0.00000000000E+00 0.  1.
         12    1    4    4    0    0 -0.17048138682E+02 -0.15613373713E+02  0.15040420860E+03  0.15217043877E+03  0.00000000000E+00 0. -1.
         -5    1    5    5    0  502 -0.20553991636E+02  0.42491510246E+02  0.21208179679E+03  0.21732182022E+03  0.47000000000E+01 0.  1.
         13    1    6    6    0    0  0.25521501075E+02  0.91865100459E+01  0.11842246961E+03  0.12148917768E+03  0.00000000000E+00 0. -1.
        -14    1    6    6    0    0  0.13642364887E+02 -0.80329288734E+02  0.13446468366E+03  0.15722487049E+03  0.00000000000E+00 0.  1.
<mgrwt>
<rscale>  2 0.18040728E+03</rscale>
<asrwt>0</asrwt>
<pdfrwt beam="1">  1       21 0.10355845E+00 0.18302122E+03</pdfrwt>
<pdfrwt beam="2">  1       21 0.90779928E-02 0.18302122E+03</pdfrwt>
<totfact> 0.72982347E+04</totfact>
</mgrwt>
</event>
<event>
12    1  0.1026879E-001  0.2020002E+03  0.7546771E-02  0.1148382E+00
         21   -1    0    0  503  502  0.00000000000E+00  0.00000000000E+00  0.57544610821E+02  0.57544610821E+02  0.00000000000E+00 0. -1.
         21   -1    0    0  501  503 -0.00000000000E+00 -0.00000000000E+00 -0.87726488572E+03  0.87726488572E+03  0.00000000000E+00 0.  1.
          6    2    1    2  501    0 -0.91606508999E+02  0.47915644919E+02 -0.61649163874E+03  0.64826814433E+03  0.17176141825E+03 0.  0.
         24    2    3    3    0    0 -0.96702526388E+02  0.85890758142E+01 -0.58017614769E+03  0.59429172984E+03  0.84576279038E+02 0.  0.
         -6    2    1    2    0  502  0.91606508999E+02 -0.47915644919E+02 -0.20322863616E+03  0.28654135221E+03  0.17354079190E+03 0.  0.
        -24    2    5    5    0    0  0.75904353563E+02 -0.70754193688E+02 -0.64946510924E+02  0.14543078154E+03  0.78513923124E+02 0.  0.
          5    1    3    3  501    0  0.50960173881E+01  0.39326569105E+02 -0.36315491045E+02  0.53976414485E+02  0.47000000000E+01 0. -1.
        -13    1    4    4    0    0 -0.79238289317E+02  0.39342175572E+02 -0.47929009338E+03  0.48738640409E+03  0.00000000000E+00 0.  1.
         14    1    4    4    0    0 -0.17464237071E+02 -0.30753099758E+02 -0.10088605431E+03  0.10690532576E+03  0.00000000000E+00 0. -1.
         -5    1    5    5    0  502  0.15702155436E+02  0.22838548769E+02 -0.13828212524E+03  0.14111057067E+03  0.47000000000E+01 0.  1.
         11    1    6    6    0    0  0.41433807222E+02  0.52103888422E+01 -0.36641602229E+01  0.41920574936E+02  0.00000000000E+00 0. -1.
        -12    1    6    6    0    0  0.34470546341E+02 -0.75964582530E+02 -0.61282350701E+02  0.10351020661E+03  0.00000000000E+00 0.  1.
<mgrwt>
<rscale>  2 0.20161743E+03</rscale>
<asrwt>0</asrwt>
<pdfrwt beam="1">  1       21 0.88530174E-02 0.20200017E+03</pdfrwt>
<pdfrwt beam="2">  1       21 0.13496382E+00 0.20200017E+03</pdfrwt>
<totfact> 0.39311726E+04</totfact>
</mgrwt>
</event>
<event>
12    1  0.1026879E-001  0.2446938E+03  0.7546771E-02  0.1116835E+00
         21   -1    0    0  503  502  0.00000000000E+00  0.00000000000E+00  0.71634007806E+03  0.71634007806E+03  0.00000000000E+00 0.  1.
         21   -1    0    0  501  503 -0.00000000000E+00 -0.00000000000E+00 -0.14121305705E+03  0.14121305705E+03  0.00000000000E+00 0. -1.
          6    2    1    2  501    0 -0.12283475498E+03 -0.12133333403E+03  0.12723220849E+02  0.24422362311E+03  0.17225894101E+03 0.  0.
         24    2    3    3    0    0 -0.50867726859E+01 -0.73250386772E+02  0.37107398464E+02  0.11463490729E+03  0.79829246076E+02 0.  0.
         -6    2    1    2    0  502  0.12283475498E+03  0.12133333403E+03  0.56240380016E+03  0.61332951199E+03  0.17339233219E+03 0.  0.
        -24    2    5    5    0    0  0.20937663622E+02  0.63276895319E+02  0.13982963489E+03  0.17475844311E+03  0.80906337241E+02 0.  0.
          5    1    3    3  501    0 -0.11774798229E+03 -0.48082947261E+02 -0.24384177615E+02  0.12958871583E+03  0.47000000000E+01 0. -1.
        -13    1    4    4    0    0  0.33897130906E+02 -0.36144770272E+02  0.51801287481E+00  0.49555304852E+02  0.00000000000E+00 0.  1.
         14    1    4    4    0    0 -0.38983903592E+02 -0.37105616500E+02  0.36589385589E+02  0.65079602434E+02  0.00000000000E+00 0. -1.
         -5    1    5    5    0  502  0.10189709136E+03  0.58056438714E+02  0.42257416527E+03  0.43857106887E+03  0.47000000000E+01 0.  1.
         13    1    6    6    0    0 -0.28911781035E+02  0.82805901174E+01  0.32700344113E+02  0.44427151163E+02  0.00000000000E+00 0. -1.
        -14    1    6    6    0    0  0.49849444657E+02  0.54996305202E+02  0.10712929078E+03  0.13033129195E+03  0.00000000000E+00 0.  1.
<mgrwt>
<rscale>  2 0.24449310E+03</rscale>
<asrwt>0</asrwt>
<pdfrwt beam="1">  1       21 0.11020616E+00 0.24469380E+03</pdfrwt>
<pdfrwt beam="2">  1       21 0.21725086E-01 0.24469380E+03</pdfrwt>
<totfact> 0.12436835E+04</totfact>
</mgrwt>
</event>
<event>
12    1  0.1026879E-001  0.2316864E+03  0.7546771E-02  0.1125489E+00
         21   -1    0    0  503  502  0.00000000000E+00  0.00000000000E+00  0.25153573993E+03  0.25153573993E+03  0.00000000000E+00 0.  1.
         21   -1    0    0  501  503 -0.00000000000E+00 -0.00000000000E+00 -0.25746473094E+03  0.25746473094E+03  0.00000000000E+00 0. -1.
          6    2    1    2  501    0 -0.11186069593E+03 -0.10614556321E+03 -0.10844307949E+03  0.25580949947E+03  0.17291299154E+03 0.  0.
         24    2    3    3    0    0 -0.10379078402E+03 -0.32095508493E+02 -0.11899673799E+03  0.18043043215E+03  0.81192787120E+02 0.  0.
         -6    2    1    2    0  502  0.11186069593E+03  0.10614556321E+03  0.10251408848E+03  0.25319097140E+03  0.17267551587E+03 0.  0.
        -24    2    5    5    0    0  0.32264310320E+02  0.11086218534E+03  0.25267228731E+02  0.14207392290E+03  0.78836266168E+02 0.  0.
          5    1    3    3  501    0 -0.80699119065E+01 -0.74050054718E+02  0.10553658495E+02  0.75379067317E+02  0.47000000000E+01 0. -1.
        -11    1    4    4    0    0  0.10432823756E+02  0.68837706619E+01 -0.26213732073E+01  0.12771127888E+02  0.00000000000E+00 0.  1.
         12    1    4    4    0    0 -0.11422360778E+03 -0.38979279154E+02 -0.11637536478E+03  0.16765930426E+03  0.00000000000E+00 0. -1.
         -5    1    5    5    0  502  0.79596385609E+02 -0.47166221270E+01  0.77246859748E+02  0.11111704850E+03  0.47000000000E+01 0.  1.
         11    1    6    6    0    0  0.91057767556E+00 -0.11964046076E+02 -0.26116318303E+01  0.12279583504E+02  0.00000000000E+00 0. -1.
        -12    1    6    6    0    0  0.31353732644E+02  0.12282623141E+03  0.27878860562E+02  0.12979433940E+03  0.00000000000E+00 0.  1.
<mgrwt>
<rscale>  2 0.23164212E+03</rscale>
<asrwt>0</asrwt>
<pdfrwt beam="1">  1       21 0.38697806E-01 0.23168642E+03</pdfrwt>
<pdfrwt beam="2">  1       21 0.39609959E-01 0.23168642E+03</pdfrwt>
<totfact> 0.38810111E+04</totfact>
</mgrwt>
</event>
<event>
12    1  0.1026879E-001  0.2351870E+03  0.7546771E-02  0.1123042E+00
         21   -1    0    0  503  502  0.00000000000E+00  0.00000000000E+00  0.17480742377E+04  0.17480742377E+04  0.00000000000E+00 0.  1.
         21   -1    0    0  501  503 -0.00000000000E+00 -0.00000000000E+00 -0.52021577188E+02  0.52021577188E+02  0.00000000000E+00 0. -1.
          6    2    1    2  501    0 -0.11989412386E+03  0.10486593256E+03  0.28468368990E+03  0.36926648670E+03  0.17303603717E+03 0.  0.
         24    2    3    3    0    0  0.71929417753E+01  0.50667453064E+02  0.97651265217E+02  0.13669001473E+03  0.80805082250E+02 0.  0.
         -6    2    1    2    0  502  0.11989412386E+03 -0.10486593256E+03  0.14113689706E+04  0.14308293282E+04  0.17302812035E+03 0.  0.
        -24    2    5    5    0    0  0.95083034758E+02 -0.95403018737E+01  0.56564530022E+03  0.57937575771E+03  0.81177965625E+02 0.  0.
          5    1    3    3  501    0 -0.12708706564E+03  0.54198479498E+02  0.18703242468E+03  0.23257647197E+03  0.47000000000E+01 0. -1.
        -13    1    4    4    0    0  0.54431821182E+01 -0.17180824701E+02  0.31218225589E+00  0.18025160936E+02  0.00000000000E+00 0.  1.
         14    1    4    4    0    0  0.17497596571E+01  0.67848277766E+02  0.97339082962E+02  0.11866485380E+03  0.00000000000E+00 0. -1.
         -5    1    5    5    0  502  0.24811089105E+02 -0.95325630688E+02  0.84572367036E+03  0.85145357044E+03  0.47000000000E+01 0.  1.
         13    1    6    6    0    0  0.85089102911E+02  0.24520996715E+02  0.43944579289E+03  0.44827897520E+03  0.00000000000E+00 0. -1.
        -14    1    6    6    0    0  0.99939318466E+01 -0.34061298588E+02  0.12619950733E+03  0.13109678251E+03  0.00000000000E+00 0.  1.
<mgrwt>
<rscale>  2 0.23518556E+03</rscale>
<asrwt>0</asrwt>
<pdfrwt beam="1">  1       21 0.26893445E+00 0.23518702E+03</pdfrwt>
<pdfrwt beam="2">  1       21 0.80033209E-02 0.23518702E+03</pdfrwt>
<totfact> 0.59308419E+03</totfact>
</mgrwt>
</event>
<event>
12    1  0.1026879E-001  0.2505091E+03  0.7546771E-02  0.1113390E+00
         21   -1    0    0  503  502  0.00000000000E+00  0.00000000000E+00  0.14499209970E+03  0.14499209970E+03  0.00000000000E+00 0. -1.
         21   -1    0    0  501  503 -0.00000000000E+00 -0.00000000000E+00 -0.45014154374E+03  0.45014154374E+03  0.00000000000E+00 0. -1.
          6    2    1    2  501    0  0.17678351271E+03 -0.22187138043E+02 -0.21872892978E+03  0.33256147764E+03  0.17609688306E+03 0.  0.
         24    2    3    3    0    0  0.65326389747E+02  0.35615037047E+02 -0.16150998357E+03  0.19450395517E+03  0.78805746756E+02 0.  0.
         -6    2    1    2    0  502 -0.17678351271E+03  0.22187138043E+02 -0.86420514262E+02  0.26257216581E+03  0.17242667285E+03 0.  0.
        -24    2    5    5    0    0 -0.15167069442E+02 -0.41860024217E+01 -0.16246917348E+02  0.84353645512E+02  0.81265075992E+02 0.  0.
          5    1    3    3  501    0  0.11145712296E+03 -0.57802175090E+02 -0.57218946204E+02  0.13805752247E+03  0.47000000000E+01 0. -1.
        -13    1    4    4    0    0  0.12042394337E+02  0.50482711540E+02 -0.64038883360E+02  0.82428769297E+02  0.00000000000E+00 0.  1.
         14    1    4    4    0    0  0.53283995410E+02 -0.14867674494E+02 -0.97471100214E+02  0.11207518587E+03  0.00000000000E+00 0. -1.
         -5    1    5    5    0  502 -0.16161644327E+03  0.26373140465E+02 -0.70173596914E+02  0.17821852030E+03  0.47000000000E+01 0.  1.
         11    1    6    6    0    0 -0.46674052197E+02 -0.15256157327E+02 -0.62878427781E+01  0.49505095209E+02  0.00000000000E+00 0. -1.
        -12    1    6    6    0    0  0.31506982754E+02  0.11070154906E+02 -0.99590745696E+01  0.34848550303E+02  0.00000000000E+00 0.  1.
<mgrwt>
<rscale>  2 0.24986502E+03</rscale>
<asrwt>0</asrwt>
<pdfrwt beam="1">  1       21 0.22306477E-01 0.25050907E+03</pdfrwt>
<pdfrwt beam="2">  1       21 0.69252546E-01 0.25050907E+03</pdfrwt>
<totfact> 0.34684369E+04</totfact>
</mgrwt>
</event>
<event>
12    1  0.1026879E-001  0.2593284E+03  0.7546771E-02  0.1107952E+00
         21   -1    0    0  503  502  0.00000000000E+00  0.00000000000E+00  0.10709966466E+04  0.10709966466E+04  0.00000000000E+00 0.  1.
         21   -1    0    0  501  503 -0.00000000000E+00 -0.00000000000E+00 -0.69681872546E+02  0.69681872546E+02  0.00000000000E+00 0. -1.
          6    2    1    2  501    0  0.41595425166E+02  0.18534099462E+03  0.31544451852E+03  0.40835823831E+03  0.17654954787E+03 0.  0.
         24    2    3    3    0    0  0.80982155002E+02  0.11083089071E+03  0.25788460210E+03  0.30619021959E+03  0.91686350163E+02 0.  0.
         -6    2    1    2    0  502 -0.41595425166E+02 -0.18534099462E+03  0.68587025552E+03  0.73232028081E+03  0.17260800272E+03 0.  0.
        -24    2    5    5    0    0 -0.41820177326E+02 -0.10467377511E+03  0.20170072344E+03  0.24145423330E+03  0.70081656026E+02 0.  0.
          5    1    3    3  501    0 -0.39386729836E+02  0.74510103915E+02  0.57559916418E+02  0.10216801873E+03  0.47000000000E+01 0. -1.
        -13    1    4    4    0    0  0.43895934938E+02  0.63011379116E+02  0.22407905788E+03  0.23687277425E+03  0.00000000000E+00 0.  1.
         14    1    4    4    0    0  0.37086220064E+02  0.47819511593E+02  0.33805544222E+02  0.69317445335E+02  0.00000000000E+00 0. -1.
         -5    1    5    5    0  502  0.22475216001E+00 -0.80667219515E+02  0.48416953208E+03  0.49086604752E+03  0.47000000000E+01 0.  1.
         13    1    6    6    0    0  0.22255112412E+01 -0.74026193912E+02  0.83299549417E+02  0.11146140686E+03  0.00000000000E+00 0. -1.
        -14    1    6    6    0    0 -0.44045688567E+02 -0.30647581197E+02  0.11840117403E+03  0.12999282644E+03  0.00000000000E+00 0.  1.
<mgrwt>
<rscale>  2 0.25865900E+03</rscale>
<asrwt>0</asrwt>
<pdfrwt beam="1">  1       21 0.16476870E+00 0.25932838E+03</pdfrwt>
<pdfrwt beam="2">  1       21 0.10720289E-01 0.25932838E+03</pdfrwt>
<totfact> 0.15977998E+04</totfact>
</mgrwt>
</event>
<event>
12    1  0.1026879E-001  0.2259597E+03  0.7546771E-02  0.1129911E+00
         21   -1    0    0  503  502  0.00000000000E+00  0.00000000000E+00  0.48782435211E+03  0.48782435211E+03  0.00000000000E+00 0.  1.
         21   -1    0    0  501  503 -0.00000000000E+00 -0.00000000000E+00 -0.10368005990E+03  0.10368005990E+03  0.00000000000E+00 0.  1.
          6    2    1    2  501    0 -0.72107367501E+02 -0.12181684760E+03  0.18845044844E+03  0.29423007519E+03  0.17612197144E+03 0.  0.
         24    2    3    3    0    0 -0.46058364092E+02 -0.66517149166E+02  0.18160213930E+02  0.11323985116E+03  0.77120467355E+02 0.  0.
         -6    2    1    2    0  502  0.72107367501E+02  0.12181684760E+03  0.19569384377E+03  0.29727433681E+03  0.17331224432E+03 0.  0.
        -24    2    5    5    0    0  0.22417575585E+02  0.67030516769E+02  0.19903791114E+03  0.22308612850E+03  0.71803153021E+02 0.  0.
          5    1    3    3  501    0 -0.26049003409E+02 -0.55299698432E+02  0.17029023451E+03  0.18099022403E+03  0.47000000000E+01 0. -1.
        -13    1    4    4    0    0 -0.28304922987E+00 -0.87480323312E+01  0.36294774759E+02  0.37335222798E+02  0.00000000000E+00 0.  1.
         14    1    4    4    0    0 -0.45775314862E+02 -0.57769116835E+02 -0.18134560829E+02  0.75904628364E+02  0.00000000000E+00 0. -1.
         -5    1    5    5    0  502  0.49689791916E+02  0.54786330830E+02 -0.33440673725E+01  0.74188208315E+02  0.47000000000E+01 0.  1.
         11    1    6    6    0    0  0.40641109383E+01 -0.11100147553E+02  0.45091245567E+01  0.12651580047E+02  0.00000000000E+00 0. -1.
        -12    1    6    6    0    0  0.18353464647E+02  0.78130664322E+02  0.19452878658E+03  0.21043454845E+03  0.00000000000E+00 0.  1.
<mgrwt>
<rscale>  2 0.22541189E+03</rscale>
<asrwt>0</asrwt>
<pdfrwt beam="1">  1       21 0.75049899E-01 0.22595965E+03</pdfrwt>
<pdfrwt beam="2">  1       21 0.15950779E-01 0.22595965E+03</pdfrwt>
<totfact> 0.54809766E+04</totfact>
</mgrwt>
</event>
<event>
12    1  0.1026879E-001  0.1843757E+03  0.7546771E-02  0.1165041E+00
         21   -1    0    0  503  502  0.00000000000E+00  0.00000000000E+00  0.11651171817E+03  0.11651171817E+03  0.00000000000E+00 0. -1.
         21   -1    0    0  501  503 -0.00000000000E+00 -0.00000000000E+00 -0.29608088332E+03  0.29608088332E+03  0.00000000000E+00 0.  1.
          6    2    1    2  501    0 -0.10745462468E+02 -0.36534687544E+02 -0.13533205224E+03  0.22871194924E+03  0.18039995289E+03 0.  0.
         24    2    3    3    0    0 -0.47230145866E+02  0.73049700115E+01 -0.14334789850E+03  0.17092448097E+03  0.79890605989E+02 0.  0.
         -6    2    1    2    0  502  0.10745462468E+02  0.36534687544E+02 -0.44237112902E+02  0.18388065225E+03  0.17437007701E+03 0.  0.
        -24    2    5    5    0    0  0.47450427904E+02  0.21404824082E+02  0.30646528801E+02  0.98993568130E+02  0.78427082065E+02 0.  0.
          5    1    3    3  501    0  0.36484683398E+02 -0.43839657555E+02  0.80158462623E+01  0.57787468265E+02  0.47000000000E+01 0. -1.
        -11    1    4    4    0    0  0.21785942733E+02  0.95663461182E+00 -0.20802589033E+02  0.30137852628E+02  0.00000000000E+00 0.  1.
         12    1    4    4    0    0 -0.69016088599E+02  0.63483353996E+01 -0.12254530947E+03  0.14078662835E+03  0.00000000000E+00 0. -1.
         -5    1    5    5    0  502 -0.36704965436E+02  0.15129863461E+02 -0.74883641703E+02  0.84887084122E+02  0.47000000000E+01 0.  1.
         11    1    6    6    0    0  0.32460193310E+02  0.33282441624E+02  0.52384709021E+02  0.70039580306E+02  0.00000000000E+00 0. -1.
        -12    1    6    6    0    0  0.14990234594E+02 -0.11877617541E+02 -0.21738180220E+02  0.28953987824E+02  0.00000000000E+00 0.  1.
<mgrwt>
<rscale>  2 0.18288379E+03</rscale>
<asrwt>0</asrwt>
<pdfrwt beam="1">  1       21 0.17924880E-01 0.18437568E+03</pdfrwt>
<pdfrwt beam="2">  1       21 0.45550904E-01 0.18437568E+03</pdfrwt>
<totfact> 0.13113069E+05</totfact>
</mgrwt>
</event>
<event>
12    1  0.1026879E-001  0.2003722E+03  0.7546771E-02  0.1149641E+00
         21   -1    0    0  501  502  0.00000000000E+00  0.00000000000E+00  0.29215917557E+02  0.29215917557E+02  0.00000000000E+00 0.  1.
         21   -1    0    0  502  503 -0.00000000000E+00 -0.00000000000E+00 -0.18916842533E+04  0.18916842533E+04  0.00000000000E+00 0. -1.
         -6    2    1    2    0  503  0.59128435734E+02 -0.78562032129E+02 -0.14386726105E+04  0.14525590805E+04  0.17458762083E+03 0.  0.
        -24    2    3    3    0    0  0.10692472605E+03 -0.67206017090E+02 -0.11892744211E+04  0.11983249535E+04  0.75229646959E+02 0.  0.
          6    2    1    2  501    0 -0.59128435734E+02  0.78562032129E+02 -0.42379572526E+03  0.46834109037E+03  0.17341394227E+03 0.  0.
         24    2    5    5    0    0  0.45300299757E+01  0.15003527103E+02 -0.77682273148E+02  0.11069783858E+03  0.77290678013E+02 0.  0.
          5    1    5    5  501    0 -0.63658465710E+02  0.63558505026E+02 -0.34611345211E+03  0.35764325179E+03  0.47000000000E+01 0. -1.
        -11    1    6    6    0    0 -0.15479632200E+02 -0.22126832238E+02 -0.58358135690E+02  0.64303092609E+02  0.00000000000E+00 0.  1.
         12    1    6    6    0    0  0.20009662176E+02  0.37130359341E+02 -0.19324137458E+02  0.46394745970E+02  0.00000000000E+00 0. -1.
         -5    1    3    3    0  503 -0.47796290312E+02 -0.11356015039E+02 -0.24939818933E+03  0.25423412691E+03  0.47000000000E+01 0.  1.
         11    1    4    4    0    0  0.78163102586E+02 -0.73816741959E+02 -0.10726593467E+04  0.10780336062E+04  0.00000000000E+00 0. -1.
        -12    1    4    4    0    0  0.28761623461E+02  0.66107248692E+01 -0.11661507439E+03  0.12029134733E+03  0.00000000000E+00 0.  1.
<mgrwt>
<rscale>  2 0.20011622E+03</rscale>
<asrwt>0</asrwt>
<pdfrwt beam="1">  1       21 0.44947558E-02 0.20037216E+03</pdfrwt>
<pdfrwt beam="2">  1       21 0.29102839E+00 0.20037216E+03</pdfrwt>
<totfact> 0.12285484E+04</totfact>
</mgrwt>
</event>
<event>
12    1  0.1026879E-001  0.1791096E+03  0.7546771E-02  0.1168807E+00
         21   -1    0    0  503  502  0.00000000000E+00  0.00000000000E+00  0.34773939658E+02  0.34773939658E+02  0.00000000000E+00 0.  1.
         21   -1    0    0  501  503 -0.00000000000E+00 -0.00000000000E+00 -0.92187246817E+03  0.92187246817E+03  0.00000000000E+00 0.  1.
          6    2    1    2  501    0  0.32875152126E+02  0.30683122250E+02 -0.46807028283E+03  0.50116866292E+03  0.17337245860E+03 0.  0.
         24    2    3    3    0    0 -0.38136769443E+02  0.22061541357E+02 -0.19083159479E+03  0.21481153483E+03  0.88239294720E+02 0.  0.
         -6    2    1    2    0  502 -0.32875152126E+02 -0.30683122250E+02 -0.41902824568E+03  0.45547774491E+03  0.17278042660E+03 0.  0.
        -24    2    5    5    0    0  0.35517494253E+02 -0.45271441910E+02 -0.16416034584E+03  0.19114819772E+03  0.79233947871E+02 0.  0.
          5    1    3    3  501    0  0.71011921569E+02  0.86215808930E+01 -0.27723868804E+03  0.28635712809E+03  0.47000000000E+01 0. -1.
        -13    1    4    4    0    0 -0.49885660318E+02  0.47973902199E+02 -0.14811145580E+03  0.16348418192E+03  0.00000000000E+00 0.  1.
         14    1    4    4    0    0  0.11748890874E+02 -0.25912360842E+02 -0.42720138989E+02  0.51327352907E+02  0.00000000000E+00 0. -1.
         -5    1    5    5    0  502 -0.68392646379E+02  0.14588319660E+02 -0.25486789984E+03  0.26432954719E+03  0.47000000000E+01 0.  1.
         13    1    6    6    0    0  0.23385674410E+02 -0.11892145923E+02 -0.33336138917E+01  0.26446661109E+02  0.00000000000E+00 0. -1.
        -14    1    6    6    0    0  0.12131819843E+02 -0.33379295988E+02 -0.16082673195E+03  0.16470153661E+03  0.00000000000E+00 0.  1.
<mgrwt>
<rscale>  2 0.17896615E+03</rscale>
<asrwt>0</asrwt>
<pdfrwt beam="1">  1       21 0.53498371E-02 0.17910957E+03</pdfrwt>
<pdfrwt beam="2">  1       21 0.14182653E+00 0.17910957E+03</pdfrwt>
<totfact> 0.83525376E+04</totfact>
</mgrwt>
</event>
<event>
12    1  0.1026879E-001  0.5053358E+03  0.7546771E-02  0.1012449E+00
         21   -1    0    0  501  502  0.00000000000E+00  0.00000000000E+00  0.66015242211E+03  0.66015242211E+03  0.00000000000E+00 0.  1.
         21   -1    0    0  502  503 -0.00000000000E+00 -0.00000000000E+00 -0.39065577633E+03  0.39065577633E+03  0.00000000000E+00 0. -1.
         -6    2    1    2    0  503  0.22476853874E+03 -0.41643450004E+03  0.19082391683E+03  0.53938503756E+03  0.17488242528E+03 0.  0.
        -24    2    3    3    0    0  0.45782491011E+02 -0.15267306337E+03  0.24194818875E+02  0.17967203106E+03  0.79319283426E+02 0.  0.
          6    2    1    2  501    0 -0.22476853874E+03  0.41643450004E+03  0.78672728943E+02  0.51142316088E+03  0.17727284726E+03 0.  0.
         24    2    5    5    0    0 -0.11621700181E+03  0.29906179462E+03 -0.47228005763E+01  0.33104385916E+03  0.81384171247E+02 0.  0.
          5    1    5    5  501    0 -0.10855153693E+03  0.11737270542E+03  0.83395529519E+02  0.18037930173E+03  0.47000000000E+01 0. -1.
        -11    1    6    6    0    0 -0.30706943036E+02  0.14742288122E+02  0.12232652789E+01  0.34084421480E+02  0.00000000000E+00 0.  1.
         12    1    6    6    0    0 -0.85510058776E+02  0.28431950650E+03 -0.59460658551E+01  0.29695943768E+03  0.00000000000E+00 0. -1.
         -5    1    3    3    0  503  0.17898604773E+03 -0.26376143667E+03  0.16662909795E+03  0.35971300649E+03  0.47000000000E+01 0.  1.
         11    1    4    4    0    0  0.42645710695E+02 -0.49390663980E+02 -0.18565704073E+02  0.67843788933E+02  0.00000000000E+00 0. -1.
        -12    1    4    4    0    0  0.31367803163E+01 -0.10328239939E+03  0.42760522948E+02  0.11182824213E+03  0.00000000000E+00 0.  1.
<mgrwt>
<rscale>  2 0.50512725E+03</rscale>
<asrwt>0</asrwt>
<pdfrwt beam="1">  1       21 0.10156191E+00 0.50533578E+03</pdfrwt>
<pdfrwt beam="2">  1       21 0.60100889E-01 0.50533578E+03</pdfrwt>
<totfact> 0.17221353E+03</totfact>
</mgrwt>
</event>
<event>
12    1  0.1026879E-001  0.2456071E+03  0.7546771E-02  0.1117070E+00
         21   -1    0    0  501  502  0.00000000000E+00  0.00000000000E+00  0.14520664397E+03  0.14520664397E+03  0.00000000000E+00 0. -1.
         21   -1    0    0  502  503 -0.00000000000E+00 -0.00000000000E+00 -0.44589625978E+03  0.44589625978E+03  0.00000000000E+00 0. -1.
         -6    2    1    2    0  503  0.81120285145E+02  0.15425552151E+03 -0.24083150135E+03  0.34398058344E+03  0.17305364244E+03 0.  0.
        -24    2    3    3    0    0  0.19398191089E+01  0.75697251767E+02 -0.19248884838E+03  0.22232512716E+03  0.81502568013E+02 0.  0.
          6    2    1    2  501    0 -0.81120285145E+02 -0.15425552151E+03 -0.59858114456E+02  0.24712232031E+03  0.16465473194E+03 0.  0.
         24    2    5    5    0    0 -0.11250144184E+03 -0.11258439367E+03 -0.16864241771E+02  0.17935932908E+03  0.80953975606E+02 0.  0.
          5    1    5    5  501    0  0.31381156694E+02 -0.41671127847E+02 -0.42993872685E+02  0.67762991227E+02  0.47000000000E+01 0. -1.
        -13    1    6    6    0    0 -0.53563299015E+02 -0.27448202272E+02  0.28158786979E+02  0.66448085702E+02  0.00000000000E+00 0.  1.
         14    1    6    6    0    0 -0.58938142823E+02 -0.85136191394E+02 -0.45023028749E+02  0.11291124338E+03  0.00000000000E+00 0. -1.
         -5    1    3    3    0  503  0.79180466036E+02  0.78558269746E+02 -0.48342652975E+02  0.12165545628E+03  0.47000000000E+01 0.  1.
         13    1    4    4    0    0 -0.32214985402E+02  0.29018251776E+02 -0.39064213110E+02  0.58359891762E+02  0.00000000000E+00 0. -1.
        -14    1    4    4    0    0  0.34154804511E+02  0.46678999991E+02 -0.15342463527E+03  0.16396523539E+03  0.00000000000E+00 0.  1.
<mgrwt>
<rscale>  2 0.24413291E+03</rscale>
<asrwt>0</asrwt>
<pdfrwt beam="1">  1       21 0.22339484E-01 0.24560706E+03</pdfrwt>
<pdfrwt beam="2">  1       21 0.68599424E-01 0.24560706E+03</pdfrwt>
<totfact> 0.35395457E+04</totfact>
</mgrwt>
</event>
<event>
12    1  0.1026879E-001  0.2254588E+03  0.7546771E-02  0.1129937E+00
         21   -1    0    0  501  502  0.00000000000E+00  0.00000000000E+00  0.30972087058E+03  0.30972087058E+03  0.00000000000E+00 0. -1.
         21   -1    0    0  502  503 -0.00000000000E+00 -0.00000000000E+00 -0.16659585909E+03  0.16659585909E+03  0.00000000000E+00 0. -1.
         -6    2    1    2    0  503 -0.14176495889E+03 -0.13062638562E+02  0.10191755373E+03  0.24712312330E+03  0.17439814854E+03 0.  0.
        -24    2    3    3    0    0 -0.13079940456E+03 -0.64470983070E+02  0.10059463156E+03  0.19433201240E+03  0.79879028877E+02 0.  0.
          6    2    1    2  501    0  0.14176495889E+03  0.13062638562E+02  0.41207457759E+02  0.22919360637E+03  0.17482482241E+03 0.  0.
         24    2    5    5    0    0  0.18059826113E+02 -0.28132276679E+02 -0.12974163520E+02  0.87921815126E+02  0.80276611448E+02 0.  0.
          5    1    5    5  501    0  0.12370513278E+03  0.41194915241E+02  0.54181621278E+02  0.14127179125E+03  0.47000000000E+01 0. -1.
        -13    1    6    6    0    0  0.92021935488E+01 -0.53307303098E+02 -0.23828261471E+02  0.59111208535E+02  0.00000000000E+00 0.  1.
         14    1    6    6    0    0  0.88576325638E+01  0.25175026419E+02  0.10854097951E+02  0.28810606591E+02  0.00000000000E+00 0. -1.
         -5    1    3    3    0  503 -0.10965554335E+02  0.51408344509E+02  0.13229221708E+01  0.52791110900E+02  0.47000000000E+01 0.  1.
         11    1    4    4    0    0 -0.94685771231E+02 -0.85129678940E+01  0.81039221702E+02  0.12492086035E+03  0.00000000000E+00 0. -1.
        -12    1    4    4    0    0 -0.36113633327E+02 -0.55958015176E+02  0.19555409855E+02  0.69411152052E+02  0.00000000000E+00 0.  1.
<mgrwt>
<rscale>  2 0.22537605E+03</rscale>
<asrwt>0</asrwt>
<pdfrwt beam="1">  1       21 0.47649364E-01 0.22545876E+03</pdfrwt>
<pdfrwt beam="2">  1       21 0.25630132E-01 0.22545876E+03</pdfrwt>
<totfact> 0.59937496E+04</totfact>
</mgrwt>
</event>
<event>
12    1  0.1026879E-001  0.2581334E+03  0.7546771E-02  0.1108290E+00
         21   -1    0    0  503  502  0.00000000000E+00  0.00000000000E+00  0.33290201318E+02  0.33290201318E+02  0.00000000000E+00 0.  1.
         21   -1    0    0  501  503 -0.00000000000E+00 -0.00000000000E+00 -0.23451988371E+04  0.23451988371E+04  0.00000000000E+00 0.  1.
          6    2    1    2  501    0 -0.18989205360E+03 -0.25616097862E+02 -0.16116088141E+04  0.16321294235E+04  0.17276663174E+03 0.  0.
         24    2    3    3    0    0 -0.20404537017E+03 -0.49653608934E+02 -0.12973042024E+04  0.13165543973E+04  0.78849814871E+02 0.  0.
         -6    2    1    2    0  502  0.18989205360E+03  0.25616097862E+02 -0.70029982168E+03  0.74635961487E+03  0.17296721645E+03 0.  0.
        -24    2    5    5    0    0  0.18375808133E+03  0.70776217624E+02 -0.55626622068E+03  0.59521455127E+03  0.77922707452E+02 0.  0.
          5    1    3    3  501    0  0.14153316566E+02  0.24037511072E+02 -0.31430461161E+03  0.31557502624E+03  0.47000000000E+01 0. -1.
        -11    1    4    4    0    0 -0.26418687511E+02 -0.23248253494E+02 -0.10350031894E+03  0.10931946012E+03  0.00000000000E+00 0.  1.
         12    1    4    4    0    0 -0.17762668266E+03 -0.26405355440E+02 -0.11938038835E+04  0.12072349371E+04  0.00000000000E+00 0. -1.
         -5    1    5    5    0  502  0.61339722689E+01 -0.45160119762E+02 -0.14403360100E+03  0.15114506360E+03  0.47000000000E+01 0.  1.
         13    1    6    6    0    0  0.56754170337E+02  0.17531369991E+02 -0.28349185205E+03  0.28964808814E+03  0.00000000000E+00 0. -1.
        -14    1    6    6    0    0  0.12700391099E+03  0.53244847633E+02 -0.27277436863E+03  0.30556646313E+03  0.00000000000E+00 0.  1.
<mgrwt>
<rscale>  2 0.25809977E+03</rscale>
<asrwt>0</asrwt>
<pdfrwt beam="1">  1       21 0.51215661E-02 0.25813337E+03</pdfrwt>
<pdfrwt beam="2">  1       21 0.36080005E+00 0.25813337E+03</pdfrwt>
<totfact> 0.36152326E+03</totfact>
</mgrwt>
</event>
<event>
12    1  0.1026879E-001  0.2247341E+03  0.7546771E-02  0.1130639E+00
         21   -1    0    0  501  502  0.00000000000E+00  0.00000000000E+00  0.58932647136E+02  0.58932647136E+02  0.00000000000E+00 0.  1.
         21   -1    0    0  502  503 -0.00000000000E+00 -0.00000000000E+00 -0.87932706708E+03  0.87932706708E+03  0.00000000000E+00 0.  1.
         -6    2    1    2    0  503 -0.13566394520E+03 -0.39147504573E+02 -0.49399696669E+03  0.54271395334E+03  0.17483763585E+03 0.  0.
        -24    2    3    3    0    0 -0.12778803597E+03 -0.87525088226E+02 -0.40415651558E+03  0.44026485767E+03  0.80624020086E+02 0.  0.
          6    2    1    2  501    0  0.13566394520E+03  0.39147504573E+02 -0.32639745326E+03  0.39554576088E+03  0.17315865071E+03 0.  0.
         24    2    5    5    0    0  0.85621939484E+02 -0.39827127199E+02 -0.22228051467E+03  0.25553282683E+03  0.83493004526E+02 0.  0.
          5    1    5    5  501    0  0.50042005715E+02  0.78974631771E+02 -0.10411693859E+03  0.14001293405E+03  0.47000000000E+01 0. -1.
        -11    1    6    6    0    0  0.10914405414E+02 -0.49099544553E+02 -0.10000391344E+03  0.11194048519E+03  0.00000000000E+00 0.  1.
         12    1    6    6    0    0  0.74707534070E+02  0.92724173543E+01 -0.12227660123E+03  0.14359234165E+03  0.00000000000E+00 0. -1.
         -5    1    3    3    0  503 -0.78759092282E+01  0.48377583654E+02 -0.89840451113E+02  0.10244909566E+03  0.47000000000E+01 0.  1.
         11    1    4    4    0    0 -0.85346798384E+02 -0.60354871311E+02 -0.35421397820E+03  0.36931602840E+03  0.00000000000E+00 0. -1.
        -12    1    4    4    0    0 -0.42441237587E+02 -0.27170216915E+02 -0.49942537377E+02  0.70948829270E+02  0.00000000000E+00 0.  1.
<mgrwt>
<rscale>  2 0.22440750E+03</rscale>
<asrwt>0</asrwt>
<pdfrwt beam="1">  1       21 0.90665618E-02 0.22473414E+03</pdfrwt>
<pdfrwt beam="2">  1       21 0.13528108E+00 0.22473414E+03</pdfrwt>
<totfact> 0.37008447E+04</totfact>
</mgrwt>
</event>
<event>
12    1  0.1026879E-001  0.2505782E+03  0.7546771E-02  0.1112972E+00
         21   -1    0    0  501  502  0.00000000000E+00  0.00000000000E+00  0.19780346006E+03  0.19780346006E+03  0.00000000000E+00 0. -1.
         21   -1    0    0  502  503 -0.00000000000E+00 -0.00000000000E+00 -0.41642423874E+03  0.41642423874E+03  0.00000000000E+00 0.  1.
         -6    2    1    2    0  503  0.95685492295E+02 -0.15392738118E+03 -0.25927918462E+03  0.36057612687E+03  0.17303206518E+03 0.  0.
        -24    2    3    3    0    0  0.17157460986E+02 -0.14343660161E+03 -0.21004610943E+03  0.26718076377E+03  0.79985969335E+02 0.  0.
          6    2    1    2  501    0 -0.95685492295E+02  0.15392738118E+03  0.40658405933E+02  0.25365157193E+03  0.17273292058E+03 0.  0.
         24    2    5    5    0    0 -0.37404162680E+02  0.63114197405E+01 -0.37771352379E+01  0.88776489595E+02  0.80175388676E+02 0.  0.
          5    1    5    5  501    0 -0.58281329615E+02  0.14761596144E+03  0.44435541171E+02  0.16487508233E+03  0.47000000000E+01 0. -1.
        -11    1    6    6    0    0  0.15813243042E+02  0.25473100844E+02  0.79351191166E+01  0.31014571374E+02  0.00000000000E+00 0.  1.
         12    1    6    6    0    0 -0.53217405722E+02 -0.19161681104E+02 -0.11712254355E+02  0.57761918221E+02  0.00000000000E+00 0. -1.
         -5    1    3    3    0  503  0.78528031309E+02 -0.10490779573E+02 -0.49233075188E+02  0.93395363106E+02  0.47000000000E+01 0.  1.
         13    1    4    4    0    0 -0.90985380259E+01 -0.60484939375E+01  0.38721781990E+01  0.11591438096E+02  0.00000000000E+00 0. -1.
        -14    1    4    4    0    0  0.26255999012E+02 -0.13738810767E+03 -0.21391828763E+03  0.25558932567E+03  0.00000000000E+00 0.  1.
<mgrwt>
<rscale>  2 0.25052659E+03</rscale>
<asrwt>0</asrwt>
<pdfrwt beam="1">  1       21 0.30431302E-01 0.25057823E+03</pdfrwt>
<pdfrwt beam="2">  1       21 0.64065267E-01 0.25057823E+03</pdfrwt>
<totfact> 0.22600877E+04</totfact>
</mgrwt>
</event>
<event>
12    1  0.1026879E-001  0.1939626E+03  0.7546771E-02  0.1155428E+00
         21   -1    0    0  501  502  0.00000000000E+00  0.00000000000E+00  0.37076374591E+03  0.37076374591E+03  0.00000000000E+00 0. -1.
         21   -1    0    0  502  503 -0.00000000000E+00 -0.00000000000E+00 -0.41679521190E+03  0.41679521190E+03  0.00000000000E+00 0. -1.
         -6    2    1    2    0  503  0.85444893756E+02 -0.12747941345E+02 -0.36618645296E+03  0.41438386842E+03  0.17366096913E+03 0.  0.
        -24    2    3    3    0    0  0.46059345183E+02  0.54030773392E+02 -0.26978794861E+03  0.29058815033E+03  0.81333560978E+02 0.  0.
          6    2    1    2  501    0 -0.85444893756E+02  0.12747941345E+02  0.32015498697E+03  0.37317508939E+03  0.17116393248E+03 0.  0.
         24    2    5    5    0    0 -0.11973173985E+03 -0.37439158208E+01  0.29423263537E+03  0.32689736818E+03  0.77067108273E+02 0.  0.
          5    1    5    5  501    0  0.34286846091E+02  0.16491857166E+02  0.25922351603E+02  0.46277721208E+02  0.47000000000E+01 0. -1.
        -13    1    6    6    0    0 -0.19482203299E+02 -0.16478480752E+01  0.14979866440E+03  0.15106922753E+03  0.00000000000E+00 0.  1.
         14    1    6    6    0    0 -0.10024953655E+03 -0.20960677456E+01  0.14443397096E+03  0.17582814065E+03  0.00000000000E+00 0. -1.
         -5    1    3    3    0  503  0.39385548573E+02 -0.66778714737E+02 -0.96398504351E+02  0.12379571810E+03  0.47000000000E+01 0.  1.
         13    1    4    4    0    0  0.60306509925E+02  0.16559471105E+02 -0.20568311441E+03  0.21498054511E+03  0.00000000000E+00 0. -1.
        -14    1    4    4    0    0 -0.14247164743E+02  0.37471302287E+02 -0.64104834203E+02  0.75607605216E+02  0.00000000000E+00 0.  1.
<mgrwt>
<rscale>  2 0.19340202E+03</rscale>
<asrwt>0</asrwt>
<pdfrwt beam="1">  1       21 0.57040577E-01 0.19396255E+03</pdfrwt>
<pdfrwt beam="2">  1       21 0.64122340E-01 0.19396255E+03</pdfrwt>
<totfact> 0.64753257E+03</totfact>
</mgrwt>
</event>
<event>
12    1  0.1026879E-001  0.2000893E+03  0.7546771E-02  0.1149958E+00
         21   -1    0    0  503  502  0.00000000000E+00  0.00000000000E+00  0.54896329959E+02  0.54896329959E+02  0.00000000000E+00 0.  1.
         21   -1    0    0  501  503 -0.00000000000E+00 -0.00000000000E+00 -0.73827176698E+03  0.73827176698E+03  0.00000000000E+00 0.  1.
          6    2    1    2  501    0 -0.94861708579E+02  0.29873921309E+02 -0.28584072906E+03  0.34811803061E+03  0.17201757444E+03 0.  0.
         24    2    3    3    0    0 -0.79758309353E+02 -0.19949274260E+02 -0.92349241514E+02  0.14768971615E+03  0.80774429080E+02 0.  0.
         -6    2    1    2    0  502  0.94861708579E+02 -0.29873921309E+02 -0.39753470796E+03  0.44505006633E+03  0.17362178026E+03 0.  0.
        -24    2    5    5    0    0  0.62102115544E+02  0.85639122855E+01 -0.37730372306E+03  0.39044200157E+03  0.78465558084E+02 0.  0.
          5    1    3    3  501    0 -0.15103399225E+02  0.49823195570E+02 -0.19349148755E+03  0.20042831446E+03  0.47000000000E+01 0. -1.
        -11    1    4    4    0    0 -0.80862856876E+02  0.12073255230E+02 -0.76393529648E+02  0.11189520314E+03  0.00000000000E+00 0.  1.
         12    1    4    4    0    0  0.11045475232E+01 -0.32022529490E+02 -0.15955711866E+02  0.35794513006E+02  0.00000000000E+00 0. -1.
         -5    1    5    5    0  502  0.32759593035E+02 -0.38437833595E+02 -0.20230984904E+02  0.54608064766E+02  0.47000000000E+01 0.  1.
         13    1    6    6    0    0  0.16642512352E+02 -0.32561126178E+02 -0.18586212848E+03  0.18942526484E+03  0.00000000000E+00 0. -1.
        -14    1    6    6    0    0  0.45459603192E+02  0.41125038463E+02 -0.19144159457E+03  0.20101673673E+03  0.00000000000E+00 0.  1.
<mgrwt>
<rscale>  2 0.19974076E+03</rscale>
<asrwt>0</asrwt>
<pdfrwt beam="1">  1       21 0.84455896E-02 0.20008927E+03</pdfrwt>
<pdfrwt beam="2">  1       21 0.11358027E+00 0.20008927E+03</pdfrwt>
<totfact> 0.65732087E+04</totfact>
</mgrwt>
</event>
<event>
12    1  0.1026879E-001  0.2973890E+03  0.7546771E-02  0.1086562E+00
         21   -1    0    0  501  502  0.00000000000E+00  0.00000000000E+00  0.10338209505E+04  0.10338209505E+04  0.00000000000E+00 0. -1.
         21   -1    0    0  502  503 -0.00000000000E+00 -0.00000000000E+00 -0.13828717431E+03  0.13828717431E+03  0.00000000000E+00 0. -1.
         -6    2    1    2    0  503 -0.21410326335E+03  0.11148193501E+03  0.85805427831E+02  0.30952023942E+03  0.17370025318E+03 0.  0.
        -24    2    3    3    0    0 -0.11682246106E+03 -0.96399528912E+00  0.76548765836E+02  0.16047186632E+03  0.79013224410E+02 0.  0.
          6    2    1    2  501    0  0.21410326335E+03 -0.11148193501E+03  0.80972834831E+03  0.86258788534E+03  0.17357831852E+03 0.  0.
         24    2    5    5    0    0  0.92637411635E+02 -0.20362177256E+02  0.21050210641E+03  0.24440430227E+03  0.80162446751E+02 0.  0.
          5    1    5    5  501    0  0.12146585171E+03 -0.91119757751E+02  0.59922624191E+03  0.61818358307E+03  0.47000000000E+01 0. -1.
        -11    1    6    6    0    0 -0.69702626643E+01  0.73253684773E+01  0.65754833508E+02  0.66527766494E+02  0.00000000000E+00 0.  1.
         12    1    6    6    0    0  0.99607674300E+02 -0.27687545734E+02  0.14474727290E+03  0.17787653578E+03  0.00000000000E+00 0. -1.
         -5    1    3    3    0  503 -0.97280802285E+02  0.11244593030E+03  0.92566619956E+01  0.14904837310E+03  0.47000000000E+01 0.  1.
         11    1    4    4    0    0 -0.70055854451E+02  0.33845020579E+02  0.64219425779E+02  0.10088331283E+03  0.00000000000E+00 0. -1.
        -12    1    4    4    0    0 -0.46766606613E+02 -0.34809015868E+02  0.12329340056E+02  0.59588553482E+02  0.00000000000E+00 0.  1.
<mgrwt>
<rscale>  2 0.29737118E+03</rscale>
<asrwt>0</asrwt>
<pdfrwt beam="1">  1       21 0.15904937E+00 0.29738898E+03</pdfrwt>
<pdfrwt beam="2">  1       21 0.21274951E-01 0.29738898E+03</pdfrwt>
<totfact> 0.48875678E+03</totfact>
</mgrwt>
</event>
<event>
12    1  0.1026879E-001  0.1948507E+03  0.7546771E-02  0.1154282E+00
         21   -1    0    0  503  502  0.00000000000E+00  0.00000000000E+00  0.20925572718E+03  0.20925572718E+03  0.00000000000E+00 0. -1.
         21   -1    0    0  501  503 -0.00000000000E+00 -0.00000000000E+00 -0.18672606038E+03  0.18672606038E+03  0.00000000000E+00 0. -1.
          6    2    1    2  501    0  0.83466998971E+02  0.21142426007E+02 -0.23706412761E+02  0.19572050408E+03  0.17415734156E+03 0.  0.
         24    2    3    3    0    0  0.58979365530E+02  0.45456255188E+02 -0.76546855210E+02  0.13243536492E+03  0.78325399101E+02 0.  0.
         -6    2    1    2    0  502 -0.83466998971E+02 -0.21142426007E+02  0.46236079561E+02  0.20026128348E+03  0.17479434920E+03 0.  0.
        -24    2    5    5    0    0 -0.95963339092E+02  0.15444049325E+02 -0.17808922019E+02  0.12530408956E+03  0.77048530468E+02 0.  0.
          5    1    3    3  501    0  0.24487633441E+02 -0.24313829181E+02  0.52840442449E+02  0.63285139166E+02  0.47000000000E+01 0. -1.
        -13    1    4    4    0    0 -0.26899171807E+01  0.71591441216E+00  0.13899641056E+02  0.14175620247E+02  0.00000000000E+00 0.  1.
         14    1    4    4    0    0  0.61669282711E+02  0.44740340776E+02 -0.90446496266E+02  0.11825974467E+03  0.00000000000E+00 0. -1.
         -5    1    5    5    0  502  0.12496340121E+02 -0.36586475332E+02  0.64045001579E+02  0.74957193924E+02  0.47000000000E+01 0.  1.
         13    1    6    6    0    0 -0.21552362623E+02 -0.74276689129E+01  0.27115291396E+02  0.35424760093E+02  0.00000000000E+00 0. -1.
        -14    1    6    6    0    0 -0.74410976468E+02  0.22871718238E+02 -0.44924213415E+02  0.89879329465E+02  0.00000000000E+00 0.  1.
<mgrwt>
<rscale>  2 0.19470776E+03</rscale>
<asrwt>0</asrwt>
<pdfrwt beam="1">  1       21 0.32193189E-01 0.19485073E+03</pdfrwt>
<pdfrwt beam="2">  1       21 0.28727086E-01 0.19485073E+03</pdfrwt>
<totfact> 0.10752137E+05</totfact>
</mgrwt>
</event>
<event>
12    1  0.1026879E-001  0.1975947E+03  0.7546771E-02  0.1151922E+00
         21   -1    0    0  501  502  0.00000000000E+00  0.00000000000E+00  0.38531376514E+02  0.38531376514E+02  0.00000000000E+00 0. -1.
         21   -1    0    0  502  503 -0.00000000000E+00 -0.00000000000E+00 -0.10388451880E+04  0.10388451880E+04  0.00000000000E+00 0. -1.
         -6    2    1    2    0  503 -0.22129108163E+02  0.91262780621E+02 -0.40963324639E+03  0.45452248855E+03  0.17312626459E+03 0.  0.
        -24    2    3    3    0    0 -0.28384071080E+02  0.12425901502E+03 -0.38289807660E+03  0.41133990700E+03  0.79646868872E+02 0.  0.
          6    2    1    2  501    0  0.22129108163E+02 -0.91262780621E+02 -0.59068056510E+03  0.62285407597E+03  0.17385360915E+03 0.  0.
         24    2    5    5    0    0 -0.27137994251E+02  0.16161414095E+02 -0.25245903549E+03  0.26454820373E+03  0.72474308959E+02 0.  0.
          5    1    5    5  501    0  0.49267102415E+02 -0.10742419472E+03 -0.33822152961E+03  0.35830587224E+03  0.47000000000E+01 0. -1.
        -13    1    6    6    0    0 -0.36465193578E+02  0.93647993835E+01 -0.54422427222E+02  0.66175602716E+02  0.00000000000E+00 0.  1.
         14    1    6    6    0    0  0.93271993266E+01  0.67966147115E+01 -0.19803660827E+03  0.19837260101E+03  0.00000000000E+00 0. -1.
         -5    1    3    3    0  503  0.62549629165E+01 -0.32996234397E+02 -0.26735169794E+02  0.43182581551E+02  0.47000000000E+01 0.  1.
         13    1    4    4    0    0 -0.15288667364E+02  0.46985348141E+02 -0.53836887578E+02  0.73073776102E+02  0.00000000000E+00 0. -1.
        -14    1    4    4    0    0 -0.13095403716E+02  0.77273666877E+02 -0.32906118902E+03  0.33826613090E+03  0.00000000000E+00 0.  1.
<mgrwt>
<rscale>  2 0.19743460E+03</rscale>
<asrwt>0</asrwt>
<pdfrwt beam="1">  1       21 0.59279047E-02 0.19759471E+03</pdfrwt>
<pdfrwt beam="2">  1       21 0.15982232E+00 0.19759471E+03</pdfrwt>
<totfact> 0.50672087E+04</totfact>
</mgrwt>
</event>
<event>
12    1  0.1026879E-001  0.2200342E+03  0.7546771E-02  0.1134240E+00
         21   -1    0    0  503  502  0.00000000000E+00  0.00000000000E+00  0.17501024775E+03  0.17501024775E+03  0.00000000000E+00 0. -1.
         21   -1    0    0  501  503 -0.00000000000E+00 -0.00000000000E+00 -0.31789609214E+03  0.31789609214E+03  0.00000000000E+00 0. -1.
          6    2    1    2  501    0  0.84067852075E+02  0.10657868025E+03  0.19764076005E+02  0.22092004601E+03  0.17317225295E+03 0.  0.
         24    2    3    3    0    0  0.10975105592E+03  0.56853699878E+02 -0.24375570391E+02  0.14948756728E+03  0.80465687563E+02 0.  0.
         -6    2    1    2    0  502 -0.84067852075E+02 -0.10657868025E+03 -0.16264992039E+03  0.27198629388E+03  0.17057294223E+03 0.  0.
        -24    2    5    5    0    0 -0.10865039168E+03 -0.53874293799E+02 -0.15574599104E+03  0.21323420588E+03  0.80651507657E+02 0.  0.
          5    1    3    3  501    0 -0.25683203846E+02  0.49724980372E+02  0.44139646396E+02  0.71432478725E+02  0.47000000000E+01 0. -1.
        -13    1    4    4    0    0  0.29829906342E+02 -0.41437956962E+01  0.23434434917E+02  0.38159757534E+02  0.00000000000E+00 0.  1.
         14    1    4    4    0    0  0.79921149579E+02  0.60997495574E+02 -0.47810005308E+02  0.11132780975E+03  0.00000000000E+00 0. -1.
         -5    1    5    5    0  502  0.24582539600E+02 -0.52704386450E+02 -0.69039293450E+01  0.58752088003E+02  0.47000000000E+01 0.  1.
         13    1    6    6    0    0 -0.39594001687E+02 -0.63964139296E+02 -0.70893268679E+02  0.10336803969E+03  0.00000000000E+00 0. -1.
        -14    1    6    6    0    0 -0.69056389988E+02  0.10089845497E+02 -0.84852722362E+02  0.10986616619E+03  0.00000000000E+00 0.  1.
<mgrwt>
<rscale>  2 0.21952246E+03</rscale>
<asrwt>0</asrwt>
<pdfrwt beam="1">  1       21 0.26924653E-01 0.22003420E+03</pdfrwt>
<pdfrwt beam="2">  1       21 0.48907091E-01 0.22003420E+03</pdfrwt>
<totfact> 0.51754704E+04</totfact>
</mgrwt>
</event>
<event>
12    1  0.1026879E-001  0.1900414E+03  0.7546771E-02  0.1158917E+00
         21   -1    0    0  501  502  0.00000000000E+00  0.00000000000E+00  0.21667070545E+03  0.21667070545E+03  0.00000000000E+00 0.  1.
         21   -1    0    0  502  503 -0.00000000000E+00 -0.00000000000E+00 -0.20108662743E+03  0.20108662743E+03  0.00000000000E+00 0.  1.
         -6    2    1    2    0  503 -0.17208093013E+02  0.74385265063E+02 -0.80921161316E+02  0.20655254259E+03  0.17402997552E+03 0.  0.
        -24    2    3    3    0    0  0.57222837049E+02  0.45954026714E+02 -0.58132282542E+02  0.12354819536E+03  0.80613700149E+02 0.  0.
          6    2    1    2  501    0  0.17208093013E+02 -0.74385265063E+02  0.96505239338E+02  0.21120479029E+03  0.17165347680E+03 0.  0.
         24    2    5    5    0    0  0.54593384502E+02  0.33659715689E+01  0.30777154785E+02  0.10264519414E+03  0.81222135083E+02 0.  0.
          5    1    5    5  501    0 -0.37385291489E+02 -0.77751236631E+02  0.65728084554E+02  0.10855959615E+03  0.47000000000E+01 0. -1.
        -13    1    6    6    0    0  0.54322846625E+02  0.16922484538E+02  0.52250419951E+02  0.77249262349E+02  0.00000000000E+00 0.  1.
         14    1    6    6    0    0  0.27053787710E+00 -0.13556512969E+02 -0.21473265167E+02  0.25395931791E+02  0.00000000000E+00 0. -1.
         -5    1    3    3    0  503 -0.74430930062E+02  0.28431238349E+02 -0.22788878773E+02  0.83004347234E+02  0.47000000000E+01 0.  1.
         11    1    4    4    0    0  0.25797482926E+02 -0.43505957933E+01 -0.58662895899E+02  0.64232181687E+02  0.00000000000E+00 0. -1.
        -12    1    4    4    0    0  0.31425354123E+02  0.50304622507E+02  0.53061335658E+00  0.59316013671E+02  0.00000000000E+00 0.  1.
<mgrwt>
<rscale>  2 0.18949555E+03</rscale>
<asrwt>0</asrwt>
<pdfrwt beam="1">  1       21 0.33333955E-01 0.19004136E+03</pdfrwt>
<pdfrwt beam="2">  1       21 0.30936404E-01 0.19004136E+03</pdfrwt>
<totfact> 0.87067498E+04</totfact>
</mgrwt>
</event>
<event>
12    1  0.1026879E-001  0.2803057E+03  0.7546771E-02  0.1095597E+00
         21   -1    0    0  503  502  0.00000000000E+00  0.00000000000E+00  0.18922222560E+03  0.18922222560E+03  0.00000000000E+00 0.  1.
         21   -1    0    0  501  503 -0.00000000000E+00 -0.00000000000E+00 -0.50013942492E+03  0.50013942492E+03  0.00000000000E+00 0. -1.
          6    2    1    2  501    0  0.41355027224E+02 -0.21659817994E+03 -0.29827886308E+03  0.40931842635E+03  0.17304994699E+03 0.  0.
         24    2    3    3    0    0  0.15186503026E+02 -0.22814146410E+02 -0.98269167017E+02  0.12956315503E+03  0.79866556229E+02 0.  0.
         -6    2    1    2    0  502 -0.41355027224E+02  0.21659817994E+03 -0.12638336236E+02  0.28004322417E+03  0.17216117458E+03 0.  0.
        -24    2    5    5    0    0  0.84010582221E+01  0.11895729877E+03 -0.65793737822E+02  0.15815394478E+03  0.80389287847E+02 0.  0.
          5    1    3    3  501    0  0.26168524198E+02 -0.19378403353E+03 -0.20000969606E+03  0.27975527132E+03  0.47000000000E+01 0. -1.
        -13    1    4    4    0    0  0.42187616595E+02  0.48796972790E+01 -0.69145662488E+02  0.81146343605E+02  0.00000000000E+00 0.  1.
         14    1    4    4    0    0 -0.27001113570E+02 -0.27693843689E+02 -0.29123504528E+02  0.48416811422E+02  0.00000000000E+00 0. -1.
         -5    1    5    5    0  502 -0.49756085446E+02  0.97640881170E+02  0.53155401586E+02  0.12188927940E+03  0.47000000000E+01 0.  1.
         11    1    6    6    0    0  0.31490422792E+01 -0.10399060187E+02 -0.16222650479E+02  0.19525145547E+02  0.00000000000E+00 0. -1.
        -12    1    6    6    0    0  0.52520159429E+01  0.12935635896E+03 -0.49571087343E+02  0.13862879923E+03  0.00000000000E+00 0.  1.
<mgrwt>
<rscale>  2 0.28016866E+03</rscale>
<asrwt>0</asrwt>
<pdfrwt beam="1">  1       21 0.29111112E-01 0.28030572E+03</pdfrwt>
<pdfrwt beam="2">  1       21 0.76944525E-01 0.28030572E+03</pdfrwt>
<totfact> 0.16179690E+04</totfact>
</mgrwt>
</event>
<event>
12    1  0.1026879E-001  0.2238473E+03  0.7546771E-02  0.1131090E+00
         21   -1    0    0  503  502  0.00000000000E+00  0.00000000000E+00  0.63582057188E+02  0.63582057188E+02  0.00000000000E+00 0.  1.
         21   -1    0    0  501  503 -0.00000000000E+00 -0.00000000000E+00 -0.13493623472E+04  0.13493623472E+04  0.00000000000E+00 0.  1.
          6    2    1    2  501    0 -0.11016806866E+03 -0.88762916950E+02 -0.10990722333E+04  0.11216360365E+04  0.17346978299E+03 0.  0.
         24    2    3    3    0    0 -0.76398120597E+02 -0.88402836035E+02 -0.45461211775E+03  0.47627453349E+03  0.80706377650E+02 0.  0.
         -6    2    1    2    0  502  0.11016806866E+03  0.88762916950E+02 -0.18670805671E+03  0.29130836788E+03  0.17316121961E+03 0.  0.
        -24    2    5    5    0    0  0.24493669232E+02  0.64256361425E+02 -0.16930183316E+03  0.20039224939E+03  0.82250368334E+02 0.  0.
          5    1    3    3  501    0 -0.33769948067E+02 -0.36008091496E+00 -0.64446011555E+03  0.64536150302E+03  0.47000000000E+01 0. -1.
        -13    1    4    4    0    0  0.13047723386E+02 -0.10280355767E+02 -0.12141064128E+03  0.12254171786E+03  0.00000000000E+00 0.  1.
         14    1    4    4    0    0 -0.89445843983E+02 -0.78122480269E+02 -0.33320147647E+03  0.35373281563E+03  0.00000000000E+00 0. -1.
         -5    1    5    5    0  502  0.85674399432E+02  0.24506555525E+02 -0.17406223557E+02  0.90916118484E+02  0.47000000000E+01 0.  1.
         13    1    6    6    0    0  0.47224307102E+02  0.46288835711E+02 -0.15406271364E+03  0.16765473816E+03  0.00000000000E+00 0. -1.
        -14    1    6    6    0    0 -0.22730637870E+02  0.17967525714E+02 -0.15239119515E+02  0.32737511235E+02  0.00000000000E+00 0.  1.
<mgrwt>
<rscale>  2 0.22378754E+03</rscale>
<asrwt>0</asrwt>
<pdfrwt beam="1">  1       21 0.97818552E-02 0.22384732E+03</pdfrwt>
<pdfrwt beam="2">  1       21 0.20759420E+00 0.22384732E+03</pdfrwt>
<totfact> 0.98807422E+03</totfact>
</mgrwt>
</event>
<event>
12    1  0.1026879E-001  0.4031429E+03  0.7546771E-02  0.1042812E+00
         21   -1    0    0  501  502  0.00000000000E+00  0.00000000000E+00  0.71623471073E+03  0.71623471073E+03  0.00000000000E+00 0.  1.
         21   -1    0    0  502  503 -0.00000000000E+00 -0.00000000000E+00 -0.72748243879E+03  0.72748243879E+03  0.00000000000E+00 0. -1.
         -6    2    1    2    0  503 -0.23859284344E+03  0.27360352030E+03 -0.60486324040E+03  0.72690007889E+03  0.17532470971E+03 0.  0.
        -24    2    3    3    0    0 -0.11409469638E+03  0.17389667335E+03 -0.23658853403E+03  0.32554039818E+03  0.82126510120E+02 0.  0.
          6    2    1    2  501    0  0.23859284344E+03 -0.27360352030E+03  0.59361551235E+03  0.71681707063E+03  0.17222631907E+03 0.  0.
         24    2    5    5    0    0  0.19177748124E+03 -0.16538311153E+03  0.31980375692E+03  0.41865888707E+03  0.94184101047E+02 0.  0.
          5    1    5    5  501    0  0.46815362198E+02 -0.10822040876E+03  0.27381175544E+03  0.29815818356E+03  0.47000000000E+01 0. -1.
        -13    1    6    6    0    0  0.46109383009E+02 -0.83563616023E+02  0.16646910088E+03  0.19188776582E+03  0.00000000000E+00 0.  1.
         14    1    6    6    0    0  0.14566809823E+03 -0.81819495512E+02  0.15333465603E+03  0.22677112124E+03  0.00000000000E+00 0. -1.
         -5    1    3    3    0  503 -0.12449814706E+03  0.99706846949E+02 -0.36827470637E+03  0.40135968071E+03  0.47000000000E+01 0.  1.
         11    1    4    4    0    0 -0.67916096392E+02  0.95485778472E+02 -0.19020824132E+03  0.22340390575E+03  0.00000000000E+00 0. -1.
        -12    1    4    4    0    0 -0.46178599989E+02  0.78410894876E+02 -0.46380292712E+02  0.10213649242E+03  0.00000000000E+00 0.  1.
<mgrwt>
<rscale>  2 0.40280802E+03</rscale>
<asrwt>0</asrwt>
<pdfrwt beam="1">  1       21 0.11018996E+00 0.40314288E+03</pdfrwt>
<pdfrwt beam="2">  1       21 0.11192037E+00 0.40314288E+03</pdfrwt>
<totfact> 0.34560983E+02</totfact>
</mgrwt>
</event>
<event>
12    1  0.1026879E-001  0.1915078E+03  0.7546771E-02  0.1157559E+00
         21   -1    0    0  501  502  0.00000000000E+00  0.00000000000E+00  0.15773117489E+04  0.15773117489E+04  0.00000000000E+00 0.  1.
         21   -1    0    0  502  503 -0.00000000000E+00 -0.00000000000E+00 -0.26446448871E+02  0.26446448871E+02  0.00000000000E+00 0.  1.
         -6    2    1    2    0  503  0.36743043440E+02 -0.73208002446E+02  0.48987234824E+03  0.52597543398E+03  0.17310625848E+03 0.  0.
        -24    2    3    3    0    0  0.44621128589E+02  0.17253048215E+02  0.18182531616E+03  0.20478961567E+03  0.81176525559E+02 0.  0.
          6    2    1    2  501    0 -0.36743043440E+02  0.73208002446E+02  0.10609929518E+04  0.10777827638E+04  0.17088059955E+03 0.  0.
         24    2    5    5    0    0 -0.84519153871E+02  0.48373224781E+02  0.87553545999E+03  0.88460954055E+03  0.80549620043E+02 0.  0.
          5    1    5    5  501    0  0.47776110431E+02  0.24834777665E+02  0.18545749180E+03  0.19317322323E+03  0.47000000000E+01 0. -1.
        -13    1    6    6    0    0 -0.78017685706E+02  0.14992050354E+02  0.39722703287E+03  0.40509361449E+03  0.00000000000E+00 0.  1.
         14    1    6    6    0    0 -0.65014681651E+01  0.33381174427E+02  0.47830842713E+03  0.47951592607E+03  0.00000000000E+00 0. -1.
         -5    1    3    3    0  503 -0.78780851489E+01 -0.90461050661E+02  0.30804703208E+03  0.32118581831E+03  0.47000000000E+01 0.  1.
         11    1    4    4    0    0  0.42889197869E+02 -0.62586822103E+01  0.17493978327E+03  0.18022924893E+03  0.00000000000E+00 0. -1.
        -12    1    4    4    0    0  0.17319307202E+01  0.23511730425E+02  0.68855328859E+01  0.24560366747E+02  0.00000000000E+00 0.  1.
<mgrwt>
<rscale>  2 0.19100346E+03</rscale>
<asrwt>0</asrwt>
<pdfrwt beam="1">  1       21 0.24266327E+00 0.19150781E+03</pdfrwt>
<pdfrwt beam="2">  1       21 0.40686857E-02 0.19150781E+03</pdfrwt>
<totfact> 0.28003292E+04</totfact>
</mgrwt>
</event>
<event>
12    1  0.1026879E-001  0.2642650E+03  0.7546771E-02  0.1106794E+00
         21   -1    0    0  501  502  0.00000000000E+00  0.00000000000E+00  0.54622590591E+03  0.54622590591E+03  0.00000000000E+00 0.  1.
         21   -1    0    0  502  503 -0.00000000000E+00 -0.00000000000E+00 -0.46451951267E+03  0.46451951267E+03  0.00000000000E+00 0.  1.
         -6    2    1    2    0  503 -0.15556796863E+03  0.90436221775E+02 -0.39342071926E+03  0.47393653048E+03  0.19353518932E+03 0.  0.
        -24    2    3    3    0    0 -0.11480606289E+03 -0.62994703717E+01 -0.30851159521E+03  0.33884035569E+03  0.80082874968E+02 0.  0.
          6    2    1    2  501    0  0.15556796863E+03 -0.90436221775E+02  0.47512711251E+03  0.53680888811E+03  0.17331447211E+03 0.  0.
         24    2    5    5    0    0  0.13455314896E+03 -0.10212574896E+03  0.25871440857E+03  0.31901353436E+03  0.79386846553E+02 0.  0.
          5    1    5    5  501    0  0.21014819665E+02  0.11689527182E+02  0.21641270393E+03  0.21779535375E+03  0.47000000000E+01 0. -1.
        -11    1    6    6    0    0  0.71031360233E+02 -0.55983584600E+02  0.20448764403E+03  0.22359519772E+03  0.00000000000E+00 0.  1.
         12    1    6    6    0    0  0.63521788727E+02 -0.46142164356E+02  0.54226764542E+02  0.95418336641E+02  0.00000000000E+00 0. -1.
         -5    1    3    3    0  503 -0.40761905734E+02  0.96735692147E+02 -0.84909124051E+02  0.13509617478E+03  0.47000000000E+01 0.  1.
         13    1    4    4    0    0 -0.45318555402E+02 -0.57123200389E+01 -0.37611068225E+02  0.59169202437E+02  0.00000000000E+00 0. -1.
        -14    1    4    4    0    0 -0.69487507489E+02 -0.58715033279E+00 -0.27090052699E+03  0.27967115326E+03  0.00000000000E+00 0.  1.
<mgrwt>
<rscale>  2 0.26058141E+03</rscale>
<asrwt>0</asrwt>
<pdfrwt beam="1">  1       21 0.84034754E-01 0.26426497E+03</pdfrwt>
<pdfrwt beam="2">  1       21 0.71464541E-01 0.26426497E+03</pdfrwt>
<totfact> 0.20584273E+03</totfact>
</mgrwt>
</event>
<event>
12    1  0.1026879E-001  0.2200334E+03  0.7546771E-02  0.1133985E+00
         21   -1    0    0  503  502  0.00000000000E+00  0.00000000000E+00  0.11225843508E+03  0.11225843508E+03  0.00000000000E+00 0. -1.
         21   -1    0    0  501  503 -0.00000000000E+00 -0.00000000000E+00 -0.60530606880E+03  0.60530606880E+03  0.00000000000E+00 0. -1.
          6    2    1    2  501    0  0.27165588003E+02  0.13182540074E+03 -0.43990430506E+03  0.49186430254E+03  0.17406547347E+03 0.  0.
         24    2    3    3    0    0 -0.27577510435E+02  0.28934861653E+02 -0.11675041601E+03  0.14830383353E+03  0.82253401755E+02 0.  0.
         -6    2    1    2    0  502 -0.27165588003E+02 -0.13182540074E+03 -0.53143328668E+02  0.22570020134E+03  0.17320641458E+03 0.  0.
        -24    2    5    5    0    0  0.20736839409E+02 -0.13361613539E+03 -0.54936645494E+01  0.15794749089E+03  0.81449010941E+02 0.  0.
          5    1    3    3  501    0  0.54743098439E+02  0.10289053909E+03 -0.32315388905E+03  0.34356046901E+03  0.47000000000E+01 0. -1.
        -13    1    4    4    0    0 -0.41859896634E+02  0.49832176606E+02 -0.93598948951E+02  0.11400114042E+03  0.00000000000E+00 0.  1.
         14    1    4    4    0    0  0.14282386199E+02 -0.20897314953E+02 -0.23151467057E+02  0.34302693111E+02  0.00000000000E+00 0. -1.
         -5    1    5    5    0  502 -0.47902427412E+02  0.17907346504E+01 -0.47649664119E+02  0.67752710449E+02  0.47000000000E+01 0.  1.
         11    1    6    6    0    0  0.22665321055E+02 -0.40261412370E+02  0.33178317284E+02  0.56881445502E+02  0.00000000000E+00 0. -1.
        -12    1    6    6    0    0 -0.19284816462E+01 -0.93354723020E+02 -0.38671981834E+02  0.10106604539E+03  0.00000000000E+00 0.  1.
<mgrwt>
<rscale>  2 0.21986346E+03</rscale>
<asrwt>0</asrwt>
<pdfrwt beam="1">  1       21 0.17270529E-01 0.22003339E+03</pdfrwt>
<pdfrwt beam="2">  1       21 0.93124009E-01 0.22003339E+03</pdfrwt>
<totfact> 0.28966505E+04</totfact>
</mgrwt>
</event>
<event>
12    1  0.1026879E-001  0.1857526E+03  0.7546771E-02  0.1164065E+00
         21   -1    0    0  503  502  0.00000000000E+00  0.00000000000E+00  0.11283180612E+04  0.11283180612E+04  0.00000000000E+00 0. -1.
         21   -1    0    0  501  503 -0.00000000000E+00 -0.00000000000E+00 -0.34005936286E+02  0.34005936286E+02  0.00000000000E+00 0. -1.
          6    2    1    2  501    0  0.43333780014E+02 -0.11222155125E+02  0.75159403370E+03  0.77250386619E+03  0.17281457849E+03 0.  0.
         24    2    3    3    0    0  0.90644160550E+02 -0.60820416414E+01  0.41465247745E+03  0.43218578674E+03  0.81206663128E+02 0.  0.
         -6    2    1    2    0  502 -0.43333780014E+02  0.11222155125E+02  0.34271809123E+03  0.38982013130E+03  0.18027837213E+03 0.  0.
        -24    2    5    5    0    0  0.31179363629E+01 -0.56082830777E+02  0.13912746419E+03  0.17036864122E+03  0.80709461554E+02 0.  0.
          5    1    3    3  501    0 -0.47310380536E+02 -0.51401134832E+01  0.33694155625E+03  0.34031807945E+03  0.47000000000E+01 0. -1.
        -13    1    4    4    0    0  0.74106544508E+02 -0.39273836711E+02  0.31052598282E+03  0.32165291884E+03  0.00000000000E+00 0.  1.
         14    1    4    4    0    0  0.16537616042E+02  0.33191795070E+02  0.10412649463E+03  0.11053286791E+03  0.00000000000E+00 0. -1.
         -5    1    5    5    0  502 -0.46451716377E+02  0.67304985902E+02  0.20359062704E+03  0.21945149009E+03  0.47000000000E+01 0.  1.
         13    1    6    6    0    0  0.35044527918E+01 -0.31244970676E+02  0.25429266565E+01  0.31543554935E+02  0.00000000000E+00 0. -1.
        -14    1    6    6    0    0 -0.38651642886E+00 -0.24837860101E+02  0.13658453753E+03  0.13882508628E+03  0.00000000000E+00 0.  1.
<mgrwt>
<rscale>  2 0.18391692E+03</rscale>
<asrwt>0</asrwt>
<pdfrwt beam="1">  1       21 0.17358737E+00 0.18575264E+03</pdfrwt>
<pdfrwt beam="2">  1       21 0.52316834E-02 0.18575264E+03</pdfrwt>
<totfact> 0.50378350E+04</totfact>
</mgrwt>
</event>
<event>
11    1  0.1026879E-001  0.2018259E+03  0.7546771E-02  0.1148287E+00
         21   -1    0    0  503  502  0.00000000000E+00  0.00000000000E+00  0.73098879151E+02  0.73098879151E+02  0.00000000000E+00 0. -1.
         21   -1    0    0  501  503 -0.00000000000E+00 -0.00000000000E+00 -0.82051800099E+03  0.82051800099E+03  0.00000000000E+00 0. -1.
          6    2    1    2  501    0 -0.91581273266E+02 -0.48637450687E+02 -0.62754652901E+03  0.65920280810E+03  0.17315012249E+03 0.  0.
         24    2    3    3    0    0 -0.62023790557E+02  0.28110128584E+02 -0.23078550361E+03  0.25398035440E+03  0.81283096779E+02 0.  0.
         -6    2    1    2    0  502  0.91581273266E+02  0.48637450687E+02 -0.11987259283E+03  0.23441407204E+03  0.17270723041E+03 0.  0.
          5    1    3    3  501    0 -0.29557482708E+02 -0.76747579272E+02 -0.39676102540E+03  0.40522245370E+03  0.47000000000E+01 0. -1.
        -13    1    4    4    0    0 -0.11708054280E+02 -0.12062236848E+02 -0.27548751582E+01  0.17034242863E+02  0.00000000000E+00 0.  1.
         14    1    4    4    0    0 -0.50315736278E+02  0.40172365432E+02 -0.22803062845E+03  0.23694611154E+03  0.00000000000E+00 0. -1.
         -5    1    5    5    0  502 -0.81450029502E+01  0.21635834025E+02  0.67339953046E+01  0.24533387042E+02  0.47000000000E+01 0.  1.
         13    1    5    5    0    0  0.80430192756E+02  0.39307911388E+02 -0.88922943953E+01  0.89962218203E+02  0.00000000000E+00 0. -1.
        -14    1    5    5    0    0  0.19296083461E+02 -0.12306294726E+02 -0.11771429374E+03  0.11991846679E+03  0.00000000000E+00 0.  1.
<mgrwt>
<rscale>  2 0.20173088E+03</rscale>
<asrwt>0</asrwt>
<pdfrwt beam="1">  1       21 0.11245981E-01 0.20182591E+03</pdfrwt>
<pdfrwt beam="2">  1       21 0.12623355E+00 0.20182591E+03</pdfrwt>
<totfact> 0.30499466E+04</totfact>
</mgrwt>
</event>
<event>
12    1  0.1026879E-001  0.2806604E+03  0.7546771E-02  0.1095416E+00
         21   -1    0    0  503  502  0.00000000000E+00  0.00000000000E+00  0.44490737596E+03  0.44490737596E+03  0.00000000000E+00 0.  1.
         21   -1    0    0  501  503 -0.00000000000E+00 -0.00000000000E+00 -0.17793389951E+03  0.17793389951E+03  0.00000000000E+00 0. -1.
          6    2    1    2  501    0 -0.27606036353E+02  0.21708235359E+03  0.10682365673E+03  0.29970316904E+03  0.17471077360E+03 0.  0.
         24    2    3    3    0    0 -0.50197642323E+02  0.11920090642E+03 -0.27697005912E+00  0.15278893345E+03  0.81337089236E+02 0.  0.
         -6    2    1    2    0  502  0.27606036353E+02 -0.21708235359E+03  0.16014981972E+03  0.32313810644E+03  0.17573681911E+03 0.  0.
        -24    2    5    5    0    0  0.79121688696E+02 -0.14828109983E+03  0.71829954543E+02  0.19980942551E+03  0.80726315183E+02 0.  0.
          5    1    3    3  501    0  0.22591605970E+02  0.97881447171E+02  0.10710062679E+03  0.14691423559E+03  0.47000000000E+01 0. -1.
        -13    1    4    4    0    0 -0.13324375515E+02  0.61780228707E+02  0.38791604919E+02  0.74156080358E+02  0.00000000000E+00 0.  1.
         14    1    4    4    0    0 -0.36873266808E+02  0.57420677714E+02 -0.39068574978E+02  0.78632853090E+02  0.00000000000E+00 0. -1.
         -5    1    5    5    0  502 -0.51515652343E+02 -0.68801253762E+02  0.88319865173E+02  0.12332868093E+03  0.47000000000E+01 0.  1.
         11    1    6    6    0    0  0.30001626032E+02 -0.10383126358E+03  0.89110312020E+01  0.10844554088E+03  0.00000000000E+00 0. -1.
        -12    1    6    6    0    0  0.49120062664E+02 -0.44449836253E+02  0.62918923341E+02  0.91363884623E+02  0.00000000000E+00 0.  1.
<mgrwt>
<rscale>  2 0.28049995E+03</rscale>
<asrwt>0</asrwt>
<pdfrwt beam="1">  1       21 0.68447288E-01 0.28066042E+03</pdfrwt>
<pdfrwt beam="2">  1       21 0.27374446E-01 0.28066042E+03</pdfrwt>
<totfact> 0.23712780E+04</totfact>
</mgrwt>
</event>
<event>
12    1  0.1026879E-001  0.1866845E+03  0.7546771E-02  0.1162192E+00
         21   -1    0    0  503  502  0.00000000000E+00  0.00000000000E+00  0.49343812465E+03  0.49343812465E+03  0.00000000000E+00 0. -1.
         21   -1    0    0  501  503 -0.00000000000E+00 -0.00000000000E+00 -0.93347951785E+02  0.93347951785E+02  0.00000000000E+00 0. -1.
          6    2    1    2  501    0  0.61416532516E+02  0.12816968240E+02  0.52932937228E+02  0.19404378178E+03  0.17582613078E+03 0.  0.
         24    2    3    3    0    0  0.10294511219E+03 -0.11165311869E+02  0.66264992782E+02  0.14404771800E+03  0.75075531839E+02 0.  0.
         -6    2    1    2    0  502 -0.61416532516E+02 -0.12816968240E+02  0.34715723563E+03  0.39274229465E+03  0.17260387774E+03 0.  0.
        -24    2    5    5    0    0 -0.45857461961E+02  0.57207615456E+02  0.23991406798E+03  0.26363492070E+03  0.81049326440E+02 0.  0.
          5    1    3    3  501    0 -0.41528579669E+02  0.23982280109E+02 -0.13332055553E+02  0.49996063783E+02  0.47000000000E+01 0. -1.
        -13    1    4    4    0    0  0.60401193406E+02  0.16332225201E+02  0.69215671577E+02  0.93305171007E+02  0.00000000000E+00 0.  1.
         14    1    4    4    0    0  0.42543918779E+02 -0.27497537070E+02 -0.29506787953E+01  0.50742546993E+02  0.00000000000E+00 0. -1.
         -5    1    5    5    0  502 -0.15559070556E+02 -0.70024583696E+02  0.10724316766E+03  0.12910737395E+03  0.47000000000E+01 0.  1.
         11    1    6    6    0    0 -0.62564723418E+02  0.39133376970E+02  0.11735564304E+03  0.13862940800E+03  0.00000000000E+00 0. -1.
        -12    1    6    6    0    0  0.16707261457E+02  0.18074238486E+02  0.12255842494E+03  0.12500551270E+03  0.00000000000E+00 0.  1.
<mgrwt>
<rscale>  2 0.18592191E+03</rscale>
<asrwt>0</asrwt>
<pdfrwt beam="1">  1       21 0.75913556E-01 0.18668448E+03</pdfrwt>
<pdfrwt beam="2">  1       21 0.14361224E-01 0.18668448E+03</pdfrwt>
<totfact> 0.65875868E+04</totfact>
</mgrwt>
</event>
<event>
12    1  0.1026879E-001  0.1753907E+03  0.7546771E-02  0.1172813E+00
         21   -1    0    0  503  502  0.00000000000E+00  0.00000000000E+00  0.28481192913E+04  0.28481192913E+04  0.00000000000E+00 0. -1.
         21   -1    0    0  501  503 -0.00000000000E+00 -0.00000000000E+00 -0.32213480593E+02  0.32213480593E+02  0.00000000000E+00 0. -1.
          6    2    1    2  501    0  0.32263938652E+02 -0.55487855956E+00  0.22811215929E+03  0.28660227369E+03  0.17048295059E+03 0.  0.
         24    2    3    3    0    0  0.21792193316E+02 -0.66414823518E+02  0.13962311528E+03  0.17569875386E+03  0.80558111432E+02 0.  0.
         -6    2    1    2    0  502 -0.32263938652E+02  0.55487855956E+00  0.25877936514E+04  0.25937304982E+04  0.17239676720E+03 0.  0.
        -24    2    5    5    0    0 -0.18950863913E+02  0.48490287026E+02  0.22712387640E+04  0.22732556504E+04  0.80344792326E+02 0.  0.
          5    1    3    3  501    0  0.10471745336E+02  0.65859944958E+02  0.88489044009E+02  0.11090351983E+03  0.47000000000E+01 0. -1.
        -13    1    4    4    0    0  0.34888429806E+01 -0.52766852332E+01  0.10080055704E+03  0.10099885015E+03  0.00000000000E+00 0.  1.
         14    1    4    4    0    0  0.18303350336E+02 -0.61138138285E+02  0.38822558234E+02  0.74699903710E+02  0.00000000000E+00 0. -1.
         -5    1    5    5    0  502 -0.13313074740E+02 -0.47935408466E+02  0.31655488738E+03  0.32047484779E+03  0.47000000000E+01 0.  1.
         11    1    6    6    0    0 -0.48184486207E+02  0.39369521041E+02  0.17608202435E+04  0.17619193040E+04  0.00000000000E+00 0. -1.
        -12    1    6    6    0    0  0.29233622294E+02  0.91207659850E+01  0.51041852056E+03  0.51133634642E+03  0.00000000000E+00 0.  1.
<mgrwt>
<rscale>  2 0.17491865E+03</rscale>
<asrwt>0</asrwt>
<pdfrwt beam="1">  1       21 0.43817200E+00 0.17539075E+03</pdfrwt>
<pdfrwt beam="2">  1       21 0.49559223E-02 0.17539075E+03</pdfrwt>
<totfact> 0.13980757E+03</totfact>
</mgrwt>
</event>
<event>
12    1  0.1026879E-001  0.2668046E+03  0.7546771E-02  0.1103496E+00
         21   -1    0    0  501  502  0.00000000000E+00  0.00000000000E+00  0.25051622695E+03  0.25051622695E+03  0.00000000000E+00 0.  1.
         21   -1    0    0  502  503 -0.00000000000E+00 -0.00000000000E+00 -0.57438382504E+03  0.57438382504E+03  0.00000000000E+00 0. -1.
         -6    2    1    2    0  503 -0.12074769910E+03  0.16366099899E+03 -0.45610434749E+03  0.52712286586E+03  0.16870806292E+03 0.  0.
        -24    2    3    3    0    0 -0.21459178960E+02  0.14153920061E+03 -0.28351963914E+03  0.32673535191E+03  0.76673090048E+02 0.  0.
          6    2    1    2  501    0  0.12074769910E+03 -0.16366099899E+03  0.13223674940E+03  0.29777718613E+03  0.17268400407E+03 0.  0.
         24    2    5    5    0    0  0.89522453237E+02 -0.14009335851E+03  0.28586498228E+02  0.18689024269E+03  0.80438524356E+02 0.  0.
          5    1    5    5  501    0  0.31225245859E+02 -0.23567640474E+02  0.10365025117E+03  0.11088694343E+03  0.47000000000E+01 0. -1.
        -13    1    6    6    0    0  0.50648256389E+02 -0.99789500558E+02  0.55326548241E+02  0.12483676236E+03  0.00000000000E+00 0.  1.
         14    1    6    6    0    0  0.38874196848E+02 -0.40303857953E+02 -0.26740050013E+02  0.62053480331E+02  0.00000000000E+00 0. -1.
         -5    1    3    3    0  503 -0.99288520136E+02  0.22121798379E+02 -0.17258470834E+03  0.20038751395E+03  0.47000000000E+01 0.  1.
         11    1    4    4    0    0 -0.28790648518E+02  0.29602422764E+02 -0.35227316318E+02  0.54278620934E+02  0.00000000000E+00 0. -1.
        -12    1    4    4    0    0  0.73314695575E+01  0.11193677784E+03 -0.24829232283E+03  0.27245673098E+03  0.00000000000E+00 0.  1.
<mgrwt>
<rscale>  2 0.26616330E+03</rscale>
<asrwt>0</asrwt>
<pdfrwt beam="1">  1       21 0.38540958E-01 0.26680460E+03</pdfrwt>
<pdfrwt beam="2">  1       21 0.88366741E-01 0.26680460E+03</pdfrwt>
<totfact> 0.67801201E+03</totfact>
</mgrwt>
</event>
<event>
12    1  0.1026879E-001  0.2582311E+03  0.7546771E-02  0.1108239E+00
         21   -1    0    0  501  502  0.00000000000E+00  0.00000000000E+00  0.26256970819E+03  0.26256970819E+03  0.00000000000E+00 0.  1.
         21   -1    0    0  502  503 -0.00000000000E+00 -0.00000000000E+00 -0.41819617622E+03  0.41819617622E+03  0.00000000000E+00 0. -1.
         -6    2    1    2    0  503  0.13248357837E+03  0.14190879234E+03 -0.29125516169E+03  0.38924657169E+03  0.17027425078E+03 0.  0.
        -24    2    3    3    0    0  0.39164542733E+02  0.13228725777E+03 -0.21515401941E+03  0.26835616597E+03  0.81792418781E+02 0.  0.
          6    2    1    2  501    0 -0.13248357837E+03 -0.14190879234E+03  0.13562869366E+03  0.29151931271E+03  0.16999518598E+03 0.  0.
         24    2    5    5    0    0 -0.92878807719E+02 -0.13460859103E+03  0.16194635342E+03  0.24318154267E+03  0.78515575573E+02 0.  0.
          5    1    5    5  501    0 -0.39604770647E+02 -0.73002013182E+01 -0.26317659759E+02  0.48337770040E+02  0.47000000000E+01 0. -1.
        -13    1    6    6    0    0 -0.76747928375E+02 -0.55281876302E+02  0.11747499611E+03  0.15082010830E+03  0.00000000000E+00 0.  1.
         14    1    6    6    0    0 -0.16130879344E+02 -0.79326714723E+02  0.44471357310E+02  0.92361434366E+02  0.00000000000E+00 0. -1.
         -5    1    3    3    0  503  0.93319035632E+02  0.96215345760E+01 -0.76101142280E+02  0.12089040572E+03  0.47000000000E+01 0.  1.
         13    1    4    4    0    0  0.29273984658E+02  0.70439520189E+02 -0.48681279028E+02  0.90490657584E+02  0.00000000000E+00 0. -1.
        -14    1    4    4    0    0  0.98905580755E+01  0.61847737578E+02 -0.16647274038E+03  0.17786550839E+03  0.00000000000E+00 0.  1.
<mgrwt>
<rscale>  2 0.25818515E+03</rscale>
<asrwt>0</asrwt>
<pdfrwt beam="1">  1       21 0.40395340E-01 0.25823115E+03</pdfrwt>
<pdfrwt beam="2">  1       21 0.64337872E-01 0.25823115E+03</pdfrwt>
<totfact> 0.12662833E+04</totfact>
</mgrwt>
</event>
<event>
12    1  0.1026879E-001  0.1962172E+03  0.7546771E-02  0.1154341E+00
         21   -1    0    0  501  502  0.00000000000E+00  0.00000000000E+00  0.40854715761E+02  0.40854715761E+02  0.00000000000E+00 0.  1.
         21   -1    0    0  502  503 -0.00000000000E+00 -0.00000000000E+00 -0.92903003094E+03  0.92903003094E+03  0.00000000000E+00 0.  1.
         -6    2    1    2    0  503  0.55226449940E+02 -0.57589330548E+02 -0.50133630162E+03  0.53612719147E+03  0.17241747692E+03 0.  0.
        -24    2    3    3    0    0 -0.13334048827E+02 -0.64980327916E+02 -0.18684370549E+03  0.21412897431E+03  0.80872785809E+02 0.  0.
          6    2    1    2  501    0 -0.55226449940E+02  0.57589330548E+02 -0.38683901356E+03  0.43375755523E+03  0.17926154786E+03 0.  0.
         24    2    5    5    0    0 -0.10277241626E+03  0.21861019308E+02 -0.30587177987E+03  0.33318462613E+03  0.80089797465E+02 0.  0.
          5    1    5    5  501    0  0.47545966317E+02  0.35728311240E+02 -0.80967233689E+02  0.10057292910E+03  0.47000000000E+01 0. -1.
        -11    1    6    6    0    0 -0.10624687608E+03  0.12336551399E+01 -0.21356104815E+03  0.23853352357E+03  0.00000000000E+00 0.  1.
         12    1    6    6    0    0  0.34744598250E+01  0.20627364168E+02 -0.92310731721E+02  0.94651102552E+02  0.00000000000E+00 0. -1.
         -5    1    3    3    0  503  0.68560498766E+02  0.73909973681E+01 -0.31449259613E+03  0.32199821716E+03  0.47000000000E+01 0.  1.
         11    1    4    4    0    0 -0.22762138934E+02 -0.36612152694E+02 -0.17771949093E+03  0.18287367812E+03  0.00000000000E+00 0. -1.
        -12    1    4    4    0    0  0.94280901074E+01 -0.28368175222E+02 -0.91242145592E+01  0.31255296188E+02  0.00000000000E+00 0.  1.
<mgrwt>
<rscale>  2 0.19464024E+03</rscale>
<asrwt>0</asrwt>
<pdfrwt beam="1">  1       21 0.62853410E-02 0.19621721E+03</pdfrwt>
<pdfrwt beam="2">  1       21 0.14292770E+00 0.19621721E+03</pdfrwt>
<totfact> 0.61635756E+04</totfact>
</mgrwt>
</event>
<event>
10    1  0.1026879E-001  0.1753843E+03  0.7546771E-02  0.1172436E+00
         21   -1    0    0  501  502  0.00000000000E+00  0.00000000000E+00  0.10360996534E+04  0.10360996534E+04  0.00000000000E+00 0. -1.
         21   -1    0    0  502  503 -0.00000000000E+00 -0.00000000000E+00 -0.36052859954E+02  0.36052859954E+02  0.00000000000E+00 0. -1.
         -6    2    1    2    0  503 -0.26424064201E+02  0.74112052139E+01  0.27330046820E+03  0.32454307792E+03  0.17286383769E+03 0.  0.
          6    2    1    2  501    0  0.26424064201E+02 -0.74112052139E+01  0.72674632524E+03  0.74760943542E+03  0.17322381347E+03 0.  0.
          5    1    4    4  501    0  0.37996985080E+02 -0.75089869700E+01  0.69879488192E+03  0.69988322794E+03  0.47000000000E+01 0. -1.
        -13    1    4    4    0    0 -0.16712182782E+02 -0.34510222378E+01  0.34615335728E+02  0.38593109170E+02  0.00000000000E+00 0.  1.
         14    1    4    4    0    0  0.51392619035E+01  0.35488039939E+01 -0.66638924078E+01  0.91330983090E+01  0.00000000000E+00 0. -1.
         -5    1    3    3    0  503  0.32640957420E+02  0.18123995249E+02 -0.34080109986E+01  0.37783803991E+02  0.47000000000E+01 0.  1.
         11    1    3    3    0    0 -0.28287572319E+02 -0.25016695945E+02  0.10157139593E+03  0.10836406367E+03  0.00000000000E+00 0. -1.
        -12    1    3    3    0    0 -0.30777449302E+02  0.14303905910E+02  0.17513708326E+03  0.17839521026E+03  0.00000000000E+00 0.  1.
<mgrwt>
<rscale>  2 0.17529533E+03</rscale>
<asrwt>0</asrwt>
<pdfrwt beam="1">  1       21 0.15939992E+00 0.17538428E+03</pdfrwt>
<pdfrwt beam="2">  1       21 0.55465946E-02 0.17538428E+03</pdfrwt>
<totfact> 0.57897076E+04</totfact>
</mgrwt>
</event>
<event>
12    1  0.1026879E-001  0.2128926E+03  0.7546771E-02  0.1139517E+00
         21   -1    0    0  501  502  0.00000000000E+00  0.00000000000E+00  0.15527876213E+04  0.15527876213E+04  0.00000000000E+00 0.  1.
         21   -1    0    0  502  503 -0.00000000000E+00 -0.00000000000E+00 -0.50719738615E+02  0.50719738615E+02  0.00000000000E+00 0. -1.
         -6    2    1    2    0  503 -0.34925789734E+02 -0.11913104228E+03  0.12741474947E+04  0.12916244200E+04  0.17155112329E+03 0.  0.
        -24    2    3    3    0    0  0.16866278501E+02 -0.12480555778E+03  0.10897645950E+04  0.10999638811E+04  0.80453517830E+02 0.  0.
          6    2    1    2  501    0  0.34925789734E+02  0.11913104228E+03  0.22792038798E+03  0.31188293998E+03  0.17294868883E+03 0.  0.
         24    2    5    5    0    0  0.52619390204E+02  0.32220725305E+01  0.86925256180E+02  0.12844447629E+03  0.78503511715E+02 0.  0.
          5    1    5    5  501    0 -0.17693600471E+02  0.11590896975E+03  0.14099513180E+03  0.18343846368E+03  0.47000000000E+01 0. -1.
        -11    1    6    6    0    0  0.59483059177E+02  0.81454528214E+01  0.23522792724E+02  0.64481815331E+02  0.00000000000E+00 0.  1.
         12    1    6    6    0    0 -0.68636689731E+01 -0.49233802909E+01  0.63402463456E+02  0.63962660964E+02  0.00000000000E+00 0. -1.
         -5    1    3    3    0  503 -0.51792068235E+02  0.56745155034E+01  0.18438289972E+03  0.19166053889E+03  0.47000000000E+01 0.  1.
         13    1    4    4    0    0 -0.16980496769E+02  0.28820087293E+01  0.14070959043E+03  0.14175976892E+03  0.00000000000E+00 0. -1.
        -14    1    4    4    0    0  0.33846775270E+02 -0.12768756651E+03  0.94905500458E+03  0.95820411216E+03  0.00000000000E+00 0.  1.
<mgrwt>
<rscale>  2 0.21260860E+03</rscale>
<asrwt>0</asrwt>
<pdfrwt beam="1">  1       21 0.23889037E+00 0.21289261E+03</pdfrwt>
<pdfrwt beam="2">  1       21 0.78030379E-02 0.21289261E+03</pdfrwt>
<totfact> 0.95182276E+03</totfact>
</mgrwt>
</event>
<event>
12    1  0.1026879E-001  0.2082155E+03  0.7546771E-02  0.1143321E+00
         21   -1    0    0  501  502  0.00000000000E+00  0.00000000000E+00  0.46821789995E+03  0.46821789995E+03  0.00000000000E+00 0. -1.
         21   -1    0    0  502  503 -0.00000000000E+00 -0.00000000000E+00 -0.95588010241E+02  0.95588010241E+02  0.00000000000E+00 0.  1.
         -6    2    1    2    0  503 -0.97115062522E+02 -0.61079665289E+02  0.13132988124E+03  0.24617316916E+03  0.17375739014E+03 0.  0.
        -24    2    3    3    0    0  0.12549155330E+02 -0.15029438880E+02  0.83817299585E+02  0.11800765335E+03  0.80728564994E+02 0.  0.
          6    2    1    2  501    0  0.97115062522E+02  0.61079665289E+02  0.24130000847E+03  0.31763274103E+03  0.17176380063E+03 0.  0.
         24    2    5    5    0    0  0.40060173173E+02  0.10046657743E+03  0.13704268752E+03  0.19234001092E+03  0.80719458269E+02 0.  0.
          5    1    5    5  501    0  0.57054889349E+02 -0.39386912140E+02  0.10425732095E+03  0.12529273011E+03  0.47000000000E+01 0. -1.
        -13    1    6    6    0    0  0.19153751668E+02  0.32014909128E+02 -0.47657152549E+00  0.37310155854E+02  0.00000000000E+00 0.  1.
         14    1    6    6    0    0  0.20906421505E+02  0.68451668301E+02  0.13751925905E+03  0.15502985507E+03  0.00000000000E+00 0. -1.
         -5    1    3    3    0  503 -0.10966421785E+03 -0.46050226409E+02  0.47512581655E+02  0.12816551582E+03  0.47000000000E+01 0.  1.
         11    1    4    4    0    0  0.14685722828E+02 -0.45840986816E+02  0.67984443922E+02  0.83300367002E+02  0.00000000000E+00 0. -1.
        -12    1    4    4    0    0 -0.21365674979E+01  0.30811547937E+02  0.15832855663E+02  0.34707286344E+02  0.00000000000E+00 0.  1.
<mgrwt>
<rscale>  2 0.20779906E+03</rscale>
<asrwt>0</asrwt>
<pdfrwt beam="1">  1       21 0.72033522E-01 0.20821549E+03</pdfrwt>
<pdfrwt beam="2">  1       21 0.14705848E-01 0.20821549E+03</pdfrwt>
<totfact> 0.70234653E+04</totfact>
</mgrwt>
</event>
<event>
12    1  0.1026879E-001  0.2678180E+03  0.7546771E-02  0.1102599E+00
         21   -1    0    0  503  502  0.00000000000E+00  0.00000000000E+00  0.68500406125E+03  0.68500406125E+03  0.00000000000E+00 0. -1.
         21   -1    0    0  501  503 -0.00000000000E+00 -0.00000000000E+00 -0.11622967828E+03  0.11622967828E+03  0.00000000000E+00 0. -1.
          6    2    1    2  501    0 -0.19767299809E+03 -0.48539604900E+02  0.15752883866E+03  0.31071177027E+03  0.17405677741E+03 0.  0.
         24    2    3    3    0    0 -0.28394654207E+02  0.16262924379E+02  0.50963379881E+02  0.10039578773E+03  0.80070650109E+02 0.  0.
         -6    2    1    2    0  502  0.19767299809E+03  0.48539604900E+02  0.41124554431E+03  0.49052196925E+03  0.17337300017E+03 0.  0.
        -24    2    5    5    0    0  0.81270175665E+02 -0.35645396199E+02  0.22797484082E+03  0.25761217505E+03  0.80722171450E+02 0.  0.
          5    1    3    3  501    0 -0.16927834388E+03 -0.64802529279E+02  0.10656545878E+03  0.21031598254E+03  0.47000000000E+01 0. -1.
        -13    1    4    4    0    0  0.12221005332E+01  0.90728613104E+01  0.65845815750E+02  0.66479183162E+02  0.00000000000E+00 0.  1.
         14    1    4    4    0    0 -0.29616754740E+02  0.71900630687E+01 -0.14882435869E+02  0.33916604572E+02  0.00000000000E+00 0. -1.
         -5    1    5    5    0  502  0.11640282242E+03  0.84185001099E+02  0.18327070349E+03  0.23290979421E+03  0.47000000000E+01 0.  1.
         13    1    6    6    0    0  0.11361391508E+02  0.21048183149E+02  0.20677448805E+02  0.31617465425E+02  0.00000000000E+00 0. -1.
        -14    1    6    6    0    0  0.69908784157E+02 -0.56693579347E+02  0.20729739201E+03  0.22599470962E+03  0.00000000000E+00 0.  1.
<mgrwt>
<rscale>  2 0.26770694E+03</rscale>
<asrwt>0</asrwt>
<pdfrwt beam="1">  1       21 0.10538524E+00 0.26781798E+03</pdfrwt>
<pdfrwt beam="2">  1       21 0.17881489E-01 0.26781798E+03</pdfrwt>
<totfact> 0.19751645E+04</totfact>
</mgrwt>
</event>
<event>
12    1  0.1026879E-001  0.3402600E+03  0.7546771E-02  0.1066757E+00
         21   -1    0    0  503  502  0.00000000000E+00  0.00000000000E+00  0.49304393781E+03  0.49304393781E+03  0.00000000000E+00 0. -1.
         21   -1    0    0  501  503 -0.00000000000E+00 -0.00000000000E+00 -0.41723326789E+03  0.41723326789E+03  0.00000000000E+00 0.  1.
          6    2    1    2  501    0 -0.17423894973E+03  0.23454059611E+03 -0.26340027685E+03  0.43029824298E+03  0.17437995655E+03 0.  0.
         24    2    3    3    0    0 -0.82392870065E+02  0.20861764770E+03 -0.22338814653E+03  0.32670885079E+03  0.80786763776E+02 0.  0.
         -6    2    1    2    0  502  0.17423894973E+03 -0.23454059611E+03  0.33921094677E+03  0.47997896271E+03  0.17305269547E+03 0.  0.
        -24    2    5    5    0    0  0.40455028817E+02 -0.48317867815E+02  0.10910119478E+03  0.15509493726E+03  0.90444143847E+02 0.  0.
          5    1    3    3  501    0 -0.91846079660E+02  0.25922948404E+02 -0.40012130322E+02  0.10358939220E+03  0.47000000000E+01 0. -1.
        -13    1    4    4    0    0 -0.68261037650E+02  0.14944461060E+03 -0.20588394384E+03  0.26340360520E+03  0.00000000000E+00 0.  1.
         14    1    4    4    0    0 -0.14131832415E+02  0.59173037100E+02 -0.17504202684E+02  0.63305245586E+02  0.00000000000E+00 0. -1.
         -5    1    5    5    0  502  0.13378392091E+03 -0.18622272829E+03  0.23010975199E+03  0.32488402544E+03  0.47000000000E+01 0.  1.
         11    1    6    6    0    0  0.34059945021E+02 -0.36509225627E+02  0.12481097512E+03  0.13442761220E+03  0.00000000000E+00 0. -1.
        -12    1    6    6    0    0  0.63950837959E+01 -0.11808642188E+02 -0.15709780341E+02  0.20667325067E+02  0.00000000000E+00 0.  1.
<mgrwt>
<rscale>  2 0.34009031E+03</rscale>
<asrwt>0</asrwt>
<pdfrwt beam="1">  1       21 0.75852913E-01 0.34026001E+03</pdfrwt>
<pdfrwt beam="2">  1       21 0.64189734E-01 0.34026001E+03</pdfrwt>
<totfact> 0.31625950E+03</totfact>
</mgrwt>
</event>
<event>
12    1  0.1026879E-001  0.1951274E+03  0.7546771E-02  0.1154433E+00
         21   -1    0    0  503  502  0.00000000000E+00  0.00000000000E+00  0.11936561089E+03  0.11936561089E+03  0.00000000000E+00 0. -1.
         21   -1    0    0  501  503 -0.00000000000E+00 -0.00000000000E+00 -0.53670160820E+03  0.53670160820E+03  0.00000000000E+00 0. -1.
          6    2    1    2  501    0  0.86924286639E+02  0.11785276737E+02 -0.42017994645E+03  0.46327732900E+03  0.17429851351E+03 0.  0.
         24    2    3    3    0    0  0.11096481664E+03  0.92066184773E+01 -0.20793926534E+03  0.24961218612E+03  0.81667331517E+02 0.  0.
         -6    2    1    2    0  502 -0.86924286639E+02 -0.11785276737E+02  0.28439491376E+01  0.19278989009E+03  0.17165409788E+03 0.  0.
        -24    2    5    5    0    0  0.15454366099E+02 -0.20666130722E+02 -0.11514997514E+02  0.88922053617E+02  0.84312573565E+02 0.  0.
          5    1    3    3  501    0 -0.24040529999E+02  0.25786582599E+01 -0.21224068112E+03  0.21366514288E+03  0.47000000000E+01 0. -1.
        -11    1    4    4    0    0  0.24776874063E+01 -0.23966237270E+02 -0.45409729093E+02  0.51405865036E+02  0.00000000000E+00 0.  1.
         12    1    4    4    0    0  0.10848712923E+03  0.33172855747E+02 -0.16252953624E+03  0.19820632109E+03  0.00000000000E+00 0. -1.
         -5    1    5    5    0  502 -0.10237865274E+03  0.88808539852E+01  0.14358946652E+02  0.10386783647E+03  0.47000000000E+01 0.  1.
         11    1    6    6    0    0  0.61282050279E+01 -0.43180004721E+02  0.20905391281E+02  0.48364274926E+02  0.00000000000E+00 0. -1.
        -12    1    6    6    0    0  0.93261610712E+01  0.22513873999E+02 -0.32420388795E+02  0.40557778691E+02  0.00000000000E+00 0.  1.
<mgrwt>
<rscale>  2 0.19453508E+03</rscale>
<asrwt>0</asrwt>
<pdfrwt beam="1">  1       21 0.18363940E-01 0.19512738E+03</pdfrwt>
<pdfrwt beam="2">  1       21 0.82569478E-01 0.19512738E+03</pdfrwt>
<totfact> 0.34590935E+04</totfact>
</mgrwt>
</event>
<event>
12    1  0.1026879E-001  0.1885983E+03  0.7546771E-02  0.1160277E+00
         21   -1    0    0  501  502  0.00000000000E+00  0.00000000000E+00  0.87241823078E+02  0.87241823078E+02  0.00000000000E+00 0.  1.
         21   -1    0    0  502  503 -0.00000000000E+00 -0.00000000000E+00 -0.43843077559E+03  0.43843077559E+03  0.00000000000E+00 0.  1.
         -6    2    1    2    0  503 -0.67754916866E+02 -0.13841724471E+02 -0.25177204343E+03  0.31457665527E+03  0.17546221272E+03 0.  0.
        -24    2    3    3    0    0 -0.48640157297E+01 -0.40452856038E+02 -0.54596043471E+02  0.10585702819E+03  0.81024010289E+02 0.  0.
          6    2    1    2  501    0  0.67754916866E+02  0.13841724471E+02 -0.99416909087E+02  0.21109594341E+03  0.17290301737E+03 0.  0.
         24    2    5    5    0    0  0.51704809881E+02  0.18216906073E+02  0.12524888464E+02  0.97827217858E+02  0.80050288514E+02 0.  0.
          5    1    5    5  501    0  0.16050106985E+02 -0.43751816023E+01 -0.11194179755E+03  0.11326872555E+03  0.47000000000E+01 0. -1.
        -13    1    6    6    0    0 -0.18947495636E+02 -0.36205458511E+01  0.14044701073E+02  0.23861466245E+02  0.00000000000E+00 0.  1.
         14    1    6    6    0    0  0.70652305517E+02  0.21837451924E+02 -0.15198126090E+01  0.73965751613E+02  0.00000000000E+00 0. -1.
         -5    1    3    3    0  503 -0.62890901136E+02  0.26611131567E+02 -0.19717599996E+03  0.20871962708E+03  0.47000000000E+01 0.  1.
         13    1    4    4    0    0  0.21262529332E+02 -0.48156627726E+02 -0.58091489869E+02  0.78395007129E+02  0.00000000000E+00 0. -1.
        -14    1    4    4    0    0 -0.26126545062E+02  0.77037716877E+01  0.34954463983E+01  0.27462021058E+02  0.00000000000E+00 0.  1.
<mgrwt>
<rscale>  2 0.18800080E+03</rscale>
<asrwt>0</asrwt>
<pdfrwt beam="1">  1       21 0.13421819E-01 0.18859828E+03</pdfrwt>
<pdfrwt beam="2">  1       21 0.67450889E-01 0.18859828E+03</pdfrwt>
<totfact> 0.96622098E+04</totfact>
</mgrwt>
</event>
<event>
12    1  0.1026879E-001  0.2146488E+03  0.7546771E-02  0.1138402E+00
         21   -1    0    0  503  502  0.00000000000E+00  0.00000000000E+00  0.48025774747E+03  0.48025774747E+03  0.00000000000E+00 0. -1.
         21   -1    0    0  501  503 -0.00000000000E+00 -0.00000000000E+00 -0.10352377485E+03  0.10352377485E+03  0.00000000000E+00 0. -1.
          6    2    1    2  501    0  0.56335660505E+02  0.11161571519E+03  0.10298276295E+03  0.23591109920E+03  0.17151333109E+03 0.  0.
         24    2    3    3    0    0  0.32831141366E+02  0.81972129844E+02 -0.63581721058E+01  0.12011500837E+03  0.81178044870E+02 0.  0.
         -6    2    1    2    0  502 -0.56335660505E+02 -0.11161571519E+03  0.27375120967E+03  0.34787042312E+03  0.17447731073E+03 0.  0.
        -24    2    5    5    0    0 -0.89744996092E+02 -0.12899894154E+03  0.21959382903E+03  0.28173819087E+03  0.80374543276E+02 0.  0.
          5    1    3    3  501    0  0.23504519138E+02  0.29643585342E+02  0.10934093506E+03  0.11579609083E+03  0.47000000000E+01 0. -1.
        -13    1    4    4    0    0  0.17220345622E+02  0.96592224499E+02 -0.12393999545E+01  0.98123056665E+02  0.00000000000E+00 0.  1.
         14    1    4    4    0    0  0.15610795744E+02 -0.14620094656E+02 -0.51187721513E+01  0.21991951706E+02  0.00000000000E+00 0. -1.
         -5    1    5    5    0  502  0.33409335588E+02  0.17383226358E+02  0.54157380644E+02  0.66132232242E+02  0.47000000000E+01 0.  1.
         13    1    6    6    0    0 -0.92523480528E+02 -0.11840757911E+03  0.15374370632E+03  0.21498389817E+03  0.00000000000E+00 0. -1.
        -14    1    6    6    0    0  0.27784844360E+01 -0.10591362438E+02  0.65850122706E+02  0.66754292705E+02  0.00000000000E+00 0.  1.
<mgrwt>
<rscale>  2 0.21404570E+03</rscale>
<asrwt>0</asrwt>
<pdfrwt beam="1">  1       21 0.73885806E-01 0.21464880E+03</pdfrwt>
<pdfrwt beam="2">  1       21 0.15926735E-01 0.21464880E+03</pdfrwt>
<totfact> 0.57205375E+04</totfact>
</mgrwt>
</event>
<event>
12    1  0.1026879E-001  0.2337697E+03  0.7546771E-02  0.1124126E+00
         21   -1    0    0  503  502  0.00000000000E+00  0.00000000000E+00  0.39002707222E+03  0.39002707222E+03  0.00000000000E+00 0.  1.
         21   -1    0    0  501  503 -0.00000000000E+00 -0.00000000000E+00 -0.13995847720E+03  0.13995847720E+03  0.00000000000E+00 0. -1.
          6    2    1    2  501    0 -0.12225569273E+03 -0.96677894103E+02  0.13598670599E+03  0.27044527046E+03  0.17422741029E+03 0.  0.
         24    2    3    3    0    0 -0.40318237603E+01 -0.56781390503E+00  0.60111454977E+02  0.10017144856E+03  0.80027208318E+02 0.  0.
         -6    2    1    2    0  502  0.12225569273E+03  0.96677894103E+02  0.11408188903E+03  0.25954027896E+03  0.17335919182E+03 0.  0.
        -24    2    5    5    0    0  0.73900079360E+02  0.57076776188E+02  0.14476773944E+03  0.18975327946E+03  0.79558962886E+02 0.  0.
          5    1    3    3  501    0 -0.11822386897E+03 -0.96110080198E+02  0.75875251012E+02  0.17027382190E+03  0.47000000000E+01 0. -1.
        -11    1    4    4    0    0 -0.40156003115E+02 -0.50459506610E+01  0.45639490029E+02  0.60999420115E+02  0.00000000000E+00 0.  1.
         12    1    4    4    0    0  0.36124179355E+02  0.44781367560E+01  0.14471964948E+02  0.39172028443E+02  0.00000000000E+00 0. -1.
         -5    1    5    5    0  502  0.48355613367E+02  0.39601117915E+02 -0.30685850407E+02  0.69786999502E+02  0.47000000000E+01 0.  1.
         13    1    6    6    0    0 -0.13345152098E+02  0.17410904389E+02  0.51700454273E+02  0.56161994695E+02  0.00000000000E+00 0. -1.
        -14    1    6    6    0    0  0.87245231458E+02  0.39665871799E+02  0.93067285163E+02  0.13359128477E+03  0.00000000000E+00 0.  1.
<mgrwt>
<rscale>  2 0.23360792E+03</rscale>
<asrwt>0</asrwt>
<pdfrwt beam="1">  1       21 0.60004165E-01 0.23376967E+03</pdfrwt>
<pdfrwt beam="2">  1       21 0.21532074E-01 0.23376967E+03</pdfrwt>
<totfact> 0.51098947E+04</totfact>
</mgrwt>
</event>
<event>
12    1  0.1026879E-001  0.2641550E+03  0.7546771E-02  0.1104916E+00
         21   -1    0    0  501  502  0.00000000000E+00  0.00000000000E+00  0.21513838642E+03  0.21513838642E+03  0.00000000000E+00 0.  1.
         21   -1    0    0  502  503 -0.00000000000E+00 -0.00000000000E+00 -0.33589529628E+03  0.33589529628E+03  0.00000000000E+00 0. -1.
         -6    2    1    2    0  503 -0.16254766777E+03  0.11742657744E+03 -0.11595386234E+03  0.28848427704E+03  0.17195096546E+03 0.  0.
        -24    2    3    3    0    0 -0.98940318545E+02  0.14634204153E+03 -0.80795023002E+02  0.21012463869E+03  0.80120835550E+02 0.  0.
          6    2    1    2  501    0  0.16254766777E+03 -0.11742657744E+03 -0.48030475193E+01  0.26254940566E+03  0.16940594960E+03 0.  0.
         24    2    5    5    0    0  0.76294612139E+02 -0.19410012669E+02  0.44831870105E+02  0.12279050031E+03  0.82885426686E+02 0.  0.
          5    1    5    5  501    0  0.86253055633E+02 -0.98016564772E+02 -0.49634917624E+02  0.13975890534E+03  0.47000000000E+01 0. -1.
        -11    1    6    6    0    0  0.82335120770E+02 -0.25852513987E+02  0.60091901015E+02  0.10515921814E+03  0.00000000000E+00 0.  1.
         12    1    6    6    0    0 -0.60405086310E+01  0.64425013185E+01 -0.15260030911E+02  0.17631282176E+02  0.00000000000E+00 0. -1.
         -5    1    3    3    0  503 -0.63607349228E+02 -0.28915464089E+02 -0.35158839333E+02  0.78359638351E+02  0.47000000000E+01 0.  1.
         11    1    4    4    0    0 -0.21718713049E+02 -0.65240056343E+01 -0.82796673530E+01  0.24141624583E+02  0.00000000000E+00 0. -1.
        -12    1    4    4    0    0 -0.77221605495E+02  0.15286604716E+03 -0.72515355649E+02  0.18598301411E+03  0.00000000000E+00 0.  1.
<mgrwt>
<rscale>  2 0.26374167E+03</rscale>
<asrwt>0</asrwt>
<pdfrwt beam="1">  1       21 0.33098213E-01 0.26415503E+03</pdfrwt>
<pdfrwt beam="2">  1       21 0.51676200E-01 0.26415503E+03</pdfrwt>
<totfact> 0.30192902E+04</totfact>
</mgrwt>
</event>
<event>
12    1  0.1026879E-001  0.2165874E+03  0.7546771E-02  0.1136641E+00
         21   -1    0    0  501  502  0.00000000000E+00  0.00000000000E+00  0.11015591375E+04  0.11015591375E+04  0.00000000000E+00 0.  1.
         21   -1    0    0  502  503 -0.00000000000E+00 -0.00000000000E+00 -0.44297025590E+02  0.44297025590E+02  0.00000000000E+00 0.  1.
         -6    2    1    2    0  503  0.13031627492E+03 -0.11927003670E+02  0.64860138992E+03  0.68380836527E+03  0.17258485588E+03 0.  0.
        -24    2    3    3    0    0  0.66425194809E+02 -0.61734607984E+02  0.49925487475E+03  0.51383972358E+03  0.80946669084E+02 0.  0.
          6    2    1    2  501    0 -0.13031627492E+03  0.11927003670E+02  0.40866072195E+03  0.46204779778E+03  0.17134759073E+03 0.  0.
         24    2    5    5    0    0 -0.13929161998E+03 -0.16460521120E+02  0.24547753601E+03  0.29610428163E+03  0.88008072109E+02 0.  0.
          5    1    5    5  501    0  0.89753450674E+01  0.28387524790E+02  0.16318318593E+03  0.16594351616E+03  0.47000000000E+01 0. -1.
        -13    1    6    6    0    0 -0.77407870094E+02  0.26694723343E+02  0.17341007304E+03  0.19176975788E+03  0.00000000000E+00 0.  1.
         14    1    6    6    0    0 -0.61883749889E+02 -0.43155244463E+02  0.72067462974E+02  0.10433452374E+03  0.00000000000E+00 0. -1.
         -5    1    3    3    0  503  0.63891080106E+02  0.49807604314E+02  0.14934651517E+03  0.16996864169E+03  0.47000000000E+01 0.  1.
         13    1    4    4    0    0  0.70046536611E+02 -0.63216790611E+02  0.29873750959E+03  0.31328418336E+03  0.00000000000E+00 0. -1.
        -14    1    4    4    0    0 -0.36213418023E+01  0.14821826271E+01  0.20051736516E+03  0.20055554022E+03  0.00000000000E+00 0.  1.
<mgrwt>
<rscale>  2 0.21634086E+03</rscale>
<asrwt>0</asrwt>
<pdfrwt beam="1">  1       21 0.16947062E+00 0.21658744E+03</pdfrwt>
<pdfrwt beam="2">  1       21 0.68149279E-02 0.21658744E+03</pdfrwt>
<totfact> 0.33587055E+04</totfact>
</mgrwt>
</event>
<event>
12    1  0.1026879E-001  0.2133294E+03  0.7546771E-02  0.1139928E+00
         21   -1    0    0  503  502  0.00000000000E+00  0.00000000000E+00  0.14907063686E+03  0.14907063686E+03  0.00000000000E+00 0.  1.
         21   -1    0    0  501  503 -0.00000000000E+00 -0.00000000000E+00 -0.29888498823E+03  0.29888498823E+03  0.00000000000E+00 0. -1.
          6    2    1    2  501    0 -0.35488092444E+02  0.11986264670E+03 -0.63714389526E+02  0.21790641417E+03  0.16672499251E+03 0.  0.
         24    2    3    3    0    0 -0.14179467330E+02  0.20693320311E+02  0.15840128724E+02  0.88911746943E+02  0.83815978592E+02 0.  0.
         -6    2    1    2    0  502  0.35488092444E+02 -0.11986264670E+03 -0.86099961850E+02  0.23004921092E+03  0.17286693505E+03 0.  0.
        -24    2    5    5    0    0  0.30186714748E+02 -0.11283760484E+03 -0.12578335505E+03  0.18913078579E+03  0.79406793875E+02 0.  0.
          5    1    3    3  501    0 -0.21308625115E+02  0.99169326386E+02 -0.79554518250E+02  0.12899466723E+03  0.47000000000E+01 0. -1.
        -11    1    4    4    0    0 -0.44882760874E+02  0.25428388116E+02 -0.44963389569E+01  0.51781098964E+02  0.00000000000E+00 0.  1.
         12    1    4    4    0    0  0.30703293545E+02 -0.47350678057E+01  0.20336467681E+02  0.37130647979E+02  0.00000000000E+00 0. -1.
         -5    1    5    5    0  502  0.53013776962E+01 -0.70250418586E+01  0.39683393203E+02  0.40918425125E+02  0.47000000000E+01 0.  1.
         13    1    6    6    0    0  0.55992244891E+02 -0.66545203949E+02 -0.65580088852E+02  0.10892265013E+03  0.00000000000E+00 0. -1.
        -14    1    6    6    0    0 -0.25805530142E+02 -0.46292400889E+02 -0.60203266202E+02  0.80208135668E+02  0.00000000000E+00 0.  1.
<mgrwt>
<rscale>  2 0.21208203E+03</rscale>
<asrwt>0</asrwt>
<pdfrwt beam="1">  1       21 0.22933944E-01 0.21332941E+03</pdfrwt>
<pdfrwt beam="2">  1       21 0.45982305E-01 0.21332941E+03</pdfrwt>
<totfact> 0.80182332E+04</totfact>
</mgrwt>
</event>
<event>
12    1  0.1026879E-001  0.2086765E+03  0.7546771E-02  0.1142884E+00
         21   -1    0    0  501  502  0.00000000000E+00  0.00000000000E+00  0.88754301191E+03  0.88754301191E+03  0.00000000000E+00 0. -1.
         21   -1    0    0  502  503 -0.00000000000E+00 -0.00000000000E+00 -0.51327217812E+02  0.51327217812E+02  0.00000000000E+00 0. -1.
         -6    2    1    2    0  503  0.38638696186E+02 -0.10912931722E+03  0.31423223265E+03  0.37721053605E+03  0.17361951431E+03 0.  0.
        -24    2    3    3    0    0 -0.40197035249E+02 -0.38713034177E+02  0.19636188685E+03  0.21881535340E+03  0.78788753113E+02 0.  0.
          6    2    1    2  501    0 -0.38638696186E+02  0.10912931722E+03  0.52198356144E+03  0.56165969367E+03  0.17202504573E+03 0.  0.
         24    2    5    5    0    0  0.37335947150E+02  0.81235505903E+02  0.23703022096E+03  0.26539847887E+03  0.79119192184E+02 0.  0.
          5    1    5    5  501    0 -0.75974643336E+02  0.27893811312E+02  0.28495334048E+03  0.29626121480E+03  0.47000000000E+01 0. -1.
        -13    1    6    6    0    0 -0.29688166754E+01  0.12357073656E+02  0.13627851765E+03  0.13686981228E+03  0.00000000000E+00 0.  1.
         14    1    6    6    0    0  0.40304763825E+02  0.68878432247E+02  0.10075170331E+03  0.12852866659E+03  0.00000000000E+00 0. -1.
         -5    1    3    3    0  503  0.78835731435E+02 -0.70416283038E+02  0.11787034580E+03  0.15839518265E+03  0.47000000000E+01 0.  1.
         13    1    4    4    0    0  0.17491250126E+02 -0.28585378650E+02  0.10565102096E+03  0.11083864820E+03  0.00000000000E+00 0. -1.
        -14    1    4    4    0    0 -0.57688285375E+02 -0.10127655527E+02  0.90710865885E+02  0.10797670520E+03  0.00000000000E+00 0.  1.
<mgrwt>
<rscale>  2 0.20834456E+03</rscale>
<asrwt>0</asrwt>
<pdfrwt beam="1">  1       21 0.13654507E+00 0.20867653E+03</pdfrwt>
<pdfrwt beam="2">  1       21 0.78964957E-02 0.20867653E+03</pdfrwt>
<totfact> 0.46429577E+04</totfact>
</mgrwt>
</event>
<event>
12    1  0.1026879E-001  0.3220619E+03  0.7546771E-02  0.1075002E+00
         21   -1    0    0  503  502  0.00000000000E+00  0.00000000000E+00  0.48400839070E+03  0.48400839070E+03  0.00000000000E+00 0. -1.
         21   -1    0    0  501  503 -0.00000000000E+00 -0.00000000000E+00 -0.21379776944E+03  0.21379776944E+03  0.00000000000E+00 0.  1.
          6    2    1    2  501    0 -0.23608497672E+03  0.13341845037E+03  0.10929636392E+03  0.34010232818E+03  0.17374492608E+03 0.  0.
         24    2    3    3    0    0 -0.88305191024E+02  0.22344349598E+02  0.94777356949E+02  0.15460512474E+03  0.81381327619E+02 0.  0.
         -6    2    1    2    0  502  0.23608497672E+03 -0.13341845037E+03  0.16091425735E+03  0.35770383196E+03  0.16888467677E+03 0.  0.
        -24    2    5    5    0    0  0.21379878497E+03 -0.15208761304E+03  0.10357246942E+03  0.29324157462E+03  0.80142386873E+02 0.  0.
          5    1    3    3  501    0 -0.14777978570E+03  0.11107410077E+03  0.14519006967E+02  0.18549720345E+03  0.47000000000E+01 0. -1.
        -11    1    4    4    0    0 -0.47039024782E+02  0.34857978622E+02  0.98671684452E+01  0.59372632914E+02  0.00000000000E+00 0.  1.
         12    1    4    4    0    0 -0.41266166241E+02 -0.12513629023E+02  0.84910188503E+02  0.95232491825E+02  0.00000000000E+00 0. -1.
         -5    1    5    5    0  502  0.22286191757E+02  0.18669162670E+02  0.57341787929E+02  0.64462257334E+02  0.47000000000E+01 0.  1.
         11    1    6    6    0    0  0.96855159354E+02 -0.10613452043E+03  0.27301629732E+02  0.14625606759E+03  0.00000000000E+00 0. -1.
        -12    1    6    6    0    0  0.11694362561E+03 -0.45953092606E+02  0.76270839690E+02  0.14698550703E+03  0.00000000000E+00 0.  1.
<mgrwt>
<rscale>  2 0.32141103E+03</rscale>
<asrwt>0</asrwt>
<pdfrwt beam="1">  1       21 0.74462829E-01 0.32206195E+03</pdfrwt>
<pdfrwt beam="2">  1       21 0.32891964E-01 0.32206195E+03</pdfrwt>
<totfact> 0.13449275E+04</totfact>
</mgrwt>
</event>
<event>
12    1  0.1026879E-001  0.2925978E+03  0.7546771E-02  0.1089698E+00
         21   -1    0    0  503  502  0.00000000000E+00  0.00000000000E+00  0.11912794818E+03  0.11912794818E+03  0.00000000000E+00 0.  1.
         21   -1    0    0  501  503 -0.00000000000E+00 -0.00000000000E+00 -0.70917198471E+03  0.70917198471E+03  0.00000000000E+00 0. -1.
          6    2    1    2  501    0  0.21353808584E+03  0.84522524000E+02 -0.26282650473E+03  0.38934117354E+03  0.17252885745E+03 0.  0.
         24    2    3    3    0    0  0.16666673197E+03 -0.28406987153E+01 -0.19650750785E+03  0.26996967006E+03  0.80514303028E+02 0.  0.
         -6    2    1    2    0  502 -0.21353808584E+03 -0.84522524000E+02 -0.32721753179E+03  0.43895875934E+03  0.18130335938E+03 0.  0.
        -24    2    5    5    0    0 -0.80794834092E+02 -0.93110469846E+02 -0.23094647171E+03  0.27468846163E+03  0.83187218673E+02 0.  0.
          5    1    3    3  501    0  0.46871353870E+02  0.87363222715E+02 -0.66318996880E+02  0.11937150348E+03  0.47000000000E+01 0. -1.
        -11    1    4    4    0    0  0.11724581891E+03  0.24340613480E+02 -0.16924673783E+03  0.20732463863E+03  0.00000000000E+00 0.  1.
         12    1    4    4    0    0  0.49420913061E+02 -0.27181312195E+02 -0.27260770027E+02  0.62645031430E+02  0.00000000000E+00 0. -1.
         -5    1    5    5    0  502 -0.13274325175E+03  0.85879458458E+01 -0.96271060088E+02  0.16427029771E+03  0.47000000000E+01 0.  1.
         11    1    6    6    0    0  0.16377549268E+02 -0.24560091033E+02 -0.52935178022E+02  0.60609861110E+02  0.00000000000E+00 0. -1.
        -12    1    6    6    0    0 -0.97172383360E+02 -0.68550378812E+02 -0.17801129368E+03  0.21407860052E+03  0.00000000000E+00 0.  1.
<mgrwt>
<rscale>  2 0.29124993E+03</rscale>
<asrwt>0</asrwt>
<pdfrwt beam="1">  1       21 0.18327377E-01 0.29259781E+03</pdfrwt>
<pdfrwt beam="2">  1       21 0.10910338E+00 0.29259781E+03</pdfrwt>
<totfact> 0.17142197E+04</totfact>
</mgrwt>
</event>
<event>
12    1  0.1026879E-001  0.1916242E+03  0.7546771E-02  0.1157840E+00
         21   -1    0    0  503  502  0.00000000000E+00  0.00000000000E+00  0.69594646762E+02  0.69594646762E+02  0.00000000000E+00 0. -1.
         21   -1    0    0  501  503 -0.00000000000E+00 -0.00000000000E+00 -0.89262732364E+03  0.89262732364E+03  0.00000000000E+00 0. -1.
          6    2    1    2  501    0  0.73386208628E+02  0.13108586768E+02 -0.72574258194E+03  0.75061449274E+03  0.17652889512E+03 0.  0.
         24    2    3    3    0    0 -0.25441635794E+02  0.49939520336E+01 -0.39935735084E+03  0.40946613907E+03  0.86625683203E+02 0.  0.
         -6    2    1    2    0  502 -0.73386208628E+02 -0.13108586768E+02 -0.97290094931E+02  0.21160747765E+03  0.17249635174E+03 0.  0.
        -24    2    5    5    0    0 -0.10774253745E+03  0.18949298916E+02 -0.94517058417E+02  0.16430161019E+03  0.78064168961E+02 0.  0.
          5    1    3    3  501    0  0.98827844422E+02  0.81146347346E+01 -0.32638523110E+03  0.34114835367E+03  0.47000000000E+01 0. -1.
        -13    1    4    4    0    0  0.16495609284E+02  0.17320549342E+02 -0.34387501912E+02  0.41888027441E+02  0.00000000000E+00 0.  1.
         14    1    4    4    0    0 -0.41937245078E+02 -0.12326597309E+02 -0.36496984893E+03  0.36757811163E+03  0.00000000000E+00 0. -1.
         -5    1    5    5    0  502  0.34356328819E+02 -0.32057885684E+02 -0.27730365146E+01  0.47305867458E+02  0.47000000000E+01 0.  1.
         11    1    6    6    0    0 -0.80769770876E+02 -0.52736388050E+01 -0.23041008418E+02  0.84157324236E+02  0.00000000000E+00 0. -1.
        -12    1    6    6    0    0 -0.26972766572E+02  0.24222937721E+02 -0.71476049999E+02  0.80144285959E+02  0.00000000000E+00 0.  1.
<mgrwt>
<rscale>  2 0.19069028E+03</rscale>
<asrwt>0</asrwt>
<pdfrwt beam="1">  1       21 0.10706869E-01 0.19162417E+03</pdfrwt>
<pdfrwt beam="2">  1       21 0.13732727E+00 0.19162417E+03</pdfrwt>
<totfact> 0.27057310E+04</totfact>
</mgrwt>
</event>
<event>
12    1  0.1026879E-001  0.1943511E+03  0.7546771E-02  0.1154622E+00
         21   -1    0    0  503  502  0.00000000000E+00  0.00000000000E+00  0.24221314925E+03  0.24221314925E+03  0.00000000000E+00 0. -1.
         21   -1    0    0  501  503 -0.00000000000E+00 -0.00000000000E+00 -0.23606558438E+03  0.23606558438E+03  0.00000000000E+00 0. -1.
          6    2    1    2  501    0  0.59313194878E+01  0.88523918079E+02 -0.13633166962E+03  0.23729599027E+03  0.17277557186E+03 0.  0.
         24    2    3    3    0    0  0.28316228598E+02 -0.20722893843E+01 -0.25607260483E+02  0.92414170354E+02  0.84134082912E+02 0.  0.
         -6    2    1    2    0  502 -0.59313194878E+01 -0.88523918079E+02  0.14247923450E+03  0.24098274336E+03  0.17291814744E+03 0.  0.
        -24    2    5    5    0    0 -0.10669834900E+02 -0.97969641898E+02  0.17212012558E+03  0.20916533223E+03  0.66429680607E+02 0.  0.
          5    1    3    3  501    0 -0.22384909110E+02  0.90596207463E+02 -0.11072440914E+03  0.14488181992E+03  0.47000000000E+01 0. -1.
        -11    1    4    4    0    0  0.44800293430E+02 -0.30848757481E+02 -0.23288563432E+02  0.59169834513E+02  0.00000000000E+00 0.  1.
         12    1    4    4    0    0 -0.16484064832E+02  0.28776468097E+02 -0.23186970519E+01  0.33244335841E+02  0.00000000000E+00 0. -1.
         -5    1    5    5    0  502  0.47385154123E+01  0.94457238194E+01 -0.29640891087E+02  0.31817411133E+02  0.47000000000E+01 0.  1.
         13    1    6    6    0    0  0.74536577775E+01 -0.49919492122E+02  0.13944173332E+03  0.14829534619E+03  0.00000000000E+00 0. -1.
        -14    1    6    6    0    0 -0.18123492678E+02 -0.48050149776E+02  0.32678392260E+02  0.60869986044E+02  0.00000000000E+00 0.  1.
<mgrwt>
<rscale>  2 0.19431938E+03</rscale>
<asrwt>0</asrwt>
<pdfrwt beam="1">  1       21 0.37263561E-01 0.19435110E+03</pdfrwt>
<pdfrwt beam="2">  1       21 0.36317782E-01 0.19435110E+03</pdfrwt>
<totfact> 0.50743960E+04</totfact>
</mgrwt>
</event>
<event>
12    1  0.1026879E-001  0.1832076E+03  0.7546771E-02  0.1165775E+00
         21   -1    0    0  501  502  0.00000000000E+00  0.00000000000E+00  0.36809689790E+03  0.36809689790E+03  0.00000000000E+00 0. -1.
         21   -1    0    0  502  503 -0.00000000000E+00 -0.00000000000E+00 -0.10225319305E+03  0.10225319305E+03  0.00000000000E+00 0. -1.
         -6    2    1    2    0  503  0.93912616903E+01  0.45378830576E+02  0.46986672357E+02  0.18493213383E+03  0.17275622328E+03 0.  0.
        -24    2    3    3    0    0 -0.55808368257E+02  0.56021782934E+02  0.29579240382E+02  0.11645313801E+03  0.80208402058E+02 0.  0.
          6    2    1    2  501    0 -0.93912616903E+01 -0.45378830576E+02  0.21885703249E+03  0.28541795712E+03  0.17725003672E+03 0.  0.
         24    2    5    5    0    0  0.60588304901E+01  0.38325285470E+02  0.15548761690E+03  0.17919716244E+03  0.80185329597E+02 0.  0.
          5    1    5    5  501    0 -0.15450092180E+02 -0.83704116045E+02  0.63369415586E+02  0.10622079468E+03  0.47000000000E+01 0. -1.
        -11    1    6    6    0    0 -0.19123555050E+01  0.20102846239E+02 -0.21518208035E+01  0.20307926119E+02  0.00000000000E+00 0.  1.
         12    1    6    6    0    0  0.79711859950E+01  0.18222439230E+02  0.15763943770E+03  0.15888923632E+03  0.00000000000E+00 0. -1.
         -5    1    3    3    0  503  0.65199629947E+02 -0.10642952358E+02  0.17407431975E+02  0.68478995817E+02  0.47000000000E+01 0.  1.
         13    1    4    4    0    0 -0.53128247959E+01  0.39001334484E+02 -0.19572371688E+02  0.43959162097E+02  0.00000000000E+00 0. -1.
        -14    1    4    4    0    0 -0.50495543461E+02  0.17020448450E+02  0.49151612070E+02  0.72493975914E+02  0.00000000000E+00 0.  1.
<mgrwt>
<rscale>  2 0.18211175E+03</rscale>
<asrwt>0</asrwt>
<pdfrwt beam="1">  1       21 0.56630291E-01 0.18320756E+03</pdfrwt>
<pdfrwt beam="2">  1       21 0.15731261E-01 0.18320756E+03</pdfrwt>
<totfact> 0.10581634E+05</totfact>
</mgrwt>
</event>
<event>
12    1  0.1026879E-001  0.2209725E+03  0.7546771E-02  0.1134629E+00
         21   -1    0    0  503  502  0.00000000000E+00  0.00000000000E+00  0.55608973194E+03  0.55608973194E+03  0.00000000000E+00 0.  1.
         21   -1    0    0  501  503 -0.00000000000E+00 -0.00000000000E+00 -0.14947291972E+03  0.14947291972E+03  0.00000000000E+00 0.  1.
          6    2    1    2  501    0 -0.77539787416E+02  0.95133201223E+02 -0.30886875778E+02  0.21542152620E+03  0.17432638999E+03 0.  0.
         24    2    3    3    0    0 -0.10911386363E+03  0.70311340792E+02 -0.60447927208E+02  0.16533167886E+03  0.82650421960E+02 0.  0.
         -6    2    1    2    0  502  0.77539787416E+02 -0.95133201223E+02  0.43750368800E+03  0.49014112547E+03  0.18375554755E+03 0.  0.
        -24    2    5    5    0    0  0.80029497115E+01 -0.15035238207E+02  0.69120561921E+02  0.10676236620E+03  0.79564094697E+02 0.  0.
          5    1    3    3  501    0  0.31574076218E+02  0.24821860431E+02  0.29561051430E+02  0.50089847334E+02  0.47000000000E+01 0. -1.
        -13    1    4    4    0    0 -0.99656716196E+02  0.85436659911E+02 -0.65625571128E+02  0.14675694030E+03  0.00000000000E+00 0.  1.
         14    1    4    4    0    0 -0.94571474389E+01 -0.15125319119E+02  0.51776439206E+01  0.18574738564E+02  0.00000000000E+00 0. -1.
         -5    1    5    5    0  502  0.69536837705E+02 -0.80097963015E+02  0.36838312608E+03  0.38337875927E+03  0.47000000000E+01 0.  1.
         11    1    6    6    0    0  0.11448066027E+01 -0.42405515593E+02  0.13710354274E+02  0.44581522509E+02  0.00000000000E+00 0. -1.
        -12    1    6    6    0    0  0.68581431088E+01  0.27370277386E+02  0.55410207647E+02  0.62180843694E+02  0.00000000000E+00 0.  1.
<mgrwt>
<rscale>  2 0.21900212E+03</rscale>
<asrwt>0</asrwt>
<pdfrwt beam="1">  1       21 0.85552266E-01 0.22097250E+03</pdfrwt>
<pdfrwt beam="2">  1       21 0.22995834E-01 0.22097250E+03</pdfrwt>
<totfact> 0.20614917E+04</totfact>
</mgrwt>
</event>
<event>
12    1  0.1026879E-001  0.2042264E+03  0.7546771E-02  0.1146428E+00
         21   -1    0    0  501  502  0.00000000000E+00  0.00000000000E+00  0.17020096929E+04  0.17020096929E+04  0.00000000000E+00 0.  1.
         21   -1    0    0  502  503 -0.00000000000E+00 -0.00000000000E+00 -0.32994804979E+02  0.32994804979E+02  0.00000000000E+00 0.  1.
         -6    2    1    2    0  503 -0.74374182000E+02  0.74113948740E+02  0.38984326842E+03  0.43963256462E+03  0.17399603902E+03 0.  0.
        -24    2    3    3    0    0  0.21931177984E+02  0.52231414616E+01  0.19323710079E+03  0.21007485763E+03  0.79262922677E+02 0.  0.
          6    2    1    2  501    0  0.74374182000E+02 -0.74113948740E+02  0.12791716195E+04  0.12953719332E+04  0.17516853882E+03 0.  0.
         24    2    5    5    0    0  0.20440317260E+02  0.19035266594E+02  0.81220428765E+03  0.81613690000E+03  0.74989910827E+02 0.  0.
          5    1    5    5  501    0  0.53933864740E+02 -0.93149215334E+02  0.46696733181E+03  0.47923503321E+03  0.47000000000E+01 0. -1.
        -11    1    6    6    0    0  0.41454976190E+02  0.18023028651E+02  0.72586634045E+03  0.72727249970E+03  0.00000000000E+00 0.  1.
         12    1    6    6    0    0 -0.21014658930E+02  0.10122379434E+01  0.86337947195E+02  0.88864400304E+02  0.00000000000E+00 0. -1.
         -5    1    3    3    0  503 -0.96305359984E+02  0.68890807278E+02  0.19660616764E+03  0.22955770700E+03  0.47000000000E+01 0.  1.
         13    1    4    4    0    0  0.18641723555E+02  0.41711354471E+02  0.11190490983E+03  0.12087208029E+03  0.00000000000E+00 0. -1.
        -14    1    4    4    0    0  0.32894544298E+01 -0.36488213009E+02  0.81332190957E+02  0.89202777339E+02  0.00000000000E+00 0.  1.
<mgrwt>
<rscale>  2 0.20397472E+03</rscale>
<asrwt>0</asrwt>
<pdfrwt beam="1">  1       21 0.26184758E+00 0.20422638E+03</pdfrwt>
<pdfrwt beam="2">  1       21 0.50761252E-02 0.20422638E+03</pdfrwt>
<totfact> 0.14704581E+04</totfact>
</mgrwt>
</event>
<event>
12    1  0.1026879E-001  0.2242349E+03  0.7546771E-02  0.1130973E+00
         21   -1    0    0  501  502  0.00000000000E+00  0.00000000000E+00  0.12426808913E+04  0.12426808913E+04  0.00000000000E+00 0. -1.
         21   -1    0    0  502  503 -0.00000000000E+00 -0.00000000000E+00 -0.19990915694E+03  0.19990915694E+03  0.00000000000E+00 0. -1.
         -6    2    1    2    0  503 -0.10243304427E+03  0.97578767403E+02 -0.12293797374E+03  0.25572449583E+03  0.17397450380E+03 0.  0.
        -24    2    3    3    0    0 -0.84480092697E+02  0.13043406387E+02 -0.12277183918E+03  0.16917593528E+03  0.78997190266E+02 0.  0.
          6    2    1    2  501    0  0.10243304427E+03 -0.97578767403E+02  0.11657097081E+04  0.11868655524E+04  0.17250093194E+03 0.  0.
         24    2    5    5    0    0  0.10730247626E+03 -0.10654824402E+03  0.11626805998E+04  0.11752281826E+04  0.80428566880E+02 0.  0.
          5    1    5    5  501    0 -0.48694319814E+01  0.89694766132E+01  0.30291083137E+01  0.11637369794E+02  0.47000000000E+01 0. -1.
        -13    1    6    6    0    0  0.87200550237E+01 -0.48269091046E+02  0.20809830765E+03  0.21380095920E+03  0.00000000000E+00 0.  1.
         14    1    6    6    0    0  0.98582421232E+02 -0.58279152971E+02  0.95458229214E+03  0.96142722341E+03  0.00000000000E+00 0. -1.
         -5    1    3    3    0  503 -0.17952951577E+02  0.84535361017E+02 -0.16613456521E+00  0.86548560550E+02  0.47000000000E+01 0.  1.
         11    1    4    4    0    0 -0.54512358036E+02  0.25312621459E+02 -0.12288279907E+03  0.13679367051E+03  0.00000000000E+00 0. -1.
        -12    1    4    4    0    0 -0.29967734662E+02 -0.12269215073E+02  0.11095989756E+00  0.32382264765E+02  0.00000000000E+00 0.  1.
<mgrwt>
<rscale>  2 0.22394898E+03</rscale>
<asrwt>0</asrwt>
<pdfrwt beam="1">  1       21 0.19118167E+00 0.22423486E+03</pdfrwt>
<pdfrwt beam="2">  1       21 0.30755256E-01 0.22423486E+03</pdfrwt>
<totfact> 0.15068148E+03</totfact>
</mgrwt>
</event>
<event>
12    1  0.1026879E-001  0.1912885E+03  0.7546771E-02  0.1157500E+00
         21   -1    0    0  503  502  0.00000000000E+00  0.00000000000E+00  0.39825748131E+03  0.39825748131E+03  0.00000000000E+00 0.  1.
         21   -1    0    0  501  503 -0.00000000000E+00 -0.00000000000E+00 -0.19395682266E+03  0.19395682266E+03  0.00000000000E+00 0.  1.
          6    2    1    2  501    0  0.68914045119E+02  0.46348064298E+02 -0.11321481856E+03  0.22152928479E+03  0.17134859264E+03 0.  0.
         24    2    3    3    0    0 -0.21163387181E+02  0.48021194368E+02 -0.78648753945E+02  0.12491848831E+03  0.81639929924E+02 0.  0.
         -6    2    1    2    0  502 -0.68914045119E+02 -0.46348064298E+02  0.31751547720E+03  0.37068501918E+03  0.17231951865E+03 0.  0.
        -24    2    5    5    0    0 -0.46257495147E+02 -0.20323501741E+02  0.61234873139E+02  0.11204930021E+03  0.79072975207E+02 0.  0.
          5    1    3    3  501    0  0.90077432299E+02 -0.16731300702E+01 -0.34566064611E+02  0.96610796480E+02  0.47000000000E+01 0. -1.
        -11    1    4    4    0    0 -0.20540088403E+02  0.28612464328E+02  0.80013601636E+01  0.36119110053E+02  0.00000000000E+00 0.  1.
         12    1    4    4    0    0 -0.62329877750E+00  0.19408730040E+02 -0.86650114108E+02  0.88799378253E+02  0.00000000000E+00 0. -1.
         -5    1    5    5    0  502 -0.22656549972E+02 -0.26024562557E+02  0.25628060406E+03  0.25863571898E+03  0.47000000000E+01 0.  1.
         11    1    6    6    0    0 -0.58136052917E+02 -0.36440002898E+01  0.13050240611E+02  0.59694121711E+02  0.00000000000E+00 0. -1.
        -12    1    6    6    0    0  0.11878557770E+02 -0.16679501451E+02  0.48184632528E+02  0.52355178495E+02  0.00000000000E+00 0.  1.
<mgrwt>
<rscale>  2 0.19106962E+03</rscale>
<asrwt>0</asrwt>
<pdfrwt beam="1">  1       21 0.61270382E-01 0.19128854E+03</pdfrwt>
<pdfrwt beam="2">  1       21 0.29839511E-01 0.19128854E+03</pdfrwt>
<totfact> 0.26694167E+04</totfact>
</mgrwt>
</event>
<event>
12    1  0.1026879E-001  0.2361867E+03  0.7546771E-02  0.1123191E+00
         21   -1    0    0  503  502  0.00000000000E+00  0.00000000000E+00  0.10894889396E+04  0.10894889396E+04  0.00000000000E+00 0.  1.
         21   -1    0    0  501  503 -0.00000000000E+00 -0.00000000000E+00 -0.12513296574E+03  0.12513296574E+03  0.00000000000E+00 0. -1.
          6    2    1    2  501    0  0.32850607074E+02  0.15805397346E+03  0.10100931839E+02  0.23157213584E+03  0.16572086278E+03 0.  0.
         24    2    3    3    0    0  0.35041996898E+02  0.17768028041E+03  0.32822920030E+02  0.20110292415E+03  0.81035908277E+02 0.  0.
         -6    2    1    2    0  502 -0.32850607074E+02 -0.15805397346E+03  0.95425504199E+03  0.98304976947E+03  0.17240633159E+03 0.  0.
        -24    2    5    5    0    0 -0.32490914760E+02 -0.25133810099E+02  0.55331584258E+03  0.56062553859E+03  0.80344289888E+02 0.  0.
          5    1    3    3  501    0 -0.21913898233E+01 -0.19626306942E+02 -0.22721988191E+02  0.30469211688E+02  0.47000000000E+01 0. -1.
        -11    1    4    4    0    0  0.39689618608E+02  0.28337705126E+02  0.39824148053E+01  0.48930062178E+02  0.00000000000E+00 0.  1.
         12    1    4    4    0    0 -0.46476217104E+01  0.14934257528E+03  0.28840505224E+02  0.15217286197E+03  0.00000000000E+00 0. -1.
         -5    1    5    5    0  502 -0.35969231463E+00 -0.13292016336E+03  0.40093919942E+03  0.42242423088E+03  0.47000000000E+01 0.  1.
         11    1    6    6    0    0 -0.13669272271E+02  0.16957088750E+02  0.39837206329E+03  0.39896703207E+03  0.00000000000E+00 0. -1.
        -12    1    6    6    0    0 -0.18821642489E+02 -0.42090898849E+02  0.15494377928E+03  0.16165850652E+03  0.00000000000E+00 0.  1.
<mgrwt>
<rscale>  2 0.23496858E+03</rscale>
<asrwt>0</asrwt>
<pdfrwt beam="1">  1       21 0.16761368E+00 0.23618671E+03</pdfrwt>
<pdfrwt beam="2">  1       21 0.19251226E-01 0.23618671E+03</pdfrwt>
<totfact> 0.53098841E+03</totfact>
</mgrwt>
</event>
<event>
12    1  0.1026879E-001  0.2155869E+03  0.7546771E-02  0.1140813E+00
         21   -1    0    0  503  502  0.00000000000E+00  0.00000000000E+00  0.26318392526E+03  0.26318392526E+03  0.00000000000E+00 0. -1.
         21   -1    0    0  501  503 -0.00000000000E+00 -0.00000000000E+00 -0.30898427194E+03  0.30898427194E+03  0.00000000000E+00 0. -1.
          6    2    1    2  501    0  0.45885615049E+02 -0.84982376450E+02 -0.22050194306E+03  0.30838098142E+03  0.19274394629E+03 0.  0.
         24    2    3    3    0    0  0.45818755367E+02 -0.37058303093E+02 -0.23736101228E+03  0.25736099031E+03  0.80135840995E+02 0.  0.
         -6    2    1    2    0  502 -0.45885615049E+02  0.84982376450E+02  0.17470159639E+03  0.26378721578E+03  0.17243999957E+03 0.  0.
        -24    2    5    5    0    0 -0.42931978013E+02  0.12182086722E+03  0.10504212417E+03  0.18479145359E+03  0.80190741629E+02 0.  0.
          5    1    3    3  501    0  0.66859681967E-01 -0.47924073356E+02  0.16859069221E+02  0.51019991104E+02  0.47000000000E+01 0. -1.
        -13    1    4    4    0    0 -0.18023504016E+02  0.36981000339E+00 -0.16526233625E+02  0.24456080109E+02  0.00000000000E+00 0.  1.
         14    1    4    4    0    0  0.63842259383E+02 -0.37428113097E+02 -0.22083477866E+03  0.23290491021E+03  0.00000000000E+00 0. -1.
         -5    1    5    5    0  502 -0.29536370360E+01 -0.36838490773E+02  0.69659472217E+02  0.78995762188E+02  0.47000000000E+01 0.  1.
         13    1    6    6    0    0  0.57798397350E+01  0.68129254799E+01  0.45604057949E+02  0.46470986673E+02  0.00000000000E+00 0. -1.
        -14    1    6    6    0    0 -0.48711817748E+02  0.11500794174E+03  0.59438066223E+02  0.13832046692E+03  0.00000000000E+00 0.  1.
<mgrwt>
<rscale>  2 0.21095391E+03</rscale>
<asrwt>0</asrwt>
<pdfrwt beam="1">  1       21 0.40489835E-01 0.21558693E+03</pdfrwt>
<pdfrwt beam="2">  1       21 0.47536042E-01 0.21558693E+03</pdfrwt>
<totfact> 0.24553912E+04</totfact>
</mgrwt>
</event>
<event>
12    1  0.1026879E-001  0.2609903E+03  0.7546771E-02  0.1106569E+00
         21   -1    0    0  503  502  0.00000000000E+00  0.00000000000E+00  0.49872640466E+03  0.49872640466E+03  0.00000000000E+00 0.  1.
         21   -1    0    0  501  503 -0.00000000000E+00 -0.00000000000E+00 -0.20521610828E+03  0.20521610828E+03  0.00000000000E+00 0.  1.
          6    2    1    2  501    0  0.12238896359E+03  0.15278348433E+03 -0.56923677402E+02  0.26699869300E+03  0.17241271856E+03 0.  0.
         24    2    3    3    0    0  0.12915998410E+03  0.69911871356E+02 -0.74701554987E+02  0.18184181490E+03  0.76916526705E+02 0.  0.
         -6    2    1    2    0  502 -0.12238896359E+03 -0.15278348433E+03  0.35043397378E+03  0.43694381994E+03  0.17260961826E+03 0.  0.
        -24    2    5    5    0    0 -0.65821768091E+02 -0.69934774739E+02  0.30002139423E+03  0.32457267389E+03  0.78174201452E+02 0.  0.
          5    1    3    3  501    0 -0.67710205133E+01  0.82871612972E+02  0.17777877585E+02  0.85156878095E+02  0.47000000000E+01 0. -1.
        -11    1    4    4    0    0  0.10339449972E+03  0.82589579916E+02 -0.43170830010E+02  0.13919476228E+03  0.00000000000E+00 0.  1.
         12    1    4    4    0    0  0.25765484386E+02 -0.12677708560E+02 -0.31530724977E+02  0.42647052624E+02  0.00000000000E+00 0. -1.
         -5    1    5    5    0  502 -0.56567195498E+02 -0.82848709589E+02  0.50412579552E+02  0.11237114605E+03  0.47000000000E+01 0.  1.
         11    1    6    6    0    0 -0.62923801254E+02 -0.60641037467E+02  0.30221288793E+03  0.31459397614E+03  0.00000000000E+00 0. -1.
        -12    1    6    6    0    0 -0.28979668372E+01 -0.92937372721E+01 -0.21914937054E+01  0.99786977574E+01  0.00000000000E+00 0.  1.
<mgrwt>
<rscale>  2 0.26095774E+03</rscale>
<asrwt>0</asrwt>
<pdfrwt beam="1">  1       21 0.76727138E-01 0.26099029E+03</pdfrwt>
<pdfrwt beam="2">  1       21 0.31571709E-01 0.26099029E+03</pdfrwt>
<totfact> 0.14009090E+04</totfact>
</mgrwt>
</event>
<event>
12    1  0.1026879E-001  0.1858857E+03  0.7546771E-02  0.1162713E+00
         21   -1    0    0  501  502  0.00000000000E+00  0.00000000000E+00  0.43951153913E+02  0.43951153913E+02  0.00000000000E+00 0.  1.
         21   -1    0    0  502  503 -0.00000000000E+00 -0.00000000000E+00 -0.95923808764E+03  0.95923808764E+03  0.00000000000E+00 0.  1.
         -6    2    1    2    0  503 -0.42781880138E+02 -0.43922871601E+02 -0.24133383408E+03  0.30462353365E+03  0.17548210697E+03 0.  0.
        -24    2    3    3    0    0 -0.71522659162E+02 -0.25638474960E+02 -0.24627182028E+03  0.26988414323E+03  0.80092566022E+02 0.  0.
          6    2    1    2  501    0  0.42781880138E+02  0.43922871601E+02 -0.67395309965E+03  0.69856570790E+03  0.17326788453E+03 0.  0.
         24    2    5    5    0    0 -0.37211451290E+02  0.52081910845E+02 -0.36725999599E+03  0.38147226296E+03  0.80894778607E+02 0.  0.
          5    1    5    5  501    0  0.79993331428E+02 -0.81590392444E+01 -0.30669310366E+03  0.31709344495E+03  0.47000000000E+01 0. -1.
        -11    1    6    6    0    0  0.73083979772E+00  0.56295326788E+02 -0.28857167683E+03  0.29401243275E+03  0.00000000000E+00 0.  1.
         12    1    6    6    0    0 -0.37942291087E+02 -0.42134159431E+01 -0.78688319159E+02  0.87459830202E+02  0.00000000000E+00 0. -1.
         -5    1    3    3    0  503  0.28740779024E+02 -0.18284396641E+02  0.49379861983E+01  0.34739390425E+02  0.47000000000E+01 0.  1.
         13    1    4    4    0    0  0.16448988335E+02 -0.24311244745E+00 -0.61600988441E+02  0.63759784330E+02  0.00000000000E+00 0. -1.
        -14    1    4    4    0    0 -0.87971647497E+02 -0.25395362513E+02 -0.18467083183E+03  0.20612435890E+03  0.00000000000E+00 0.  1.
<mgrwt>
<rscale>  2 0.18536123E+03</rscale>
<asrwt>0</asrwt>
<pdfrwt beam="1">  1       21 0.67617161E-02 0.18588566E+03</pdfrwt>
<pdfrwt beam="2">  1       21 0.14757509E+00 0.18588566E+03</pdfrwt>
<totfact> 0.50284861E+04</totfact>
</mgrwt>
</event>
<event>
12    1  0.1026879E-001  0.2357382E+03  0.7546771E-02  0.1122914E+00
         21   -1    0    0  503  502  0.00000000000E+00  0.00000000000E+00  0.74756128612E+03  0.74756128612E+03  0.00000000000E+00 0. -1.
         21   -1    0    0  501  503 -0.00000000000E+00 -0.00000000000E+00 -0.22362502495E+03  0.22362502495E+03  0.00000000000E+00 0. -1.
          6    2    1    2  501    0  0.13611009381E+03  0.81264749789E+02 -0.13566539125E+03  0.27072443744E+03  0.17250132014E+03 0.  0.
         24    2    3    3    0    0  0.57850592554E+02 -0.24637547237E+02 -0.81933770367E+02  0.12842537513E+03  0.76329774388E+02 0.  0.
         -6    2    1    2    0  502 -0.13611009381E+03 -0.81264749789E+02  0.65960165241E+03  0.70046187363E+03  0.17447801966E+03 0.  0.
        -24    2    5    5    0    0 -0.14489332222E+03 -0.27658465208E+02  0.58012153929E+03  0.60407744942E+03  0.81298825492E+02 0.  0.
          5    1    3    3  501    0  0.78259501254E+02  0.10590229703E+03 -0.53731620878E+02  0.14229906231E+03  0.47000000000E+01 0. -1.
        -13    1    4    4    0    0 -0.17203450373E+01 -0.21237803833E+02  0.60206409924E+01  0.22141635366E+02  0.00000000000E+00 0.  1.
         14    1    4    4    0    0  0.59570937591E+02 -0.33997434038E+01 -0.87954411360E+02  0.10628373976E+03  0.00000000000E+00 0. -1.
         -5    1    5    5    0  502  0.87832284146E+01 -0.53606284580E+02  0.79480113125E+02  0.96384424210E+02  0.47000000000E+01 0.  1.
         11    1    6    6    0    0 -0.98573988084E+02  0.14615633262E+02  0.27300271244E+03  0.29062162490E+03  0.00000000000E+00 0. -1.
        -12    1    6    6    0    0 -0.46319334138E+02 -0.42274098471E+02  0.30711882685E+03  0.31345582452E+03  0.00000000000E+00 0.  1.
<mgrwt>
<rscale>  2 0.23537253E+03</rscale>
<asrwt>0</asrwt>
<pdfrwt beam="1">  1       21 0.11500943E+00 0.23573819E+03</pdfrwt>
<pdfrwt beam="2">  1       21 0.34403850E-01 0.23573819E+03</pdfrwt>
<totfact> 0.46191853E+03</totfact>
</mgrwt>
</event>
<event>
12    1  0.1026879E-001  0.1788361E+03  0.7546771E-02  0.1168953E+00
         21   -1    0    0  503  502  0.00000000000E+00  0.00000000000E+00  0.99664351452E+03  0.99664351452E+03  0.00000000000E+00 0.  1.
         21   -1    0    0  501  503 -0.00000000000E+00 -0.00000000000E+00 -0.95682531719E+02  0.95682531719E+02  0.00000000000E+00 0. -1.
          6    2    1    2  501    0 -0.45252803414E+02  0.14854741858E+02  0.51452080067E+01  0.17883369953E+03  0.17229782167E+03 0.  0.
         24    2    3    3    0    0 -0.43932635226E+02 -0.10155617578E+02  0.65062580609E+02  0.11372269844E+03  0.81648635872E+02 0.  0.
         -6    2    1    2    0  502  0.45252803414E+02 -0.14854741858E+02  0.89581577479E+03  0.91349234670E+03  0.17237716075E+03 0.  0.
        -24    2    5    5    0    0  0.15952379785E+01  0.10187418550E+01  0.82406689949E+03  0.82788894950E+03  0.79437240991E+02 0.  0.
          5    1    3    3  501    0 -0.13201681881E+01  0.25010359436E+02 -0.59917372602E+02  0.65111001088E+02  0.47000000000E+01 0. -1.
        -11    1    4    4    0    0 -0.20301476509E+02 -0.40004934880E+02  0.60589196121E+02  0.75389624285E+02  0.00000000000E+00 0.  1.
         12    1    4    4    0    0 -0.23631158717E+02  0.29849317303E+02  0.44733844881E+01  0.38333074160E+02  0.00000000000E+00 0. -1.
         -5    1    5    5    0  502  0.43657565436E+02 -0.15873483713E+02  0.71748875299E+02  0.85603397197E+02  0.47000000000E+01 0.  1.
         13    1    6    6    0    0  0.19631018978E+02  0.32070127808E+02  0.26303418754E+03  0.26570821180E+03  0.00000000000E+00 0. -1.
        -14    1    6    6    0    0 -0.18035781000E+02 -0.31051385953E+02  0.56103271196E+03  0.56218073771E+03  0.00000000000E+00 0.  1.
<mgrwt>
<rscale>  2 0.17881702E+03</rscale>
<asrwt>0</asrwt>
<pdfrwt beam="1">  1       21 0.15332976E+00 0.17883614E+03</pdfrwt>
<pdfrwt beam="2">  1       21 0.14720390E-01 0.17883614E+03</pdfrwt>
<totfact> 0.11570662E+04</totfact>
</mgrwt>
</event>
<event>
12    1  0.1026879E-001  0.1888577E+03  0.7546771E-02  0.1159887E+00
         21   -1    0    0  501  502  0.00000000000E+00  0.00000000000E+00  0.14304555924E+03  0.14304555924E+03  0.00000000000E+00 0. -1.
         21   -1    0    0  502  503 -0.00000000000E+00 -0.00000000000E+00 -0.28201579394E+03  0.28201579394E+03  0.00000000000E+00 0.  1.
         -6    2    1    2    0  503  0.69128254970E+02  0.18996684692E+02 -0.14400587598E+03  0.23613652984E+03  0.17286751791E+03 0.  0.
        -24    2    3    3    0    0  0.32040956304E+02  0.47726517742E+02 -0.15871540856E+03  0.18674694209E+03  0.79871121749E+02 0.  0.
          6    2    1    2  501    0 -0.69128254970E+02 -0.18996684692E+02  0.50356412754E+01  0.18892482334E+03  0.17472161151E+03 0.  0.
         24    2    5    5    0    0 -0.81290222813E+02  0.14882790611E+02 -0.48209066773E+02  0.12448243633E+03  0.79637711256E+02 0.  0.
          5    1    5    5  501    0  0.12161967843E+02 -0.33879475303E+02  0.53244708049E+02  0.64442387012E+02  0.47000000000E+01 0. -1.
        -11    1    6    6    0    0 -0.47862480728E+02  0.12366200896E+02  0.16075581006E+02  0.51982345953E+02  0.00000000000E+00 0.  1.
         12    1    6    6    0    0 -0.33427742085E+02  0.25165897154E+01 -0.64284647779E+02  0.72500090378E+02  0.00000000000E+00 0. -1.
         -5    1    3    3    0  503  0.37087298666E+02 -0.28729833051E+02  0.14709532585E+02  0.49389587752E+02  0.47000000000E+01 0.  1.
         13    1    4    4    0    0  0.10516333781E+02 -0.11738221414E+02  0.14592186492E+00  0.15760723693E+02  0.00000000000E+00 0. -1.
        -14    1    4    4    0    0  0.21524622523E+02  0.59464739156E+02 -0.15886133043E+03  0.17098621840E+03  0.00000000000E+00 0.  1.
<mgrwt>
<rscale>  2 0.18842774E+03</rscale>
<asrwt>0</asrwt>
<pdfrwt beam="1">  1       21 0.22007009E-01 0.18885770E+03</pdfrwt>
<pdfrwt beam="2">  1       21 0.43387045E-01 0.18885770E+03</pdfrwt>
<totfact> 0.98655814E+04</totfact>
</mgrwt>
</event>
<event>
12    1  0.1026879E-001  0.2334412E+03  0.7546771E-02  0.1126322E+00
         21   -1    0    0  501  502  0.00000000000E+00  0.00000000000E+00  0.26157246289E+03  0.26157246289E+03  0.00000000000E+00 0. -1.
         21   -1    0    0  502  503 -0.00000000000E+00 -0.00000000000E+00 -0.25180169413E+03  0.25180169413E+03  0.00000000000E+00 0.  1.
         -6    2    1    2    0  503  0.13924974102E+03  0.37924649541E+02 -0.11363501569E+03  0.25962994945E+03  0.18348303585E+03 0.  0.
        -24    2    3    3    0    0  0.47697085511E+01  0.40028414148E+02 -0.80861408447E+02  0.12111820161E+03  0.80659948715E+02 0.  0.
          6    2    1    2  501    0 -0.13924974102E+03 -0.37924649541E+02  0.12340578445E+03  0.25374420757E+03  0.16831032595E+03 0.  0.
         24    2    5    5    0    0 -0.10393303179E+03 -0.29616590500E+02  0.10706451359E+02  0.13525571245E+03  0.80624203063E+02 0.  0.
          5    1    5    5  501    0 -0.35316709231E+02 -0.83080590408E+01  0.11269933309E+03  0.11848849512E+03  0.47000000000E+01 0. -1.
        -13    1    6    6    0    0 -0.40417624783E+02 -0.17031820677E+01 -0.33895870898E+02  0.52777033700E+02  0.00000000000E+00 0.  1.
         14    1    6    6    0    0 -0.63515407008E+02 -0.27913408432E+02  0.44602322257E+02  0.82478678750E+02  0.00000000000E+00 0. -1.
         -5    1    3    3    0  503  0.13448003247E+03 -0.21037646071E+01 -0.32773607242E+02  0.13851174784E+03  0.47000000000E+01 0.  1.
         11    1    4    4    0    0  0.60752067530E+01  0.63867138395E+02 -0.69802925608E+02  0.94807003577E+02  0.00000000000E+00 0. -1.
        -12    1    4    4    0    0 -0.13054982019E+01 -0.23838724247E+02 -0.11058482839E+02  0.26311198034E+02  0.00000000000E+00 0.  1.
<mgrwt>
<rscale>  2 0.23045251E+03</rscale>
<asrwt>0</asrwt>
<pdfrwt beam="1">  1       21 0.40241917E-01 0.23344120E+03</pdfrwt>
<pdfrwt beam="2">  1       21 0.38738722E-01 0.23344120E+03</pdfrwt>
<totfact> 0.37473317E+04</totfact>
</mgrwt>
</event>
<event>
12    1  0.1026879E-001  0.1772839E+03  0.7546771E-02  0.1171146E+00
         21   -1    0    0  501  502  0.00000000000E+00  0.00000000000E+00  0.19019810012E+04  0.19019810012E+04  0.00000000000E+00 0.  1.
         21   -1    0    0  502  503 -0.00000000000E+00 -0.00000000000E+00 -0.22973951184E+02  0.22973951184E+02  0.00000000000E+00 0.  1.
         -6    2    1    2    0  503 -0.22136752866E+02 -0.19610633140E+02  0.42474375130E+03  0.46025736114E+03  0.17479980394E+03 0.  0.
        -24    2    3    3    0    0 -0.18706915532E+02  0.19945820862E+02  0.90659767771E+02  0.12378942079E+03  0.79729810909E+02 0.  0.
          6    2    1    2  501    0  0.22136752866E+02  0.19610633140E+02  0.14542632988E+04  0.14646975913E+04  0.17199615995E+03 0.  0.
         24    2    5    5    0    0  0.41547976428E+02  0.74735524611E+02  0.96711176365E+03  0.97403043585E+03  0.78220800266E+02 0.  0.
          5    1    5    5  501    0 -0.19411223561E+02 -0.55124891471E+02  0.48715153510E+03  0.49066715543E+03  0.47000000000E+01 0. -1.
        -11    1    6    6    0    0  0.40571376041E+02  0.85186274253E+02  0.94330899034E+03  0.94801613337E+03  0.00000000000E+00 0.  1.
         12    1    6    6    0    0  0.97660038649E+00 -0.10450749642E+02  0.23802773309E+02  0.26014302482E+02  0.00000000000E+00 0. -1.
         -5    1    3    3    0  503 -0.34298373342E+01 -0.39556454001E+02  0.33408398353E+03  0.33646794036E+03  0.47000000000E+01 0.  1.
         13    1    4    4    0    0 -0.11330025005E+02  0.38211616703E+02  0.95518276033E+02  0.10349994287E+03  0.00000000000E+00 0. -1.
        -14    1    4    4    0    0 -0.73768905273E+01 -0.18265795841E+02 -0.48585082622E+01  0.20289477916E+02  0.00000000000E+00 0.  1.
<mgrwt>
<rscale>  2 0.17658890E+03</rscale>
<asrwt>0</asrwt>
<pdfrwt beam="1">  1       21 0.29261234E+00 0.17728391E+03</pdfrwt>
<pdfrwt beam="2">  1       21 0.35344555E-02 0.17728391E+03</pdfrwt>
<totfact> 0.18429835E+04</totfact>
</mgrwt>
</event>
<event>
12    1  0.1026879E-001  0.1740997E+03  0.7546771E-02  0.1178487E+00
         21   -1    0    0  503  502  0.00000000000E+00  0.00000000000E+00  0.22531855057E+03  0.22531855057E+03  0.00000000000E+00 0. -1.
         21   -1    0    0  501  503 -0.00000000000E+00 -0.00000000000E+00 -0.18110453410E+03  0.18110453410E+03  0.00000000000E+00 0. -1.
          6    2    1    2  501    0  0.14563450282E+02 -0.49875026134E+01 -0.94125127371E+02  0.19791472121E+03  0.17341778457E+03 0.  0.
         24    2    3    3    0    0 -0.27819926049E+02 -0.30126562303E+02 -0.10622829621E+03  0.14695493700E+03  0.92896418393E+02 0.  0.
         -6    2    1    2    0  502 -0.14563450282E+02  0.49875026134E+01  0.13833914384E+03  0.20850836346E+03  0.15524512761E+03 0.  0.
        -24    2    5    5    0    0 -0.38844401315E+02  0.15746907257E+02  0.15683234154E+03  0.17580641042E+03  0.67488206325E+02 0.  0.
          5    1    3    3  501    0  0.42383376330E+02  0.25139059690E+02  0.12103168844E+02  0.50959784216E+02  0.47000000000E+01 0. -1.
        -11    1    4    4    0    0 -0.36774082331E+02 -0.48841481126E+02 -0.30282742238E+02  0.68226592230E+02  0.00000000000E+00 0.  1.
         12    1    4    4    0    0  0.89541562820E+01  0.18714918823E+02 -0.75945553976E+02  0.78728344769E+02  0.00000000000E+00 0. -1.
         -5    1    5    5    0  502  0.24280951034E+02 -0.10759404644E+02 -0.18493197692E+02  0.32701953034E+02  0.47000000000E+01 0.  1.
         13    1    6    6    0    0 -0.36677441580E+01 -0.22982335682E+02  0.76303959270E+02  0.79774270920E+02  0.00000000000E+00 0. -1.
        -14    1    6    6    0    0 -0.35176657157E+02  0.38729242939E+02  0.80528382265E+02  0.96032139504E+02  0.00000000000E+00 0.  1.
<mgrwt>
<rscale>  2 0.16938858E+03</rscale>
<asrwt>0</asrwt>
<pdfrwt beam="1">  1       21 0.34664392E-01 0.17409968E+03</pdfrwt>
<pdfrwt beam="2">  1       21 0.27862236E-01 0.17409968E+03</pdfrwt>
<totfact> 0.99362955E+04</totfact>
</mgrwt>
</event>
<event>
12    1  0.1026879E-001  0.2148388E+03  0.7546771E-02  0.1137983E+00
         21   -1    0    0  501  502  0.00000000000E+00  0.00000000000E+00  0.76106617545E+02  0.76106617545E+02  0.00000000000E+00 0.  1.
         21   -1    0    0  502  503 -0.00000000000E+00 -0.00000000000E+00 -0.87983316738E+03  0.87983316738E+03  0.00000000000E+00 0.  1.
         -6    2    1    2    0  503  0.94145433359E+02 -0.84694280016E+02 -0.67029885121E+03  0.70388653984E+03  0.17354891916E+03 0.  0.
        -24    2    3    3    0    0  0.90411858199E+02 -0.33011771517E+02 -0.29156162284E+03  0.32159215141E+03  0.95651716005E+02 0.  0.
          6    2    1    2  501    0 -0.94145433359E+02  0.84694280016E+02 -0.13342769862E+03  0.25205324509E+03  0.17231193780E+03 0.  0.
         24    2    5    5    0    0 -0.27430205545E+02  0.16874113170E+02 -0.13095947543E+03  0.15677114404E+03  0.79935320901E+02 0.  0.
          5    1    5    5  501    0 -0.66715227813E+02  0.67820166846E+02 -0.24682231895E+01  0.95282101041E+02  0.47000000000E+01 0. -1.
        -13    1    6    6    0    0  0.16639455290E+02  0.16582820753E+02 -0.59682299177E+01  0.24238011157E+02  0.00000000000E+00 0.  1.
         14    1    6    6    0    0 -0.44069660835E+02  0.29129241674E+00 -0.12499124552E+03  0.13253313289E+03  0.00000000000E+00 0. -1.
         -5    1    3    3    0  503  0.37335751593E+01 -0.51682508499E+02 -0.37873722838E+03  0.38229438843E+03  0.47000000000E+01 0.  1.
         11    1    4    4    0    0  0.87931112908E+02  0.10956269421E+02 -0.22459354529E+03  0.24144187922E+03  0.00000000000E+00 0. -1.
        -12    1    4    4    0    0  0.24807452915E+01 -0.43968040938E+02 -0.66968077548E+02  0.80150272187E+02  0.00000000000E+00 0.  1.
<mgrwt>
<rscale>  2 0.21458887E+03</rscale>
<asrwt>0</asrwt>
<pdfrwt beam="1">  1       21 0.11708711E-01 0.21483880E+03</pdfrwt>
<pdfrwt beam="2">  1       21 0.13535894E+00 0.21483880E+03</pdfrwt>
<totfact> 0.23597200E+04</totfact>
</mgrwt>
</event>
<event>
12    1  0.1026879E-001  0.2311916E+03  0.7546771E-02  0.1126390E+00
         21   -1    0    0  501  502  0.00000000000E+00  0.00000000000E+00  0.11098387132E+04  0.11098387132E+04  0.00000000000E+00 0. -1.
         21   -1    0    0  502  503 -0.00000000000E+00 -0.00000000000E+00 -0.15800907906E+03  0.15800907906E+03  0.00000000000E+00 0.  1.
         -6    2    1    2    0  503 -0.10792963975E+03  0.10822971360E+03 -0.55335776766E+02  0.23448836799E+03  0.16899783577E+03 0.  0.
        -24    2    3    3    0    0 -0.78456180236E+02  0.11468194072E+02  0.11743693600E+02  0.11302552668E+03  0.79686659167E+02 0.  0.
          6    2    1    2  501    0  0.10792963975E+03 -0.10822971360E+03  0.10071654109E+04  0.10333594242E+04  0.17345620992E+03 0.  0.
         24    2    5    5    0    0  0.88041413747E+02 -0.12404599542E+03  0.59681161590E+03  0.62219276296E+03  0.88323439032E+02 0.  0.
          5    1    5    5  501    0  0.19888226001E+02  0.15816281826E+02  0.41035379495E+03  0.41116666126E+03  0.47000000000E+01 0. -1.
        -13    1    6    6    0    0  0.94916579576E+02 -0.96105119431E+02  0.37624140775E+03  0.39975360907E+03  0.00000000000E+00 0.  1.
         14    1    6    6    0    0 -0.68751658291E+01 -0.27940875990E+02  0.22057020815E+03  0.22243915388E+03  0.00000000000E+00 0. -1.
         -5    1    3    3    0  503 -0.29473459512E+02  0.96761519524E+02 -0.67079470365E+02  0.12146284132E+03  0.47000000000E+01 0.  1.
         11    1    4    4    0    0 -0.14415737191E+02  0.34074264681E+02  0.23881251268E+02  0.44036157353E+02  0.00000000000E+00 0. -1.
        -12    1    4    4    0    0 -0.64040443045E+02 -0.22606070609E+02 -0.12137557669E+02  0.68989369325E+02  0.00000000000E+00 0.  1.
<mgrwt>
<rscale>  2 0.23035555E+03</rscale>
<asrwt>0</asrwt>
<pdfrwt beam="1">  1       21 0.17074441E+00 0.23119155E+03</pdfrwt>
<pdfrwt beam="2">  1       21 0.24309090E-01 0.23119155E+03</pdfrwt>
<totfact> 0.32577148E+03</totfact>
</mgrwt>
</event>
<event>
12    1  0.1026879E-001  0.1744359E+03  0.7546771E-02  0.1173426E+00
         21   -1    0    0  503  502  0.00000000000E+00  0.00000000000E+00  0.87567914564E+02  0.87567914564E+02  0.00000000000E+00 0.  1.
         21   -1    0    0  501  503 -0.00000000000E+00 -0.00000000000E+00 -0.64412213430E+03  0.64412213430E+03  0.00000000000E+00 0.  1.
          6    2    1    2  501    0  0.34524034378E+00 -0.20727679019E+02 -0.52718221552E+03  0.55529179334E+03  0.17319968682E+03 0.  0.
         24    2    3    3    0    0 -0.17418718794E+01 -0.53676980983E+02 -0.50728377099E+03  0.51645816574E+03  0.80671929753E+02 0.  0.
         -6    2    1    2    0  502 -0.34524034378E+00  0.20727679019E+02 -0.29372004207E+02  0.17639825552E+03  0.17269590051E+03 0.  0.
        -24    2    5    5    0    0 -0.45663698662E+02  0.62102828513E+02 -0.10697180097E+02  0.11208259090E+03  0.80660664742E+02 0.  0.
          5    1    3    3  501    0  0.20871122232E+01  0.32949301963E+02 -0.19898444539E+02  0.38833627598E+02  0.47000000000E+01 0. -1.
        -11    1    4    4    0    0 -0.36852798416E+02 -0.18310198116E+02 -0.14373959859E+03  0.14951409402E+03  0.00000000000E+00 0.  1.
         12    1    4    4    0    0  0.35110926536E+02 -0.35366782867E+02 -0.36354417239E+03  0.36694407172E+03  0.00000000000E+00 0. -1.
         -5    1    5    5    0  502  0.45318458318E+02 -0.41375149494E+02 -0.18674824110E+02  0.64315664620E+02  0.47000000000E+01 0.  1.
         11    1    6    6    0    0  0.86891135805E+01  0.52506341457E+02 -0.18491679368E+02  0.56341448276E+02  0.00000000000E+00 0. -1.
        -12    1    6    6    0    0 -0.54352812242E+02  0.95964870565E+01  0.77944992704E+01  0.55741142627E+02  0.00000000000E+00 0.  1.
<mgrwt>
<rscale>  2 0.17431073E+03</rscale>
<asrwt>0</asrwt>
<pdfrwt beam="1">  1       21 0.13471987E-01 0.17443591E+03</pdfrwt>
<pdfrwt beam="2">  1       21 0.99095715E-01 0.17443591E+03</pdfrwt>
<totfact> 0.40371522E+04</totfact>
</mgrwt>
</event>
<event>
12    1  0.1026879E-001  0.2181235E+03  0.7546771E-02  0.1135723E+00
         21   -1    0    0  501  502  0.00000000000E+00  0.00000000000E+00  0.35309082863E+03  0.35309082863E+03  0.00000000000E+00 0.  1.
         21   -1    0    0  502  503 -0.00000000000E+00 -0.00000000000E+00 -0.13577891325E+03  0.13577891325E+03  0.00000000000E+00 0.  1.
         -6    2    1    2    0  503 -0.10935445059E+03 -0.74120712568E+02  0.14085497560E+03  0.25773442580E+03  0.17068870554E+03 0.  0.
        -24    2    3    3    0    0 -0.12015646984E+03 -0.52622666141E+02  0.46663281595E+02  0.16040501175E+03  0.79659172173E+02 0.  0.
          6    2    1    2  501    0  0.10935445059E+03  0.74120712568E+02  0.76456939781E+02  0.23113531608E+03  0.17356726305E+03 0.  0.
         24    2    5    5    0    0  0.23345527354E+02  0.20564556268E+02 -0.25103430625E+02  0.87599969938E+02  0.77946506542E+02 0.  0.
          5    1    5    5  501    0  0.86008923237E+02  0.53556156300E+02  0.10156037041E+03  0.14353534614E+03  0.47000000000E+01 0. -1.
        -11    1    6    6    0    0 -0.69576879772E+01  0.39854812285E+02  0.49562067450E+01  0.40760022933E+02  0.00000000000E+00 0.  1.
         12    1    6    6    0    0  0.30303215331E+02 -0.19290256017E+02 -0.30059637370E+02  0.46839947005E+02  0.00000000000E+00 0. -1.
         -5    1    3    3    0  503  0.10802019245E+02 -0.21498046426E+02  0.94191694005E+02  0.97329414051E+02  0.47000000000E+01 0.  1.
         11    1    4    4    0    0 -0.72022615278E+02  0.10031676720E+02  0.34421102036E+02  0.80453116252E+02  0.00000000000E+00 0. -1.
        -12    1    4    4    0    0 -0.48133854557E+02 -0.62654342861E+02  0.12242179558E+02  0.79951895501E+02  0.00000000000E+00 0.  1.
<mgrwt>
<rscale>  2 0.21755039E+03</rscale>
<asrwt>0</asrwt>
<pdfrwt beam="1">  1       21 0.54321665E-01 0.21812352E+03</pdfrwt>
<pdfrwt beam="2">  1       21 0.20889064E-01 0.21812352E+03</pdfrwt>
<totfact> 0.67371135E+04</totfact>
</mgrwt>
</event>
<event>
12    1  0.1026879E-001  0.2289927E+03  0.7546771E-02  0.1127610E+00
         21   -1    0    0  503  502  0.00000000000E+00  0.00000000000E+00  0.51942684261E+03  0.51942684261E+03  0.00000000000E+00 0. -1.
         21   -1    0    0  501  503 -0.00000000000E+00 -0.00000000000E+00 -0.10101400201E+03  0.10101400201E+03  0.00000000000E+00 0. -1.
          6    2    1    2  501    0  0.14753030298E+03 -0.17744234744E+02  0.18266996063E+03  0.29178853003E+03  0.17231420017E+03 0.  0.
         24    2    3    3    0    0  0.72874226551E+02 -0.58761722962E+02  0.16189104895E+03  0.20398296496E+03  0.81466221730E+02 0.  0.
         -6    2    1    2    0  502 -0.14753030298E+03  0.17744234744E+02  0.23574287997E+03  0.32865231459E+03  0.17423429703E+03 0.  0.
        -24    2    5    5    0    0 -0.17261152890E+03  0.11730994907E+02  0.15969303734E+03  0.24821043799E+03  0.78576072689E+02 0.  0.
          5    1    3    3  501    0  0.74656076426E+02  0.41017488219E+02  0.20778911679E+02  0.87805565072E+02  0.47000000000E+01 0. -1.
        -11    1    4    4    0    0  0.69854636153E+02 -0.69333316094E+02  0.97071698192E+02  0.13823781502E+03  0.00000000000E+00 0.  1.
         12    1    4    4    0    0  0.30195903979E+01  0.10571593132E+02  0.64819350757E+02  0.65745149935E+02  0.00000000000E+00 0. -1.
         -5    1    5    5    0  502  0.25081225921E+02  0.60132398365E+01  0.76049842629E+02  0.80441876600E+02  0.47000000000E+01 0.  1.
         11    1    6    6    0    0 -0.13977606181E+03 -0.18195025262E+02  0.95951868371E+02  0.17051442004E+03  0.00000000000E+00 0. -1.
        -12    1    6    6    0    0 -0.32835467090E+02  0.29926020170E+02  0.63741168971E+02  0.77696017942E+02  0.00000000000E+00 0.  1.
<mgrwt>
<rscale>  2 0.22862740E+03</rscale>
<asrwt>0</asrwt>
<pdfrwt beam="1">  1       21 0.79911820E-01 0.22899266E+03</pdfrwt>
<pdfrwt beam="2">  1       21 0.15540616E-01 0.22899266E+03</pdfrwt>
<totfact> 0.49834692E+04</totfact>
</mgrwt>
</event>
<event>
12    1  0.1026879E-001  0.2930581E+03  0.7546771E-02  0.1088804E+00
         21   -1    0    0  503  502  0.00000000000E+00  0.00000000000E+00  0.52226660478E+02  0.52226660478E+02  0.00000000000E+00 0.  1.
         21   -1    0    0  501  503 -0.00000000000E+00 -0.00000000000E+00 -0.16435469622E+04  0.16435469622E+04  0.00000000000E+00 0. -1.
          6    2    1    2  501    0 -0.91336460138E+02 -0.21814919658E+03 -0.81489434306E+03  0.86588186141E+03  0.17253169749E+03 0.  0.
         24    2    3    3    0    0 -0.73935020577E+02 -0.77675877070E+02 -0.54094022541E+03  0.55748518151E+03  0.81691315265E+02 0.  0.
         -6    2    1    2    0  502  0.91336460138E+02  0.21814919658E+03 -0.77642595866E+03  0.82989176127E+03  0.17306543624E+03 0.  0.
        -24    2    5    5    0    0  0.29802895206E+02  0.19858840308E+03 -0.67514947244E+03  0.70969184065E+03  0.86661018625E+02 0.  0.
          5    1    3    3  501    0 -0.17401439561E+02 -0.14047331951E+03 -0.27395411765E+03  0.30839667990E+03  0.47000000000E+01 0. -1.
        -11    1    4    4    0    0  0.12261596921E+02 -0.37975256024E+02 -0.16186300861E+03  0.16670962895E+03  0.00000000000E+00 0.  1.
         12    1    4    4    0    0 -0.86196617498E+02 -0.39700621046E+02 -0.37907721680E+03  0.39077555256E+03  0.00000000000E+00 0. -1.
         -5    1    5    5    0  502  0.61533564932E+02  0.19560793502E+02 -0.10127648622E+03  0.12019992062E+03  0.47000000000E+01 0.  1.
         11    1    6    6    0    0  0.46125059905E+02  0.86750997774E+02 -0.40711063963E+03  0.41879867439E+03  0.00000000000E+00 0. -1.
        -12    1    6    6    0    0 -0.16322164699E+02  0.11183740531E+03 -0.26803883281E+03  0.29089316627E+03  0.00000000000E+00 0.  1.
<mgrwt>
<rscale>  2 0.29297938E+03</rscale>
<asrwt>0</asrwt>
<pdfrwt beam="1">  1       21 0.80348717E-02 0.29305813E+03</pdfrwt>
<pdfrwt beam="2">  1       21 0.25285335E+00 0.29305813E+03</pdfrwt>
<totfact> 0.70200990E+03</totfact>
</mgrwt>
</event>
<event>
12    1  0.1026879E-001  0.1841668E+03  0.7546771E-02  0.1164370E+00
         21   -1    0    0  501  502  0.00000000000E+00  0.00000000000E+00  0.23322503097E+03  0.23322503097E+03  0.00000000000E+00 0.  1.
         21   -1    0    0  502  503 -0.00000000000E+00 -0.00000000000E+00 -0.18003141620E+03  0.18003141620E+03  0.00000000000E+00 0.  1.
         -6    2    1    2    0  503  0.10252034287E+02  0.51784029502E+02 -0.66179384813E+02  0.19569653314E+03  0.17643903250E+03 0.  0.
        -24    2    3    3    0    0  0.71162089870E+02  0.38710774233E+02 -0.65360588043E+02  0.13321689404E+03  0.83139444977E+02 0.  0.
          6    2    1    2  501    0 -0.10252034287E+02 -0.51784029502E+02  0.11937299958E+03  0.21755991403E+03  0.17405663804E+03 0.  0.
         24    2    5    5    0    0  0.38961595750E+01 -0.18417462392E+02 -0.19278570334E+02  0.74172860820E+02  0.69105477552E+02 0.  0.
          5    1    5    5  501    0 -0.14148193862E+02 -0.33366567110E+02  0.13865156991E+03  0.14338705321E+03  0.47000000000E+01 0. -1.
        -13    1    6    6    0    0  0.20208896742E+02 -0.20256802317E+02  0.17747605155E+02  0.33670685119E+02  0.00000000000E+00 0.  1.
         14    1    6    6    0    0 -0.16312737167E+02  0.18393399243E+01 -0.37026175488E+02  0.40502175701E+02  0.00000000000E+00 0. -1.
         -5    1    3    3    0  503 -0.60910055583E+02  0.13073255269E+02 -0.81879677002E+00  0.62479639104E+02  0.47000000000E+01 0.  1.
         11    1    4    4    0    0  0.40143273191E+02 -0.49340026773E+01 -0.68533740775E+02  0.79578265811E+02  0.00000000000E+00 0. -1.
        -12    1    4    4    0    0  0.31018816679E+02  0.43644776910E+02  0.31731527316E+01  0.53638628226E+02  0.00000000000E+00 0.  1.
<mgrwt>
<rscale>  2 0.18359388E+03</rscale>
<asrwt>0</asrwt>
<pdfrwt beam="1">  1       21 0.35880774E-01 0.18416683E+03</pdfrwt>
<pdfrwt beam="2">  1       21 0.27697141E-01 0.18416683E+03</pdfrwt>
<totfact> 0.93496540E+04</totfact>
</mgrwt>
</event>
<event>
12    1  0.1026879E-001  0.1793688E+03  0.7546771E-02  0.1168419E+00
         21   -1    0    0  503  502  0.00000000000E+00  0.00000000000E+00  0.28736734154E+02  0.28736734154E+02  0.00000000000E+00 0. -1.
         21   -1    0    0  501  503 -0.00000000000E+00 -0.00000000000E+00 -0.11233811055E+04  0.11233811055E+04  0.00000000000E+00 0. -1.
          6    2    1    2  501    0 -0.34508389825E+02 -0.32308325743E+02 -0.58124316436E+03  0.60829004817E+03  0.17302748251E+03 0.  0.
         24    2    3    3    0    0  0.20120543739E+02 -0.66215817270E+02 -0.26502266604E+03  0.28556488348E+03  0.80752203845E+02 0.  0.
         -6    2    1    2    0  502  0.34508389825E+02  0.32308325743E+02 -0.51340120695E+03  0.54382779145E+03  0.17301216887E+03 0.  0.
        -24    2    5    5    0    0 -0.73310808003E+01  0.49956161829E+02 -0.14431022892E+03  0.17192427240E+03  0.78633010995E+02 0.  0.
          5    1    3    3  501    0 -0.54628933564E+02  0.33907491527E+02 -0.31622049832E+03  0.32272516469E+03  0.47000000000E+01 0. -1.
        -11    1    4    4    0    0  0.31973985357E+01  0.57488563404E+00  0.55097330344E+01  0.63961714328E+01  0.00000000000E+00 0.  1.
         12    1    4    4    0    0  0.16923145204E+02 -0.66790702904E+02 -0.27053239908E+03  0.27916871205E+03  0.00000000000E+00 0. -1.
         -5    1    5    5    0  502  0.41839470626E+02 -0.17647836086E+02 -0.36909097803E+03  0.37190351905E+03  0.47000000000E+01 0.  1.
         13    1    6    6    0    0 -0.14384071911E+02 -0.10262964595E+02 -0.26932581787E+01  0.17874104359E+02  0.00000000000E+00 0. -1.
        -14    1    6    6    0    0  0.70529911106E+01  0.60219126424E+02 -0.14161697074E+03  0.15405016804E+03  0.00000000000E+00 0.  1.
<mgrwt>
<rscale>  2 0.17936511E+03</rscale>
<asrwt>0</asrwt>
<pdfrwt beam="1">  1       21 0.44210361E-02 0.17936880E+03</pdfrwt>
<pdfrwt beam="2">  1       21 0.17282786E+00 0.17936880E+03</pdfrwt>
<totfact> 0.68033081E+04</totfact>
</mgrwt>
</event>
<event>
12    1  0.1026879E-001  0.1981946E+03  0.7546771E-02  0.1151285E+00
         21   -1    0    0  503  502  0.00000000000E+00  0.00000000000E+00  0.11609840310E+03  0.11609840310E+03  0.00000000000E+00 0. -1.
         21   -1    0    0  501  503 -0.00000000000E+00 -0.00000000000E+00 -0.57362402608E+03  0.57362402608E+03  0.00000000000E+00 0. -1.
          6    2    1    2  501    0 -0.36018342352E+02  0.90117953966E+02 -0.44965715065E+03  0.49137166228E+03  0.17273097797E+03 0.  0.
         24    2    3    3    0    0 -0.14892101448E+02  0.36888083346E+02 -0.88285145019E+02  0.12545971436E+03  0.79770719672E+02 0.  0.
         -6    2    1    2    0  502  0.36018342352E+02 -0.90117953966E+02 -0.78684723297E+01  0.19835076690E+03  0.17280783333E+03 0.  0.
        -24    2    5    5    0    0  0.35196533961E+01 -0.35271901303E+02 -0.69799325232E+02  0.10934641410E+03  0.76342632201E+02 0.  0.
          5    1    3    3  501    0 -0.21126240904E+02  0.53229870619E+02 -0.36137200563E+03  0.36591194792E+03  0.47000000000E+01 0. -1.
        -11    1    4    4    0    0  0.23005625853E+02 -0.10870306274E+02 -0.41211453587E+02  0.48433524403E+02  0.00000000000E+00 0.  1.
         12    1    4    4    0    0 -0.37897727301E+02  0.47758389620E+02 -0.47073691432E+02  0.77026189954E+02  0.00000000000E+00 0. -1.
         -5    1    5    5    0  502  0.32498688956E+02 -0.54846052662E+02  0.61930852902E+02  0.89004352802E+02  0.47000000000E+01 0.  1.
         13    1    6    6    0    0  0.36295499880E+02 -0.12541156372E+02 -0.14249109297E+02  0.40959504763E+02  0.00000000000E+00 0. -1.
        -14    1    6    6    0    0 -0.32775846484E+02 -0.22730744931E+02 -0.55550215935E+02  0.68386909334E+02  0.00000000000E+00 0.  1.
<mgrwt>
<rscale>  2 0.19817788E+03</rscale>
<asrwt>0</asrwt>
<pdfrwt beam="1">  1       21 0.17861292E-01 0.19819464E+03</pdfrwt>
<pdfrwt beam="2">  1       21 0.88249852E-01 0.19819464E+03</pdfrwt>
<totfact> 0.31212000E+04</totfact>
</mgrwt>
</event>
<event>
12    1  0.1026879E-001  0.2026556E+03  0.7546771E-02  0.1148043E+00
         21   -1    0    0  503  502  0.00000000000E+00  0.00000000000E+00  0.10276338736E+03  0.10276338736E+03  0.00000000000E+00 0. -1.
         21   -1    0    0  501  503 -0.00000000000E+00 -0.00000000000E+00 -0.40630903194E+03  0.40630903194E+03  0.00000000000E+00 0. -1.
          6    2    1    2  501    0 -0.16827597804E+02  0.10178723768E+03 -0.10783130530E+03  0.22733958067E+03  0.17149893508E+03 0.  0.
         24    2    3    3    0    0  0.13935035984E+02  0.97601410636E+02 -0.13559036673E+03  0.18542876730E+03  0.79239255470E+02 0.  0.
         -6    2    1    2    0  502  0.16827597804E+02 -0.10178723768E+03 -0.19571433928E+03  0.28173283862E+03  0.17442901123E+03 0.  0.
        -24    2    5    5    0    0 -0.53161497207E+02 -0.61926313392E+02 -0.15140035299E+03  0.18968292778E+03  0.79978329129E+02 0.  0.
          5    1    3    3  501    0 -0.30762633787E+02  0.41858270415E+01  0.27759061430E+02  0.41910813366E+02  0.47000000000E+01 0. -1.
        -11    1    4    4    0    0  0.23542172434E+02  0.71363032618E+02 -0.13825774541E+03  0.15735984390E+03  0.00000000000E+00 0.  1.
         12    1    4    4    0    0 -0.96071364502E+01  0.26238378018E+02  0.26673786800E+01  0.28068923399E+02  0.00000000000E+00 0. -1.
         -5    1    5    5    0  502  0.69989095011E+02 -0.39860924286E+02 -0.44313986291E+02  0.92049910844E+02  0.47000000000E+01 0.  1.
         13    1    6    6    0    0 -0.59894019610E+02 -0.51283362746E+02 -0.64487002800E+02  0.10186191835E+03  0.00000000000E+00 0. -1.
        -14    1    6    6    0    0  0.67325224023E+01 -0.10642950646E+02 -0.86913350190E+02  0.87821009432E+02  0.00000000000E+00 0.  1.
<mgrwt>
<rscale>  2 0.20202354E+03</rscale>
<asrwt>0</asrwt>
<pdfrwt beam="1">  1       21 0.15809752E-01 0.20265559E+03</pdfrwt>
<pdfrwt beam="2">  1       21 0.62509081E-01 0.20265559E+03</pdfrwt>
<totfact> 0.84184304E+04</totfact>
</mgrwt>
</event>
<event>
12    1  0.1026879E-001  0.3925225E+03  0.7546771E-02  0.1046476E+00
         21   -1    0    0  501  502  0.00000000000E+00  0.00000000000E+00  0.43920852064E+03  0.43920852064E+03  0.00000000000E+00 0. -1.
         21   -1    0    0  502  503 -0.00000000000E+00 -0.00000000000E+00 -0.35997435630E+03  0.35997435630E+03  0.00000000000E+00 0.  1.
         -6    2    1    2    0  503 -0.21802073104E+03  0.27539357232E+03 -0.26835561802E+02  0.39258143000E+03  0.17327831070E+03 0.  0.
        -24    2    3    3    0    0 -0.46363402685E+02  0.60420513005E+02  0.22602035423E+02  0.11303569022E+03  0.80411515076E+02 0.  0.
          6    2    1    2  501    0  0.21802073104E+03 -0.27539357232E+03  0.10606972614E+03  0.40660144695E+03  0.17521213148E+03 0.  0.
         24    2    5    5    0    0  0.20636489609E+03 -0.14953673481E+03  0.73809651749E+02  0.27606944154E+03  0.76280839437E+02 0.  0.
          5    1    5    5  501    0  0.11655834951E+02 -0.12585683751E+03  0.32260074392E+02  0.13053200541E+03  0.47000000000E+01 0. -1.
        -11    1    6    6    0    0  0.95411108172E+02 -0.23991639280E+02  0.30788041477E+02  0.10308628335E+03  0.00000000000E+00 0.  1.
         12    1    6    6    0    0  0.11095378791E+03 -0.12554509553E+03  0.43021610272E+02  0.17298315819E+03  0.00000000000E+00 0. -1.
         -5    1    3    3    0  503 -0.17165732835E+03  0.21497305932E+03 -0.49437597225E+02  0.27954573978E+03  0.47000000000E+01 0.  1.
         13    1    4    4    0    0 -0.69537090199E+02  0.45831233178E+02  0.15065140890E+02  0.84633724472E+02  0.00000000000E+00 0. -1.
        -14    1    4    4    0    0  0.23173687514E+02  0.14589279828E+02  0.75368945333E+01  0.28401965743E+02  0.00000000000E+00 0.  1.
<mgrwt>
<rscale>  2 0.39230752E+03</rscale>
<asrwt>0</asrwt>
<pdfrwt beam="1">  1       21 0.67570542E-01 0.39252255E+03</pdfrwt>
<pdfrwt beam="2">  1       21 0.55380670E-01 0.39252255E+03</pdfrwt>
<totfact> 0.55359085E+03</totfact>
</mgrwt>
</event>
<event>
12    1  0.1026879E-001  0.1972349E+03  0.7546771E-02  0.1152252E+00
         21   -1    0    0  501  502  0.00000000000E+00  0.00000000000E+00  0.17305045058E+04  0.17305045058E+04  0.00000000000E+00 0.  1.
         21   -1    0    0  502  503 -0.00000000000E+00 -0.00000000000E+00 -0.23616120969E+02  0.23616120969E+02  0.00000000000E+00 0.  1.
         -6    2    1    2    0  503 -0.30925225540E+02 -0.88127411648E+02  0.65254537078E+03  0.68148797664E+03  0.17288027972E+03 0.  0.
        -24    2    3    3    0    0 -0.79738836783E+02 -0.37210076301E+02  0.49353264554E+03  0.50746935560E+03  0.78789610889E+02 0.  0.
          6    2    1    2  501    0  0.30925225540E+02  0.88127411648E+02  0.10543430140E+04  0.10726326501E+04  0.17372046682E+03 0.  0.
         24    2    5    5    0    0  0.63413282167E+02  0.11356436673E+03  0.74302279796E+03  0.75855482625E+03  0.80027722653E+02 0.  0.
          5    1    5    5  501    0 -0.32488056627E+02 -0.25436955081E+02  0.31132021605E+03  0.31407782384E+03  0.47000000000E+01 0. -1.
        -13    1    6    6    0    0  0.10282358534E+01  0.38366887056E+02  0.84309514251E+02  0.92634601984E+02  0.00000000000E+00 0.  1.
         14    1    6    6    0    0  0.62385046314E+02  0.75197479673E+02  0.65871328371E+03  0.66592022427E+03  0.00000000000E+00 0. -1.
         -5    1    3    3    0  503  0.48813611243E+02 -0.50917335347E+02  0.15901272524E+03  0.17401862104E+03  0.47000000000E+01 0.  1.
         11    1    4    4    0    0 -0.39934249496E+02 -0.44714419862E+01  0.69222086406E+02  0.80040210661E+02  0.00000000000E+00 0. -1.
        -12    1    4    4    0    0 -0.39804587286E+02 -0.32738634315E+02  0.42431055913E+03  0.42742914493E+03  0.00000000000E+00 0.  1.
<mgrwt>
<rscale>  2 0.19704975E+03</rscale>
<asrwt>0</asrwt>
<pdfrwt beam="1">  1       21 0.26623136E+00 0.19723491E+03</pdfrwt>
<pdfrwt beam="2">  1       21 0.36332507E-02 0.19723491E+03</pdfrwt>
<totfact> 0.24503568E+04</totfact>
</mgrwt>
</event>
<event>
12    1  0.1026879E-001  0.2197745E+03  0.7546771E-02  0.1134349E+00
         21   -1    0    0  501  502  0.00000000000E+00  0.00000000000E+00  0.41741313942E+02  0.41741313942E+02  0.00000000000E+00 0.  1.
         21   -1    0    0  502  503 -0.00000000000E+00 -0.00000000000E+00 -0.15971845306E+04  0.15971845306E+04  0.00000000000E+00 0. -1.
         -6    2    1    2    0  503  0.11439092518E+03  0.65424729033E+02 -0.12139374879E+04  0.12336713717E+04  0.17588391032E+03 0.  0.
        -24    2    3    3    0    0  0.11857299560E+03  0.71361735032E+02 -0.12151030407E+04  0.12249428973E+04  0.69696840858E+02 0.  0.
          6    2    1    2  501    0 -0.11439092518E+03 -0.65424729033E+02 -0.34150572875E+03  0.40525447282E+03  0.17389464064E+03 0.  0.
         24    2    5    5    0    0 -0.48033410072E+02 -0.11066318964E+02 -0.60609511513E+02  0.11151490890E+03  0.79576316344E+02 0.  0.
          5    1    5    5  501    0 -0.66357515107E+02 -0.54358410069E+02 -0.28089621723E+03  0.29373956392E+03  0.47000000000E+01 0. -1.
        -11    1    6    6    0    0  0.23664350398E+01  0.27795644423E+02 -0.29756852999E+02  0.40788088508E+02  0.00000000000E+00 0.  1.
         12    1    6    6    0    0 -0.50399845112E+02 -0.38861963388E+02 -0.30852658514E+02  0.70726820393E+02  0.00000000000E+00 0. -1.
         -5    1    3    3    0  503 -0.41820704217E+01 -0.59370059984E+01  0.11655527414E+01  0.87284744618E+01  0.47000000000E+01 0.  1.
         11    1    4    4    0    0  0.36379067551E+02  0.24457069930E+02 -0.68921874723E+03  0.69061137144E+03  0.00000000000E+00 0. -1.
        -12    1    4    4    0    0  0.82193928050E+02  0.46904665102E+02 -0.52588429343E+03  0.53433152583E+03  0.00000000000E+00 0.  1.
<mgrwt>
<rscale>  2 0.21937623E+03</rscale>
<asrwt>0</asrwt>
<pdfrwt beam="1">  1       21 0.64217412E-02 0.21977450E+03</pdfrwt>
<pdfrwt beam="2">  1       21 0.24572068E+00 0.21977450E+03</pdfrwt>
<totfact> 0.12074627E+04</totfact>
</mgrwt>
</event>
<event>
12    1  0.1026879E-001  0.2361482E+03  0.7546771E-02  0.1123088E+00
         21   -1    0    0  503  502  0.00000000000E+00  0.00000000000E+00  0.58469132418E+03  0.58469132418E+03  0.00000000000E+00 0.  1.
         21   -1    0    0  501  503 -0.00000000000E+00 -0.00000000000E+00 -0.96010532092E+02  0.96010532092E+02  0.00000000000E+00 0.  1.
          6    2    1    2  501    0  0.15348251302E+03 -0.43663736247E+02  0.19398755235E+03  0.30560949507E+03  0.17407638940E+03 0.  0.
         24    2    3    3    0    0  0.82044590455E+02 -0.73747387516E+02  0.18131920434E+03  0.22692671490E+03  0.80306214488E+02 0.  0.
         -6    2    1    2    0  502 -0.15348251302E+03  0.43663736247E+02  0.29469323975E+03  0.37509236121E+03  0.16848373873E+03 0.  0.
        -24    2    5    5    0    0 -0.83597491579E+02 -0.37581300781E+02  0.18359645200E+03  0.22066030977E+03  0.81132116661E+02 0.  0.
          5    1    3    3  501    0  0.71437922563E+02  0.30083651269E+02  0.12668348007E+02  0.78682780169E+02  0.47000000000E+01 0. -1.
        -13    1    4    4    0    0  0.78147667854E+01 -0.10749917691E+02 -0.69322372383E+01  0.14989570488E+02  0.00000000000E+00 0.  1.
         14    1    4    4    0    0  0.74229823670E+02 -0.62997469825E+02  0.18825144158E+03  0.21193714441E+03  0.00000000000E+00 0. -1.
         -5    1    5    5    0  502 -0.69885021440E+02  0.81245037028E+02  0.11109678774E+03  0.15443205143E+03  0.47000000000E+01 0.  1.
         11    1    6    6    0    0 -0.94743110378E+02 -0.24565140398E+02  0.17707617113E+03  0.20232566191E+03  0.00000000000E+00 0. -1.
        -12    1    6    6    0    0  0.11145618799E+02 -0.13016160382E+02  0.65202808791E+01  0.18334647863E+02  0.00000000000E+00 0.  1.
<mgrwt>
<rscale>  2 0.23511857E+03</rscale>
<asrwt>0</asrwt>
<pdfrwt beam="1">  1       21 0.89952509E-01 0.23614824E+03</pdfrwt>
<pdfrwt beam="2">  1       21 0.14770851E-01 0.23614824E+03</pdfrwt>
<totfact> 0.41530924E+04</totfact>
</mgrwt>
</event>
<event>
12    1  0.1026879E-001  0.2441134E+03  0.7546771E-02  0.1117215E+00
         21   -1    0    0  503  502  0.00000000000E+00  0.00000000000E+00  0.82168456928E+03  0.82168456928E+03  0.00000000000E+00 0. -1.
         21   -1    0    0  501  503 -0.00000000000E+00 -0.00000000000E+00 -0.72418433753E+02  0.72418433753E+02  0.00000000000E+00 0.  1.
          6    2    1    2  501    0  0.32640449677E+02 -0.16937260651E+03  0.35590058384E+03  0.43157454874E+03  0.17273936075E+03 0.  0.
         24    2    3    3    0    0 -0.40886876153E+02 -0.10079475381E+03  0.14751219469E+03  0.20015069461E+03  0.80430926495E+02 0.  0.
         -6    2    1    2    0  502 -0.32640449677E+02  0.16937260651E+03  0.39336555169E+03  0.46252845429E+03  0.17159147701E+03 0.  0.
        -24    2    5    5    0    0 -0.15329829477E+02  0.19063487844E+03  0.37914899343E+03  0.43128837894E+03  0.75359445625E+02 0.  0.
          5    1    3    3  501    0  0.73527325830E+02 -0.68577852707E+02  0.20838838916E+03  0.23142385413E+03  0.47000000000E+01 0. -1.
        -11    1    4    4    0    0 -0.23145820446E+02 -0.85582098070E+01 -0.69421839268E+00  0.24687120091E+02  0.00000000000E+00 0.  1.
         12    1    4    4    0    0 -0.17741055707E+02 -0.92236544000E+02  0.14820641308E+03  0.17546357452E+03  0.00000000000E+00 0. -1.
         -5    1    5    5    0  502 -0.17310620200E+02 -0.21262271925E+02  0.14216558264E+02  0.31240075352E+02  0.47000000000E+01 0.  1.
         11    1    6    6    0    0 -0.11338428485E+02  0.61872338979E+02  0.20653797971E+03  0.21590433843E+03  0.00000000000E+00 0. -1.
        -12    1    6    6    0    0 -0.39914009917E+01  0.12876253946E+03  0.17261101372E+03  0.21538404051E+03  0.00000000000E+00 0.  1.
<mgrwt>
<rscale>  2 0.24391045E+03</rscale>
<asrwt>0</asrwt>
<pdfrwt beam="1">  1       21 0.12641300E+00 0.24411343E+03</pdfrwt>
<pdfrwt beam="2">  1       21 0.11141298E-01 0.24411343E+03</pdfrwt>
<totfact> 0.30204500E+04</totfact>
</mgrwt>
</event>
<event>
12    1  0.1026879E-001  0.2448852E+03  0.7546771E-02  0.1116626E+00
         21   -1    0    0  503  502  0.00000000000E+00  0.00000000000E+00  0.89643087765E+02  0.89643087765E+02  0.00000000000E+00 0.  1.
         21   -1    0    0  501  503 -0.00000000000E+00 -0.00000000000E+00 -0.67088917359E+03  0.67088917359E+03  0.00000000000E+00 0.  1.
          6    2    1    2  501    0  0.20008017708E+02  0.17206316164E+03 -0.31449457733E+03  0.39842019449E+03  0.17270136029E+03 0.  0.
         24    2    3    3    0    0  0.50309402306E+02  0.63438940042E+02 -0.23181474935E+03  0.25850793849E+03  0.80825374556E+02 0.  0.
         -6    2    1    2    0  502 -0.20008017708E+02 -0.17206316164E+03 -0.26675150849E+03  0.36211206686E+03  0.17309745613E+03 0.  0.
        -24    2    5    5    0    0 -0.59652809676E+02 -0.17824258576E+03 -0.21589741279E+03  0.29716498176E+03  0.79790077437E+02 0.  0.
          5    1    3    3  501    0 -0.30301384599E+02  0.10862422159E+03 -0.82679827986E+02  0.13991225601E+03  0.47000000000E+01 0. -1.
        -13    1    4    4    0    0  0.33652949322E+02  0.48561807262E+02 -0.56411388436E+02  0.81688523477E+02  0.00000000000E+00 0.  1.
         14    1    4    4    0    0  0.16656452984E+02  0.14877132781E+02 -0.17540336091E+03  0.17681941501E+03  0.00000000000E+00 0. -1.
         -5    1    5    5    0  502  0.39644791968E+02  0.61794241238E+01 -0.50854095707E+02  0.64947085100E+02  0.47000000000E+01 0.  1.
         13    1    6    6    0    0 -0.30738090255E+02 -0.11982353851E+02 -0.54168110532E+02  0.63423900817E+02  0.00000000000E+00 0. -1.
        -14    1    6    6    0    0 -0.28914719421E+02 -0.16626023191E+03 -0.16172930225E+03  0.23374108094E+03  0.00000000000E+00 0.  1.
<mgrwt>
<rscale>  2 0.24481526E+03</rscale>
<asrwt>0</asrwt>
<pdfrwt beam="1">  1       21 0.13791245E-01 0.24488524E+03</pdfrwt>
<pdfrwt beam="2">  1       21 0.10321372E+00 0.24488524E+03</pdfrwt>
<totfact> 0.33857483E+04</totfact>
</mgrwt>
</event>
<event>
12    1  0.1026879E-001  0.2032458E+03  0.7546771E-02  0.1147055E+00
         21   -1    0    0  503  502  0.00000000000E+00  0.00000000000E+00  0.41251467690E+02  0.41251467690E+02  0.00000000000E+00 0. -1.
         21   -1    0    0  501  503 -0.00000000000E+00 -0.00000000000E+00 -0.10260208125E+04  0.10260208125E+04  0.00000000000E+00 0.  1.
          6    2    1    2  501    0 -0.91812764139E+02  0.50258003042E+02 -0.40881239062E+03  0.45654837673E+03  0.17422226908E+03 0.  0.
         24    2    3    3    0    0 -0.80893540449E+02 -0.32659407904E+02 -0.25444642854E+03  0.28091960138E+03  0.81008861425E+02 0.  0.
         -6    2    1    2    0  502  0.91812764139E+02 -0.50258003042E+02 -0.57595695423E+03  0.61072390350E+03  0.17407418720E+03 0.  0.
        -24    2    5    5    0    0 -0.50344812809E+01 -0.64540853420E+02 -0.25413203499E+03  0.27430636917E+03  0.80436466835E+02 0.  0.
          5    1    3    3  501    0 -0.10919223690E+02  0.82917410946E+02 -0.15436596207E+03  0.17562877535E+03  0.47000000000E+01 0. -1.
        -13    1    4    4    0    0 -0.46341175674E+02 -0.13617522907E+02 -0.22884999493E+03  0.23389155964E+03  0.00000000000E+00 0.  1.
         14    1    4    4    0    0 -0.34552364775E+02 -0.19041884997E+02 -0.25596433615E+02  0.47028041736E+02  0.00000000000E+00 0. -1.
         -5    1    5    5    0  502  0.96847245420E+02  0.14282850379E+02 -0.32182491924E+03  0.33641753433E+03  0.47000000000E+01 0.  1.
         13    1    6    6    0    0 -0.19224068589E+02  0.64609760247E+01 -0.17312081896E+02  0.26664905848E+02  0.00000000000E+00 0. -1.
        -14    1    6    6    0    0  0.14189587308E+02 -0.71001829445E+02 -0.23681995310E+03  0.24764146333E+03  0.00000000000E+00 0.  1.
<mgrwt>
<rscale>  2 0.20321405E+03</rscale>
<asrwt>0</asrwt>
<pdfrwt beam="1">  1       21 0.63463794E-02 0.20324579E+03</pdfrwt>
<pdfrwt beam="2">  1       21 0.15784936E+00 0.20324579E+03</pdfrwt>
<totfact> 0.46457094E+04</totfact>
</mgrwt>
</event>
<event>
12    1  0.1026879E-001  0.1753098E+03  0.7546771E-02  0.1172938E+00
         21   -1    0    0  501  502  0.00000000000E+00  0.00000000000E+00  0.48330291851E+03  0.48330291851E+03  0.00000000000E+00 0. -1.
         21   -1    0    0  502  503 -0.00000000000E+00 -0.00000000000E+00 -0.85407880952E+02  0.85407880952E+02  0.00000000000E+00 0. -1.
         -6    2    1    2    0  503  0.19384104058E+02 -0.71341203338E+01  0.51944454697E+02  0.18087663885E+03  0.17202178044E+03 0.  0.
        -24    2    3    3    0    0  0.50479687924E+02  0.56197911201E+02  0.30172523202E+02  0.10689023094E+03  0.69345051718E+02 0.  0.
          6    2    1    2  501    0 -0.19384104058E+02  0.71341203338E+01  0.34595058286E+03  0.38783416062E+03  0.17408874516E+03 0.  0.
         24    2    5    5    0    0 -0.15623493257E+01  0.41840064335E+02  0.33313198235E+03  0.34649986481E+03  0.85628305662E+02 0.  0.
          5    1    5    5  501    0 -0.17821754732E+02 -0.34705944002E+02  0.12818600519E+02  0.41334295809E+02  0.47000000000E+01 0. -1.
        -13    1    6    6    0    0  0.31199503783E+02  0.17155874385E+02  0.26183461366E+03  0.26424439062E+03  0.00000000000E+00 0.  1.
         14    1    6    6    0    0 -0.32761853109E+02  0.24684189950E+02  0.71297368684E+02  0.82255474188E+02  0.00000000000E+00 0. -1.
         -5    1    3    3    0  503 -0.31095583866E+02 -0.63332031535E+02  0.21771931495E+02  0.73986407909E+02  0.47000000000E+01 0.  1.
         11    1    4    4    0    0  0.16755932840E+02  0.84939440653E+01 -0.21743677059E+02  0.28734924102E+02  0.00000000000E+00 0. -1.
        -12    1    4    4    0    0  0.33723755084E+02  0.47703967136E+02  0.51916200260E+02  0.78155306838E+02  0.00000000000E+00 0.  1.
<mgrwt>
<rscale>  2 0.17479445E+03</rscale>
<asrwt>0</asrwt>
<pdfrwt beam="1">  1       21 0.74354294E-01 0.17530981E+03</pdfrwt>
<pdfrwt beam="2">  1       21 0.13139674E-01 0.17530981E+03</pdfrwt>
<totfact> 0.81412707E+04</totfact>
</mgrwt>
</event>
<event>
12    1  0.1026879E-001  0.1972442E+03  0.7546771E-02  0.1152429E+00
         21   -1    0    0  501  502  0.00000000000E+00  0.00000000000E+00  0.10133425259E+04  0.10133425259E+04  0.00000000000E+00 0.  1.
         21   -1    0    0  502  503 -0.00000000000E+00 -0.00000000000E+00 -0.90624109617E+02  0.90624109617E+02  0.00000000000E+00 0.  1.
         -6    2    1    2    0  503  0.50908250135E+02  0.78358148392E+02  0.41854292691E+02  0.20163593170E+03  0.17370554909E+03 0.  0.
        -24    2    3    3    0    0 -0.46269212597E+00  0.70073674750E+02 -0.26212808105E+02  0.11582901809E+03  0.88423504483E+02 0.  0.
          6    2    1    2  501    0 -0.50908250135E+02 -0.78358148392E+02  0.88086412357E+03  0.90233070380E+03  0.17189370400E+03 0.  0.
         24    2    5    5    0    0  0.29428816394E+02 -0.73386317324E+02  0.46911877063E+03  0.48276534652E+03  0.82087465768E+02 0.  0.
          5    1    5    5  501    0 -0.80337066529E+02 -0.49718310687E+01  0.41174535295E+03  0.41956535729E+03  0.47000000000E+01 0. -1.
        -13    1    6    6    0    0  0.10224477713E+02 -0.29909393184E+02  0.38381222992E+03  0.38511159367E+03  0.00000000000E+00 0.  1.
         14    1    6    6    0    0  0.19204338681E+02 -0.43476924140E+02  0.85306540713E+02  0.97653752848E+02  0.00000000000E+00 0. -1.
         -5    1    3    3    0  503  0.51370942261E+02  0.82844736424E+01  0.68067100797E+02  0.85806913610E+02  0.47000000000E+01 0.  1.
         11    1    4    4    0    0 -0.14551218093E+02  0.72996645161E+02  0.11636579355E+02  0.75336963914E+02  0.00000000000E+00 0. -1.
        -12    1    4    4    0    0  0.14088525967E+02 -0.29229704107E+01 -0.37849387461E+02  0.40492054172E+02  0.00000000000E+00 0.  1.
<mgrwt>
<rscale>  2 0.19684453E+03</rscale>
<asrwt>0</asrwt>
<pdfrwt beam="1">  1       21 0.15589884E+00 0.19724418E+03</pdfrwt>
<pdfrwt beam="2">  1       21 0.13942171E-01 0.19724418E+03</pdfrwt>
<totfact> 0.12048876E+04</totfact>
</mgrwt>
</event>
<event>
12    1  0.1026879E-001  0.2201850E+03  0.7546771E-02  0.1134619E+00
         21   -1    0    0  503  502  0.00000000000E+00  0.00000000000E+00  0.21292151320E+03  0.21292151320E+03  0.00000000000E+00 0. -1.
         21   -1    0    0  501  503 -0.00000000000E+00 -0.00000000000E+00 -0.22318180346E+03  0.22318180346E+03  0.00000000000E+00 0. -1.
          6    2    1    2  501    0  0.16551120038E+01 -0.13169882077E+03  0.23761869359E+01  0.21555605656E+03  0.17062077385E+03 0.  0.
         24    2    3    3    0    0 -0.30140600851E+02 -0.15377836769E+03 -0.20811107570E+01  0.17630772856E+03  0.80770303561E+02 0.  0.
         -6    2    1    2    0  502 -0.16551120038E+01  0.13169882077E+03 -0.12636477200E+02  0.22054726009E+03  0.17644856075E+03 0.  0.
        -24    2    5    5    0    0 -0.62595177217E+02  0.48656436831E+02  0.15482144977E+02  0.11367127593E+03  0.79974102699E+02 0.  0.
          5    1    3    3  501    0  0.31795712855E+02  0.22079546925E+02  0.44572976929E+01  0.39248328004E+02  0.47000000000E+01 0. -1.
        -11    1    4    4    0    0 -0.55145739509E+02 -0.74471498367E+02  0.53511810100E+01  0.92820750876E+02  0.00000000000E+00 0.  1.
         12    1    4    4    0    0  0.25005138658E+02 -0.79306869326E+02 -0.74322917670E+01  0.83486977682E+02  0.00000000000E+00 0. -1.
         -5    1    5    5    0  502  0.60940065213E+02  0.83042383937E+02 -0.28118622176E+02  0.10687598416E+03  0.47000000000E+01 0.  1.
         11    1    6    6    0    0 -0.27181898523E+02 -0.19164377545E+02  0.16561225767E+02  0.37153777370E+02  0.00000000000E+00 0. -1.
        -12    1    6    6    0    0 -0.35413278694E+02  0.67820814375E+02 -0.10790807907E+01  0.76517498559E+02  0.00000000000E+00 0.  1.
<mgrwt>
<rscale>  2 0.21901517E+03</rscale>
<asrwt>0</asrwt>
<pdfrwt beam="1">  1       21 0.32757156E-01 0.22018495E+03</pdfrwt>
<pdfrwt beam="2">  1       21 0.34335662E-01 0.22018495E+03</pdfrwt>
<totfact> 0.72462026E+04</totfact>
</mgrwt>
</event>
<event>
12    1  0.1026879E-001  0.1734880E+03  0.7546771E-02  0.1174333E+00
         21   -1    0    0  501  502  0.00000000000E+00  0.00000000000E+00  0.11130646400E+03  0.11130646400E+03  0.00000000000E+00 0.  1.
         21   -1    0    0  502  503 -0.00000000000E+00 -0.00000000000E+00 -0.56445074243E+03  0.56445074243E+03  0.00000000000E+00 0.  1.
         -6    2    1    2    0  503 -0.10406098638E+02 -0.20549553699E+01 -0.47072120005E+03  0.50167373703E+03  0.17316345030E+03 0.  0.
        -24    2    3    3    0    0  0.17871426535E+02  0.61783876702E+02 -0.27311864552E+03  0.29204579408E+03  0.80995777674E+02 0.  0.
          6    2    1    2  501    0  0.10406098638E+02  0.20549553699E+01  0.17576921619E+02  0.17408346939E+03  0.17286872595E+03 0.  0.
         24    2    5    5    0    0  0.11997552997E+02  0.63730653563E+02 -0.20499640142E+02  0.10143129097E+03  0.75249811028E+02 0.  0.
          5    1    5    5  501    0 -0.15914543598E+01 -0.61675698193E+02  0.38076561761E+02  0.72652178426E+02  0.47000000000E+01 0. -1.
        -13    1    6    6    0    0 -0.71398613907E+00  0.27023106294E+02  0.28247965235E+02  0.39098664809E+02  0.00000000000E+00 0.  1.
         14    1    6    6    0    0  0.12711539137E+02  0.36707547268E+02 -0.48747605377E+02  0.62332626157E+02  0.00000000000E+00 0. -1.
         -5    1    3    3    0  503 -0.28277525173E+02 -0.63838832072E+02 -0.19760255453E+03  0.20962794296E+03  0.47000000000E+01 0.  1.
         11    1    4    4    0    0 -0.49447766216E+01  0.71281813606E+00  0.45918719049E+01  0.67855886350E+01  0.00000000000E+00 0. -1.
        -12    1    4    4    0    0  0.22816203156E+02  0.61071058566E+02 -0.27771051742E+03  0.28526020544E+03  0.00000000000E+00 0.  1.
<mgrwt>
<rscale>  2 0.17341442E+03</rscale>
<asrwt>0</asrwt>
<pdfrwt beam="1">  1       21 0.17124071E-01 0.17348801E+03</pdfrwt>
<pdfrwt beam="2">  1       21 0.86838576E-01 0.17348801E+03</pdfrwt>
<totfact> 0.35485271E+04</totfact>
</mgrwt>
</event>
<event>
12    1  0.1026879E-001  0.2052603E+03  0.7546771E-02  0.1145438E+00
         21   -1    0    0  501  502  0.00000000000E+00  0.00000000000E+00  0.98836903423E+03  0.98836903423E+03  0.00000000000E+00 0. -1.
         21   -1    0    0  502  503 -0.00000000000E+00 -0.00000000000E+00 -0.45532128031E+02  0.45532128031E+02  0.00000000000E+00 0.  1.
         -6    2    1    2    0  503  0.10250193732E+03  0.40318300724E+02  0.60372935041E+03  0.63766834546E+03  0.17320386173E+03 0.  0.
        -24    2    3    3    0    0  0.32253205434E+02 -0.37251432551E+02  0.25608589405E+03  0.27458431854E+03  0.85957107713E+02 0.  0.
          6    2    1    2  501    0 -0.10250193732E+03 -0.40318300724E+02  0.33910755578E+03  0.39623281680E+03  0.17284182999E+03 0.  0.
         24    2    5    5    0    0  0.14680826930E+02 -0.17667048101E+01  0.12163641658E+03  0.14616520160E+03  0.79688144637E+02 0.  0.
          5    1    5    5  501    0 -0.11718276425E+03 -0.38551595913E+02  0.21747113921E+03  0.25006761520E+03  0.47000000000E+01 0. -1.
        -13    1    6    6    0    0  0.25407678366E+02  0.75394758251E+01  0.12791962380E+03  0.13063622762E+03  0.00000000000E+00 0.  1.
         14    1    6    6    0    0 -0.10726851436E+02 -0.93061806352E+01 -0.62832072201E+01  0.15528973975E+02  0.00000000000E+00 0. -1.
         -5    1    3    3    0  503  0.70248731890E+02  0.77569733274E+02  0.34764345636E+03  0.36308402692E+03  0.47000000000E+01 0.  1.
         11    1    4    4    0    0  0.42511491261E+02 -0.35685925585E+02  0.75532544969E+02  0.93733011920E+02  0.00000000000E+00 0. -1.
        -12    1    4    4    0    0 -0.10258285826E+02 -0.15655069654E+01  0.18055334909E+03  0.18085130662E+03  0.00000000000E+00 0.  1.
<mgrwt>
<rscale>  2 0.20518391E+03</rscale>
<asrwt>0</asrwt>
<pdfrwt beam="1">  1       21 0.15205676E+00 0.20526030E+03</pdfrwt>
<pdfrwt beam="2">  1       21 0.70049435E-02 0.20526030E+03</pdfrwt>
<totfact> 0.43244802E+04</totfact>
</mgrwt>
</event>
<event>
12    1  0.1026879E-001  0.2251256E+03  0.7546771E-02  0.1131304E+00
         21   -1    0    0  501  502  0.00000000000E+00  0.00000000000E+00  0.17180452845E+03  0.17180452845E+03  0.00000000000E+00 0. -1.
         21   -1    0    0  502  503 -0.00000000000E+00 -0.00000000000E+00 -0.46024314573E+03  0.46024314573E+03  0.00000000000E+00 0.  1.
         -6    2    1    2    0  503 -0.12506431661E+03 -0.74450114485E+02 -0.33701240155E+03  0.40174149096E+03  0.16320221788E+03 0.  0.
        -24    2    3    3    0    0 -0.10499108065E+03 -0.18632806315E+02 -0.30812263775E+03  0.33559608185E+03  0.79466104559E+02 0.  0.
          6    2    1    2  501    0  0.12506431661E+03  0.74450114485E+02  0.48573784279E+02  0.23030618322E+03  0.17174871958E+03 0.  0.
         24    2    5    5    0    0  0.92616794640E+02  0.11273368620E+03  0.61499469157E+02  0.17827122503E+03  0.81924906543E+02 0.  0.
          5    1    5    5  501    0  0.32447521965E+02 -0.38283571715E+02 -0.12925684879E+02  0.52034958197E+02  0.47000000000E+01 0. -1.
        -11    1    6    6    0    0  0.22479149757E+02  0.81862312746E+02  0.89716367091E+01  0.85365336567E+02  0.00000000000E+00 0.  1.
         12    1    6    6    0    0  0.70137644884E+02  0.30871373454E+02  0.52527832448E+02  0.92905888460E+02  0.00000000000E+00 0. -1.
         -5    1    3    3    0  503 -0.20073235955E+02 -0.55817308171E+02 -0.28889763804E+02  0.66145409106E+02  0.47000000000E+01 0.  1.
         13    1    4    4    0    0 -0.54305578058E+02 -0.27189113631E+02 -0.73190159532E+02  0.95105957546E+02  0.00000000000E+00 0. -1.
        -14    1    4    4    0    0 -0.50685502592E+02  0.85563073168E+01 -0.23493247822E+03  0.24049012431E+03  0.00000000000E+00 0.  1.
<mgrwt>
<rscale>  2 0.22349537E+03</rscale>
<asrwt>0</asrwt>
<pdfrwt beam="1">  1       21 0.26431466E-01 0.22512558E+03</pdfrwt>
<pdfrwt beam="2">  1       21 0.70806638E-01 0.22512558E+03</pdfrwt>
<totfact> 0.24155275E+04</totfact>
</mgrwt>
</event>
<event>
12    1  0.1026879E-001  0.2594370E+03  0.7546771E-02  0.1107520E+00
         21   -1    0    0  501  502  0.00000000000E+00  0.00000000000E+00  0.18984367757E+03  0.18984367757E+03  0.00000000000E+00 0. -1.
         21   -1    0    0  502  503 -0.00000000000E+00 -0.00000000000E+00 -0.55691405901E+03  0.55691405901E+03  0.00000000000E+00 0.  1.
         -6    2    1    2    0  503 -0.16655550154E+03 -0.98370069358E+02 -0.40874732426E+03  0.48399453649E+03  0.17250776975E+03 0.  0.
        -24    2    3    3    0    0 -0.45473122808E+02 -0.36971214402E+02 -0.27932680081E+03  0.29637118048E+03  0.79860749919E+02 0.  0.
          6    2    1    2  501    0  0.16655550154E+03  0.98370069358E+02  0.41676942808E+02  0.26276320009E+03  0.17288761124E+03 0.  0.
         24    2    5    5    0    0  0.75950751940E+02 -0.82930258397E+00 -0.25289455566E+02  0.11257556893E+03  0.79148579855E+02 0.  0.
          5    1    5    5  501    0  0.90604749602E+02  0.99199371942E+02  0.66966398374E+02  0.15018763117E+03  0.47000000000E+01 0. -1.
        -13    1    6    6    0    0  0.62078072856E+02  0.32779440594E+02 -0.37192960775E+01  0.70299445364E+02  0.00000000000E+00 0.  1.
         14    1    6    6    0    0  0.13872679083E+02 -0.33608743178E+02 -0.21570159488E+02  0.42276123561E+02  0.00000000000E+00 0. -1.
         -5    1    3    3    0  503 -0.12108237873E+03 -0.61398854956E+02 -0.12942052344E+03  0.18762335600E+03  0.47000000000E+01 0.  1.
         11    1    4    4    0    0 -0.37145082560E+02 -0.10791065556E+01 -0.41495855420E+02  0.55703030855E+02  0.00000000000E+00 0. -1.
        -12    1    4    4    0    0 -0.83280402476E+01 -0.35892107846E+02 -0.23783094539E+03  0.24066814963E+03  0.00000000000E+00 0.  1.
<mgrwt>
<rscale>  2 0.25937369E+03</rscale>
<asrwt>0</asrwt>
<pdfrwt beam="1">  1       21 0.29206720E-01 0.25943695E+03</pdfrwt>
<pdfrwt beam="2">  1       21 0.85679085E-01 0.25943695E+03</pdfrwt>
<totfact> 0.12697519E+04</totfact>
</mgrwt>
</event>
<event>
12    1  0.1026879E-001  0.2427622E+03  0.7546771E-02  0.1118220E+00
         21   -1    0    0  501  502  0.00000000000E+00  0.00000000000E+00  0.78422453937E+03  0.78422453937E+03  0.00000000000E+00 0. -1.
         21   -1    0    0  502  503 -0.00000000000E+00 -0.00000000000E+00 -0.11019177089E+03  0.11019177089E+03  0.00000000000E+00 0. -1.
         -6    2    1    2    0  503  0.16913687602E+03 -0.14268856878E+02  0.82388680418E+02  0.25490381272E+03  0.17139771286E+03 0.  0.
        -24    2    3    3    0    0  0.12386829093E+03  0.35301181127E+02  0.10438101369E+03  0.18410701769E+03  0.80065417365E+02 0.  0.
          6    2    1    2  501    0 -0.16913687602E+03  0.14268856878E+02  0.59164408807E+03  0.63951249753E+03  0.17355870605E+03 0.  0.
         24    2    5    5    0    0 -0.45156775299E+02 -0.16368990501E+02  0.11336109701E+03  0.14445042809E+03  0.75552032758E+02 0.  0.
          5    1    5    5  501    0 -0.12398010072E+03  0.30637847379E+02  0.47828299106E+03  0.49506206945E+03  0.47000000000E+01 0. -1.
        -11    1    6    6    0    0 -0.38756315187E+02 -0.36981277247E+02  0.11034066809E+03  0.12265696013E+03  0.00000000000E+00 0.  1.
         12    1    6    6    0    0 -0.64004601116E+01  0.20612286746E+02  0.30204289134E+01  0.21793467952E+02  0.00000000000E+00 0. -1.
         -5    1    3    3    0  503  0.45268585089E+02 -0.49570038005E+02 -0.21992333270E+02  0.70796795029E+02  0.47000000000E+01 0.  1.
         11    1    4    4    0    0  0.72532900889E+02 -0.18069803560E+02  0.34648302317E+02  0.82389588939E+02  0.00000000000E+00 0. -1.
        -12    1    4    4    0    0  0.51335390046E+02  0.53370984687E+02  0.69732711371E+02  0.10171742876E+03  0.00000000000E+00 0.  1.
<mgrwt>
<rscale>  2 0.24237627E+03</rscale>
<asrwt>0</asrwt>
<pdfrwt beam="1">  1       21 0.12064993E+00 0.24276224E+03</pdfrwt>
<pdfrwt beam="2">  1       21 0.16952581E-01 0.24276224E+03</pdfrwt>
<totfact> 0.15844298E+04</totfact>
</mgrwt>
</event>
<event>
12    1  0.1026879E-001  0.2401124E+03  0.7546771E-02  0.1120177E+00
         21   -1    0    0  501  502  0.00000000000E+00  0.00000000000E+00  0.39741308117E+03  0.39741308117E+03  0.00000000000E+00 0.  1.
         21   -1    0    0  502  503 -0.00000000000E+00 -0.00000000000E+00 -0.14410838798E+03  0.14410838798E+03  0.00000000000E+00 0.  1.
         -6    2    1    2    0  503  0.29594480991E+02 -0.16485190075E+03  0.10725590967E+03  0.26048018357E+03  0.16820854137E+03 0.  0.
        -24    2    3    3    0    0 -0.15731956111E+02 -0.62305337369E+02 -0.35646564749E+01  0.10276660952E+03  0.80117537081E+02 0.  0.
          6    2    1    2  501    0 -0.29594480991E+02  0.16485190075E+03  0.14604878351E+03  0.28104128558E+03  0.17205224365E+03 0.  0.
         24    2    5    5    0    0  0.72752851752E+01  0.18069668391E+02  0.82872474129E+02  0.11697502012E+03  0.80223847287E+02 0.  0.
          5    1    5    5  501    0 -0.36869766167E+02  0.14678223236E+03  0.63176309384E+02  0.16406626546E+03  0.47000000000E+01 0. -1.
        -13    1    6    6    0    0 -0.31024922462E+02  0.12429301808E+02  0.67500182765E+02  0.75321365033E+02  0.00000000000E+00 0.  1.
         14    1    6    6    0    0  0.38300207637E+02  0.56403665829E+01  0.15372291364E+02  0.41653655086E+02  0.00000000000E+00 0. -1.
         -5    1    3    3    0  503  0.45326437103E+02 -0.10254656338E+03  0.11082056615E+03  0.15771357406E+03  0.47000000000E+01 0.  1.
         11    1    4    4    0    0  0.25010587030E+02 -0.29573501225E+02  0.22046480062E+02  0.44566452870E+02  0.00000000000E+00 0. -1.
        -12    1    4    4    0    0 -0.40742543142E+02 -0.32731836145E+02 -0.25611136536E+02  0.58200156647E+02  0.00000000000E+00 0.  1.
<mgrwt>
<rscale>  2 0.23942467E+03</rscale>
<asrwt>0</asrwt>
<pdfrwt beam="1">  1       21 0.61140474E-01 0.24011238E+03</pdfrwt>
<pdfrwt beam="2">  1       21 0.22170521E-01 0.24011238E+03</pdfrwt>
<totfact> 0.46304102E+04</totfact>
</mgrwt>
</event>
<event>
12    1  0.1026879E-001  0.1778337E+03  0.7546771E-02  0.1170191E+00
         21   -1    0    0  503  502  0.00000000000E+00  0.00000000000E+00  0.74029407796E+03  0.74029407796E+03  0.00000000000E+00 0. -1.
         21   -1    0    0  501  503 -0.00000000000E+00 -0.00000000000E+00 -0.48014029847E+02  0.48014029847E+02  0.00000000000E+00 0. -1.
          6    2    1    2  501    0 -0.14216912366E+02  0.31996052164E+02  0.48125922703E+03  0.51306458013E+03  0.17435295188E+03 0.  0.
         24    2    3    3    0    0  0.40230221888E+02  0.48047419407E+02  0.40725120332E+03  0.41967606696E+03  0.79670780758E+02 0.  0.
         -6    2    1    2    0  502  0.14216912366E+02 -0.31996052164E+02  0.21102082108E+03  0.27524352768E+03  0.17321473565E+03 0.  0.
        -24    2    5    5    0    0  0.13363002126E+02 -0.22800315175E+02  0.23612018123E+03  0.24808917957E+03  0.71393815099E+02 0.  0.
          5    1    3    3  501    0 -0.54447134254E+02 -0.16051367243E+02  0.74008023706E+02  0.93388513168E+02  0.47000000000E+01 0. -1.
        -11    1    4    4    0    0 -0.11117358517E+02  0.96730447064E+01  0.11302073827E+02  0.18571492323E+02  0.00000000000E+00 0.  1.
         12    1    4    4    0    0  0.51347580405E+02  0.38374374701E+02  0.39594912950E+03  0.40110457464E+03  0.00000000000E+00 0. -1.
         -5    1    5    5    0  502  0.85391024007E+00 -0.91957369891E+01 -0.25099360150E+02  0.27154348112E+02  0.47000000000E+01 0.  1.
         13    1    6    6    0    0  0.23567142378E+02  0.11805174158E+02  0.35307401729E+02  0.44061150162E+02  0.00000000000E+00 0. -1.
        -14    1    6    6    0    0 -0.10204140252E+02 -0.34605489333E+02  0.20081277950E+03  0.20402802940E+03  0.00000000000E+00 0.  1.
<mgrwt>
<rscale>  2 0.17755408E+03</rscale>
<asrwt>0</asrwt>
<pdfrwt beam="1">  1       21 0.11389139E+00 0.17783369E+03</pdfrwt>
<pdfrwt beam="2">  1       21 0.73867744E-02 0.17783369E+03</pdfrwt>
<totfact> 0.83286905E+04</totfact>
</mgrwt>
</event>
<event>
12    1  0.1026879E-001  0.2310008E+03  0.7546771E-02  0.1126151E+00
         21   -1    0    0  501  502  0.00000000000E+00  0.00000000000E+00  0.28549985908E+03  0.28549985908E+03  0.00000000000E+00 0. -1.
         21   -1    0    0  502  503 -0.00000000000E+00 -0.00000000000E+00 -0.18802414657E+03  0.18802414657E+03  0.00000000000E+00 0.  1.
         -6    2    1    2    0  503 -0.13956877198E+03 -0.59470438410E+02  0.23560343466E+02  0.23098562159E+03  0.17257778664E+03 0.  0.
        -24    2    3    3    0    0 -0.56152338778E+02 -0.43437185597E+02 -0.49358418728E+02  0.11893829943E+03  0.81671239304E+02 0.  0.
          6    2    1    2  501    0  0.13956877198E+03  0.59470438410E+02  0.73915369042E+02  0.24253838405E+03  0.17419876808E+03 0.  0.
         24    2    5    5    0    0  0.12259160149E+03 -0.52820146563E+01  0.82550219039E+02  0.17487927431E+03  0.93336067455E+02 0.  0.
          5    1    5    5  501    0  0.16977170491E+02  0.64752453066E+02 -0.86348499969E+01  0.67659109737E+02  0.47000000000E+01 0. -1.
        -13    1    6    6    0    0  0.12293272170E+01 -0.30086684306E+02  0.12790796464E+02  0.32715811041E+02  0.00000000000E+00 0.  1.
         14    1    6    6    0    0  0.12136227427E+03  0.24804669649E+02  0.69759422574E+02  0.14216346327E+03  0.00000000000E+00 0. -1.
         -5    1    3    3    0  503 -0.83416433198E+02 -0.16033252813E+02  0.72918762194E+02  0.11204732216E+03  0.47000000000E+01 0.  1.
         13    1    4    4    0    0  0.43126239978E+01  0.92448838786E+01 -0.36274835358E+02  0.37681962315E+02  0.00000000000E+00 0. -1.
        -14    1    4    4    0    0 -0.60464962776E+02 -0.52682069476E+02 -0.13083583370E+02  0.81256337116E+02  0.00000000000E+00 0.  1.
<mgrwt>
<rscale>  2 0.23069525E+03</rscale>
<asrwt>0</asrwt>
<pdfrwt beam="1">  1       21 0.43923055E-01 0.23100084E+03</pdfrwt>
<pdfrwt beam="2">  1       21 0.28926792E-01 0.23100084E+03</pdfrwt>
<totfact> 0.55989389E+04</totfact>
</mgrwt>
</event>
<event>
12    1  0.1026879E-001  0.2438068E+03  0.7546771E-02  0.1117345E+00
         21   -1    0    0  503  502  0.00000000000E+00  0.00000000000E+00  0.58315102157E+03  0.58315102157E+03  0.00000000000E+00 0. -1.
         21   -1    0    0  501  503 -0.00000000000E+00 -0.00000000000E+00 -0.36699336069E+03  0.36699336069E+03  0.00000000000E+00 0. -1.
          6    2    1    2  501    0 -0.12217912087E+03  0.12163743724E+03 -0.29576090434E+03  0.38329659038E+03  0.17239013877E+03 0.  0.
         24    2    3    3    0    0 -0.13115038409E+03  0.53061677250E+02 -0.14802285804E+03  0.22010425371E+03  0.80741260579E+02 0.  0.
         -6    2    1    2    0  502  0.12217912087E+03 -0.12163743724E+03  0.51191856522E+03  0.56684779188E+03  0.17184992879E+03 0.  0.
        -24    2    5    5    0    0  0.15167609608E+03 -0.85921095229E+02  0.45554590577E+03  0.49373352947E+03  0.76567964153E+02 0.  0.
          5    1    3    3  501    0  0.89712632194E+01  0.68575759994E+02 -0.14773804630E+03  0.16319233667E+03  0.47000000000E+01 0. -1.
        -13    1    4    4    0    0  0.14951980905E+01  0.27677749302E+02 -0.22034674830E+02  0.35409325307E+02  0.00000000000E+00 0.  1.
         14    1    4    4    0    0 -0.13264558218E+03  0.25383927948E+02 -0.12598818321E+03  0.18469492840E+03  0.00000000000E+00 0. -1.
         -5    1    5    5    0  502 -0.29496975213E+02 -0.35716342015E+02  0.56372659452E+02  0.73114262407E+02  0.47000000000E+01 0.  1.
         13    1    6    6    0    0  0.96395298136E+01 -0.21756626922E+02  0.13759005376E+03  0.13963271194E+03  0.00000000000E+00 0. -1.
        -14    1    6    6    0    0  0.14203656627E+03 -0.64164468307E+02  0.31795585201E+03  0.35410081753E+03  0.00000000000E+00 0.  1.
<mgrwt>
<rscale>  2 0.24371134E+03</rscale>
<asrwt>0</asrwt>
<pdfrwt beam="1">  1       21 0.89715542E-01 0.24380682E+03</pdfrwt>
<pdfrwt beam="2">  1       21 0.56460517E-01 0.24380682E+03</pdfrwt>
<totfact> 0.30010396E+03</totfact>
</mgrwt>
</event>
<event>
12    1  0.1026879E-001  0.2197122E+03  0.7546771E-02  0.1134330E+00
         21   -1    0    0  501  502  0.00000000000E+00  0.00000000000E+00  0.80058507257E+03  0.80058507257E+03  0.00000000000E+00 0. -1.
         21   -1    0    0  502  503 -0.00000000000E+00 -0.00000000000E+00 -0.20064391730E+03  0.20064391730E+03  0.00000000000E+00 0. -1.
         -6    2    1    2    0  503 -0.56436179192E+02 -0.12144626676E+03 -0.11947633062E+03  0.24900894786E+03  0.17261698788E+03 0.  0.
        -24    2    3    3    0    0  0.48154183044E+01 -0.11801019634E+03 -0.93869542791E+02  0.18236540084E+03  0.10245024972E+03 0.  0.
          6    2    1    2  501    0  0.56436179192E+02  0.12144626676E+03  0.71941748589E+03  0.75222004201E+03  0.17418161374E+03 0.  0.
         24    2    5    5    0    0  0.10080880605E+03  0.63313473753E+02  0.42037619592E+03  0.44433023259E+03  0.80883856014E+02 0.  0.
          5    1    5    5  501    0 -0.44372626856E+02  0.58132793002E+02  0.29904128997E+03  0.30788980941E+03  0.47000000000E+01 0. -1.
        -11    1    6    6    0    0  0.25103820585E+02 -0.60821667011E+01  0.25420617012E+02  0.36240893049E+02  0.00000000000E+00 0.  1.
         12    1    6    6    0    0  0.75704985463E+02  0.69395640454E+02  0.39495557891E+03  0.40808933954E+03  0.00000000000E+00 0. -1.
         -5    1    3    3    0  503 -0.61251597496E+02 -0.34360704141E+01 -0.25606787833E+02  0.66643547016E+02  0.47000000000E+01 0.  1.
         11    1    4    4    0    0 -0.10850679976E+02 -0.81411462511E+02 -0.11178148051E+03  0.13871071649E+03  0.00000000000E+00 0. -1.
        -12    1    4    4    0    0  0.15666098280E+02 -0.36598733830E+02  0.17911937719E+02  0.43654684355E+02  0.00000000000E+00 0.  1.
<mgrwt>
<rscale>  2 0.21940202E+03</rscale>
<asrwt>0</asrwt>
<pdfrwt beam="1">  1       21 0.12316693E+00 0.21971225E+03</pdfrwt>
<pdfrwt beam="2">  1       21 0.30868295E-01 0.21971225E+03</pdfrwt>
<totfact> 0.48838814E+03</totfact>
</mgrwt>
</event>
<event>
12    1  0.1026879E-001  0.2108745E+03  0.7546771E-02  0.1141112E+00
         21   -1    0    0  503  502  0.00000000000E+00  0.00000000000E+00  0.18547598431E+03  0.18547598431E+03  0.00000000000E+00 0.  1.
         21   -1    0    0  501  503 -0.00000000000E+00 -0.00000000000E+00 -0.30748387389E+03  0.30748387389E+03  0.00000000000E+00 0. -1.
          6    2    1    2  501    0  0.11636750990E+03  0.24272984404E+02 -0.17770669926E+03  0.27485344360E+03  0.17272570557E+03 0.  0.
         24    2    3    3    0    0  0.82991848537E+02  0.35626690234E+02 -0.30306244563E+02  0.12322288780E+03  0.78156916755E+02 0.  0.
         -6    2    1    2    0  502 -0.11636750990E+03 -0.24272984404E+02  0.55698809682E+02  0.21810641460E+03  0.17417656432E+03 0.  0.
        -24    2    5    5    0    0 -0.62857863601E+02  0.14274037612E+02  0.95998381098E+02  0.14067708805E+03  0.80121749630E+02 0.  0.
          5    1    3    3  501    0  0.33375661362E+02 -0.11353705830E+02 -0.14740045470E+03  0.15163055580E+03  0.47000000000E+01 0. -1.
        -11    1    4    4    0    0 -0.11972807328E+02  0.89946726617E+01 -0.18634989255E+02  0.23906381494E+02  0.00000000000E+00 0.  1.
         12    1    4    4    0    0  0.94964655865E+02  0.26632017573E+02 -0.11671255308E+02  0.99316506302E+02  0.00000000000E+00 0. -1.
         -5    1    5    5    0  502 -0.53509646298E+02 -0.38547022016E+02 -0.40299571415E+02  0.77429326547E+02  0.47000000000E+01 0.  1.
         11    1    6    6    0    0 -0.19638363580E+01  0.13963076864E+02 -0.10784062710E+02  0.17751624638E+02  0.00000000000E+00 0. -1.
        -12    1    6    6    0    0 -0.60894027243E+02  0.31096074869E+00  0.10678244381E+03  0.12292546342E+03  0.00000000000E+00 0.  1.
<mgrwt>
<rscale>  2 0.21057466E+03</rscale>
<asrwt>0</asrwt>
<pdfrwt beam="1">  1       21 0.28534767E-01 0.21087449E+03</pdfrwt>
<pdfrwt beam="2">  1       21 0.47305211E-01 0.21087449E+03</pdfrwt>
<totfact> 0.49771701E+04</totfact>
</mgrwt>
</event>
<event>
12    1  0.1026879E-001  0.1844741E+03  0.7546771E-02  0.1164210E+00
         21   -1    0    0  501  502  0.00000000000E+00  0.00000000000E+00  0.19538603604E+03  0.19538603604E+03  0.00000000000E+00 0. -1.
         21   -1    0    0  502  503 -0.00000000000E+00 -0.00000000000E+00 -0.48900595789E+03  0.48900595789E+03  0.00000000000E+00 0. -1.
         -6    2    1    2    0  503 -0.54547642513E+02  0.97545027992E+01 -0.42293649155E+03  0.46141733141E+03  0.17595477321E+03 0.  0.
        -24    2    3    3    0    0 -0.89380743291E+02  0.49447840616E+02 -0.32446753165E+03  0.34958204163E+03  0.80587955197E+02 0.  0.
          6    2    1    2  501    0  0.54547642513E+02 -0.97545027992E+01  0.12931656970E+03  0.22297466253E+03  0.17298650035E+03 0.  0.
         24    2    5    5    0    0  0.97022170925E+02  0.90424944937E+01  0.60801043700E+02  0.14006579705E+03  0.80166029163E+02 0.  0.
          5    1    5    5  501    0 -0.42474528413E+02 -0.18796997293E+02  0.68515525999E+02  0.82908865473E+02  0.47000000000E+01 0. -1.
        -11    1    6    6    0    0  0.48572396337E+02  0.36365914671E+02  0.58667485754E+02  0.84401607333E+02  0.00000000000E+00 0.  1.
         12    1    6    6    0    0  0.48449774588E+02 -0.27323420177E+02  0.21335579462E+01  0.55664189721E+02  0.00000000000E+00 0. -1.
         -5    1    3    3    0  503  0.34833100779E+02 -0.39693337817E+02 -0.98468959896E+02  0.11183528978E+03  0.47000000000E+01 0.  1.
         11    1    4    4    0    0 -0.16523366838E+02  0.40280565059E+02 -0.54225556674E+02  0.69541042340E+02  0.00000000000E+00 0. -1.
        -12    1    4    4    0    0 -0.72857376453E+02  0.91672755573E+01 -0.27024197498E+03  0.28004099929E+03  0.00000000000E+00 0.  1.
<mgrwt>
<rscale>  2 0.18376270E+03</rscale>
<asrwt>0</asrwt>
<pdfrwt beam="1">  1       21 0.30059391E-01 0.18447406E+03</pdfrwt>
<pdfrwt beam="2">  1       21 0.75231685E-01 0.18447406E+03</pdfrwt>
<totfact> 0.16846944E+04</totfact>
</mgrwt>
</event>
<event>
12    1  0.1026879E-001  0.2247286E+03  0.7546771E-02  0.1130417E+00
         21   -1    0    0  501  502  0.00000000000E+00  0.00000000000E+00  0.72319533539E+02  0.72319533539E+02  0.00000000000E+00 0. -1.
         21   -1    0    0  502  503 -0.00000000000E+00 -0.00000000000E+00 -0.93062099786E+03  0.93062099786E+03  0.00000000000E+00 0. -1.
         -6    2    1    2    0  503 -0.30551312452E+02 -0.14026619791E+03 -0.17846148376E+03  0.28692004011E+03  0.17281961481E+03 0.  0.
        -24    2    3    3    0    0 -0.29571761008E+02 -0.27695979053E+02 -0.18697998576E+02  0.91422022495E+02  0.79792322573E+02 0.  0.
          6    2    1    2  501    0  0.30551312452E+02  0.14026619791E+03 -0.67983998056E+03  0.71602049128E+03  0.17290157836E+03 0.  0.
         24    2    5    5    0    0  0.36445255088E+02  0.10632239349E+03 -0.27666977713E+03  0.31135368594E+03  0.88103599199E+02 0.  0.
          5    1    5    5  501    0 -0.58939426363E+01  0.33943804423E+02 -0.40317020343E+03  0.40466680535E+03  0.47000000000E+01 0. -1.
        -13    1    6    6    0    0  0.29980932224E+01  0.18707304742E+02  0.28841604858E+00  0.18948218848E+02  0.00000000000E+00 0.  1.
         14    1    6    6    0    0  0.33447161866E+02  0.87615088745E+02 -0.27695819318E+03  0.29240546709E+03  0.00000000000E+00 0. -1.
         -5    1    3    3    0  503 -0.97955144442E+00 -0.11257021886E+03 -0.15976348518E+03  0.19549801762E+03  0.47000000000E+01 0.  1.
         13    1    4    4    0    0 -0.46723268625E+02  0.33175811747E+01  0.73832476782E+01  0.47419221020E+02  0.00000000000E+00 0. -1.
        -14    1    4    4    0    0  0.17151507617E+02 -0.31013560228E+02 -0.26081246254E+02  0.44002801475E+02  0.00000000000E+00 0.  1.
<mgrwt>
<rscale>  2 0.22471284E+03</rscale>
<asrwt>0</asrwt>
<pdfrwt beam="1">  1       21 0.11126083E-01 0.22472860E+03</pdfrwt>
<pdfrwt beam="2">  1       21 0.14317245E+00 0.22472860E+03</pdfrwt>
<totfact> 0.22223935E+04</totfact>
</mgrwt>
</event>
<event>
12    1  0.1026879E-001  0.4345017E+03  0.7546771E-02  0.1032570E+00
         21   -1    0    0  503  502  0.00000000000E+00  0.00000000000E+00  0.28540910651E+03  0.28540910651E+03  0.00000000000E+00 0.  1.
         21   -1    0    0  501  503 -0.00000000000E+00 -0.00000000000E+00 -0.66012672784E+03  0.66012672784E+03  0.00000000000E+00 0. -1.
          6    2    1    2  501    0 -0.39946787952E+00 -0.39720530208E+03 -0.20578580717E+03  0.47934952266E+03  0.17220904408E+03 0.  0.
         24    2    3    3    0    0 -0.17369602835E+02 -0.10695436216E+03 -0.37632029760E+02  0.14344570240E+03  0.86136874715E+02 0.  0.
         -6    2    1    2    0  502  0.39946787952E+00  0.39720530208E+03 -0.16893181416E+03  0.46618631169E+03  0.17612355833E+03 0.  0.
        -24    2    5    5    0    0  0.14435476264E+02  0.20547518959E+03 -0.16443283564E+03  0.27383305236E+03  0.74282882402E+02 0.  0.
          5    1    3    3  501    0  0.16970134955E+02 -0.29025093992E+03 -0.16815377741E+03  0.33590382025E+03  0.47000000000E+01 0. -1.
        -13    1    4    4    0    0 -0.29314341250E+02 -0.11504922279E+03 -0.19569164462E+02  0.12032708118E+03  0.00000000000E+00 0.  1.
         14    1    4    4    0    0  0.11944738415E+02  0.80948606285E+01 -0.18062865298E+02  0.23118621221E+02  0.00000000000E+00 0. -1.
         -5    1    5    5    0  502 -0.14036008385E+02  0.19173011249E+03 -0.44989785229E+01  0.19235325933E+03  0.47000000000E+01 0.  1.
         13    1    6    6    0    0  0.41745933351E+02  0.11823272998E+03 -0.11381043824E+03  0.16933551678E+03  0.00000000000E+00 0. -1.
        -14    1    6    6    0    0 -0.27310457087E+02  0.87242459607E+02 -0.50622397401E+02  0.10449753558E+03  0.00000000000E+00 0.  1.
<mgrwt>
<rscale>  2 0.43410817E+03</rscale>
<asrwt>0</asrwt>
<pdfrwt beam="1">  1       21 0.43909093E-01 0.43450169E+03</pdfrwt>
<pdfrwt beam="2">  1       21 0.10155796E+00 0.43450169E+03</pdfrwt>
<totfact> 0.34561650E+03</totfact>
</mgrwt>
</event>
<event>
12    1  0.1026879E-001  0.2082976E+03  0.7546771E-02  0.1143262E+00
         21   -1    0    0  501  502  0.00000000000E+00  0.00000000000E+00  0.14952649858E+04  0.14952649858E+04  0.00000000000E+00 0. -1.
         21   -1    0    0  502  503 -0.00000000000E+00 -0.00000000000E+00 -0.31231496470E+02  0.31231496470E+02  0.00000000000E+00 0. -1.
         -6    2    1    2    0  503 -0.10329901732E+03 -0.51687886099E+02  0.94304743799E+03  0.96541328204E+03  0.17129509709E+03 0.  0.
        -24    2    3    3    0    0 -0.88709300416E+02 -0.13512950288E+02  0.89110089152E+03  0.89915077942E+03  0.79745755050E+02 0.  0.
          6    2    1    2  501    0  0.10329901732E+03  0.51687886099E+02  0.52098605138E+03  0.56108320027E+03  0.17333657244E+03 0.  0.
         24    2    5    5    0    0  0.91829109788E+02  0.12092979009E+02  0.49910396233E+03  0.51417657742E+03  0.81816636515E+02 0.  0.
          5    1    5    5  501    0  0.11469907533E+02  0.39594907090E+02  0.21882089058E+02  0.46906622857E+02  0.47000000000E+01 0. -1.
        -13    1    6    6    0    0 -0.51098766405E+01  0.30476972011E+01  0.19019685175E+03  0.19028988863E+03  0.00000000000E+00 0.  1.
         14    1    6    6    0    0  0.96938986429E+02  0.90452818078E+01  0.30890711057E+03  0.32388668879E+03  0.00000000000E+00 0. -1.
         -5    1    3    3    0  503 -0.14589716905E+02 -0.38174935811E+02  0.51946546466E+02  0.66262502619E+02  0.47000000000E+01 0.  1.
         11    1    4    4    0    0 -0.89666025394E+01  0.26350261298E+02  0.31051158457E+03  0.31175660440E+03  0.00000000000E+00 0. -1.
        -12    1    4    4    0    0 -0.79742697877E+02 -0.39863211587E+02  0.58058930695E+03  0.58739417502E+03  0.00000000000E+00 0.  1.
<mgrwt>
<rscale>  2 0.20787237E+03</rscale>
<asrwt>0</asrwt>
<pdfrwt beam="1">  1       21 0.23004071E+00 0.20829760E+03</pdfrwt>
<pdfrwt beam="2">  1       21 0.48048468E-02 0.20829760E+03</pdfrwt>
<totfact> 0.24843431E+04</totfact>
</mgrwt>
</event>
<event>
12    1  0.1026879E-001  0.2091922E+03  0.7546771E-02  0.1142755E+00
         21   -1    0    0  503  502  0.00000000000E+00  0.00000000000E+00  0.17321411593E+03  0.17321411593E+03  0.00000000000E+00 0. -1.
         21   -1    0    0  501  503 -0.00000000000E+00 -0.00000000000E+00 -0.27125856452E+03  0.27125856452E+03  0.00000000000E+00 0.  1.
          6    2    1    2  501    0 -0.11379111735E+03 -0.10330071811E+02 -0.11187664176E+03  0.23482372114E+03  0.17196124060E+03 0.  0.
         24    2    3    3    0    0 -0.16782941069E+02 -0.50240373598E+02 -0.26184009689E+02  0.99292412420E+02  0.79797359295E+02 0.  0.
         -6    2    1    2    0  502  0.11379111735E+03  0.10330071811E+02  0.13832193167E+02  0.20964895931E+03  0.17523192575E+03 0.  0.
        -24    2    5    5    0    0  0.28822143461E+02 -0.28994921828E+02  0.56173930897E+02  0.10678451258E+03  0.81092540767E+02 0.  0.
          5    1    3    3  501    0 -0.97008176278E+02  0.39910301787E+02 -0.85692632067E+02  0.13553130872E+03  0.47000000000E+01 0. -1.
        -13    1    4    4    0    0  0.13222374129E+02 -0.55405326223E+02 -0.35903176780E+02  0.67332157654E+02  0.00000000000E+00 0.  1.
         14    1    4    4    0    0 -0.30005315198E+02  0.51649526248E+01  0.97191670904E+01  0.31960254766E+02  0.00000000000E+00 0. -1.
         -5    1    5    5    0  502  0.84968973886E+02  0.39324993640E+02 -0.42341737730E+02  0.10286444673E+03  0.47000000000E+01 0.  1.
         13    1    6    6    0    0  0.50611000133E+02 -0.10813026477E+02  0.58744469495E+02  0.78289894446E+02  0.00000000000E+00 0. -1.
        -14    1    6    6    0    0 -0.21788856672E+02 -0.18181895352E+02 -0.25705385982E+01  0.28494618129E+02  0.00000000000E+00 0.  1.
<mgrwt>
<rscale>  2 0.20850578E+03</rscale>
<asrwt>0</asrwt>
<pdfrwt beam="1">  1       21 0.26648325E-01 0.20919215E+03</pdfrwt>
<pdfrwt beam="2">  1       21 0.41732087E-01 0.20919215E+03</pdfrwt>
<totfact> 0.73554037E+04</totfact>
</mgrwt>
</event>
<event>
11    1  0.1026879E-001  0.1969591E+03  0.7546771E-02  0.1152524E+00
         21   -1    0    0  503  502  0.00000000000E+00  0.00000000000E+00  0.41546236672E+03  0.41546236672E+03  0.00000000000E+00 0.  1.
         21   -1    0    0  501  503 -0.00000000000E+00 -0.00000000000E+00 -0.96279245361E+02  0.96279245361E+02  0.00000000000E+00 0. -1.
          6    2    1    2  501    0  0.56902835194E+02 -0.73761583578E+02  0.11234117538E+03  0.22674531422E+03  0.17353441725E+03 0.  0.
         24    2    3    3    0    0  0.35981588920E+01  0.21288975328E+02  0.64511718469E+02  0.10764139232E+03  0.83419064384E+02 0.  0.
         -6    2    1    2    0  502 -0.56902835194E+02  0.73761583578E+02  0.20684194597E+03  0.28499629785E+03  0.17251259465E+03 0.  0.
          5    1    3    3  501    0  0.53304676302E+02 -0.95050558906E+02  0.47829456915E+02  0.11910392190E+03  0.47000000000E+01 0. -1.
        -11    1    4    4    0    0  0.30300787882E+02  0.28721140412E+02  0.50719710803E+01  0.42056706284E+02  0.00000000000E+00 0.  1.
         12    1    4    4    0    0 -0.26702628990E+02 -0.74321650836E+01  0.59439747388E+02  0.65584686035E+02  0.00000000000E+00 0. -1.
         -5    1    5    5    0  502 -0.94120078158E+02  0.22411803653E+02  0.49842049064E+02  0.10893666926E+03  0.47000000000E+01 0.  1.
         13    1    5    5    0    0  0.25893003828E+02  0.31656976166E+01  0.83237135790E+02  0.87228951978E+02  0.00000000000E+00 0. -1.
        -14    1    5    5    0    0  0.11324239136E+02  0.48184082308E+02  0.73762761117E+02  0.88830676613E+02  0.00000000000E+00 0.  1.
<mgrwt>
<rscale>  2 0.19673382E+03</rscale>
<asrwt>0</asrwt>
<pdfrwt beam="1">  1       21 0.63917286E-01 0.19695913E+03</pdfrwt>
<pdfrwt beam="2">  1       21 0.14812192E-01 0.19695913E+03</pdfrwt>
<totfact> 0.90570874E+04</totfact>
</mgrwt>
</event>
<event>
12    1  0.1026879E-001  0.5543047E+03  0.7546771E-02  0.1000773E+00
         21   -1    0    0  503  502  0.00000000000E+00  0.00000000000E+00  0.35421824047E+03  0.35421824047E+03  0.00000000000E+00 0. -1.
         21   -1    0    0  501  503 -0.00000000000E+00 -0.00000000000E+00 -0.89160165058E+03  0.89160165058E+03  0.00000000000E+00 0. -1.
          6    2    1    2  501    0  0.47729996391E+03  0.22262423589E+03 -0.38471089290E+03  0.67087416384E+03  0.15713964056E+03 0.  0.
         24    2    3    3    0    0  0.44597748001E+03  0.17481246980E+03 -0.30790529891E+03  0.57501879236E+03  0.79910113190E+02 0.  0.
         -6    2    1    2    0  502 -0.47729996391E+03 -0.22262423589E+03 -0.15267251720E+03  0.57494572721E+03  0.17284931523E+03 0.  0.
        -24    2    5    5    0    0 -0.34246879172E+03 -0.14043731184E+03 -0.39245223975E+02  0.38046699746E+03  0.78787287597E+02 0.  0.
          5    1    3    3  501    0  0.31322483900E+02  0.47811766086E+02 -0.76805593992E+02  0.95855371484E+02  0.47000000000E+01 0. -1.
        -11    1    4    4    0    0  0.11151351204E+02 -0.44144037770E+01  0.14534709377E+01  0.12081066681E+02  0.00000000000E+00 0.  1.
         12    1    4    4    0    0  0.43482612881E+03  0.17922687358E+03 -0.30935876985E+03  0.56293772568E+03  0.00000000000E+00 0. -1.
         -5    1    5    5    0  502 -0.13483117219E+03 -0.82186924046E+02 -0.11342729323E+03  0.19447872975E+03  0.47000000000E+01 0.  1.
         13    1    6    6    0    0 -0.34108417993E+03 -0.12858931389E+03 -0.30730960086E+02  0.36581145602E+03  0.00000000000E+00 0. -1.
        -14    1    6    6    0    0 -0.13846117934E+01 -0.11847997955E+02 -0.85142638888E+01  0.14655541441E+02  0.00000000000E+00 0.  1.
<mgrwt>
<rscale>  2 0.55312693E+03</rscale>
<asrwt>0</asrwt>
<pdfrwt beam="1">  1       21 0.54495115E-01 0.55430469E+03</pdfrwt>
<pdfrwt beam="2">  1       21 0.13716948E+00 0.55430469E+03</pdfrwt>
<totfact> 0.97672763E+02</totfact>
</mgrwt>
</event>
<event>
12    1  0.1026879E-001  0.2089852E+03  0.7546771E-02  0.1144188E+00
         21   -1    0    0  503  502  0.00000000000E+00  0.00000000000E+00  0.30571289074E+03  0.30571289074E+03  0.00000000000E+00 0. -1.
         21   -1    0    0  501  503 -0.00000000000E+00 -0.00000000000E+00 -0.19918493122E+03  0.19918493122E+03  0.00000000000E+00 0. -1.
          6    2    1    2  501    0  0.10349748001E+03  0.80854916432E+01 -0.88747064673E+02  0.21887830879E+03  0.17103967092E+03 0.  0.
         24    2    3    3    0    0  0.10602728232E+03  0.41480298735E+02 -0.19665963820E+02  0.14196341078E+03  0.82489151337E+02 0.  0.
         -6    2    1    2    0  502 -0.10349748001E+03 -0.80854916432E+01  0.19527502419E+03  0.28601951317E+03  0.18137729543E+03 0.  0.
        -24    2    5    5    0    0 -0.44431250697E+02 -0.47207213732E+02  0.18818548025E+03  0.21466350279E+03  0.80398926519E+02 0.  0.
          5    1    3    3  501    0 -0.25298023128E+01 -0.33394807092E+02 -0.69081100852E+02  0.76914898007E+02  0.47000000000E+01 0. -1.
        -13    1    4    4    0    0  0.63459178411E+02  0.53976865209E+02  0.16253628618E+02  0.84880797273E+02  0.00000000000E+00 0.  1.
         14    1    4    4    0    0  0.42568103911E+02 -0.12496566474E+02 -0.35919592438E+02  0.57082613510E+02  0.00000000000E+00 0. -1.
         -5    1    5    5    0  502 -0.59066229313E+02  0.39121722089E+02  0.70895439388E+01  0.71356010383E+02  0.47000000000E+01 0.  1.
         11    1    6    6    0    0 -0.61282433313E+02 -0.19967762104E+02  0.15804224739E+03  0.17067981754E+03  0.00000000000E+00 0. -1.
        -12    1    6    6    0    0  0.16851182617E+02 -0.27239451628E+02  0.30143232862E+02  0.43983685247E+02  0.00000000000E+00 0.  1.
<mgrwt>
<rscale>  2 0.20672222E+03</rscale>
<asrwt>0</asrwt>
<pdfrwt beam="1">  1       21 0.47032752E-01 0.20898523E+03</pdfrwt>
<pdfrwt beam="2">  1       21 0.30643836E-01 0.20898523E+03</pdfrwt>
<totfact> 0.43871956E+04</totfact>
</mgrwt>
</event>
<event>
12    1  0.1026879E-001  0.2919453E+03  0.7546771E-02  0.1089405E+00
         21   -1    0    0  503  502  0.00000000000E+00  0.00000000000E+00  0.19410427905E+03  0.19410427905E+03  0.00000000000E+00 0. -1.
         21   -1    0    0  501  503 -0.00000000000E+00 -0.00000000000E+00 -0.45229100448E+03  0.45229100448E+03  0.00000000000E+00 0.  1.
          6    2    1    2  501    0 -0.21635128007E+03  0.89633505865E+02 -0.72410444685E+02  0.30079120987E+03  0.17432738648E+03 0.  0.
         24    2    3    3    0    0 -0.11444487901E+03  0.41724595820E+02  0.62029088478E+01  0.16337822798E+03  0.10869865258E+03 0.  0.
         -6    2    1    2    0  502  0.21635128007E+03 -0.89633505865E+02 -0.18577628075E+03  0.34560407366E+03  0.17345693264E+03 0.  0.
        -24    2    5    5    0    0  0.20120158274E+03 -0.17250704079E+02 -0.13370204638E+03  0.25503587169E+03  0.79921179636E+02 0.  0.
          5    1    3    3  501    0 -0.10190640106E+03  0.47908910044E+02 -0.78613353532E+02  0.13741298189E+03  0.47000000000E+01 0. -1.
        -11    1    4    4    0    0  0.81533624302E+01 -0.20638582381E+02  0.12898702492E+02  0.25667195554E+02  0.00000000000E+00 0.  1.
         12    1    4    4    0    0 -0.12259824144E+03  0.62363178202E+02 -0.66957936447E+01  0.13771103242E+03  0.00000000000E+00 0. -1.
         -5    1    5    5    0  502  0.15149697330E+02 -0.72382801786E+02 -0.52074234365E+02  0.90568201971E+02  0.47000000000E+01 0.  1.
         13    1    6    6    0    0  0.45307639480E+01 -0.75325748277E+01  0.84364485206E+01  0.12183643508E+02  0.00000000000E+00 0. -1.
        -14    1    6    6    0    0  0.19667081879E+03 -0.97181292513E+01 -0.14213849490E+03  0.24285222818E+03  0.00000000000E+00 0.  1.
<mgrwt>
<rscale>  2 0.29181552E+03</rscale>
<asrwt>0</asrwt>
<pdfrwt beam="1">  1       21 0.29862197E-01 0.29194534E+03</pdfrwt>
<pdfrwt beam="2">  1       21 0.69583232E-01 0.29194534E+03</pdfrwt>
<totfact> 0.19193784E+04</totfact>
</mgrwt>
</event>
<event>
12    1  0.1026879E-001  0.2091323E+03  0.7546771E-02  0.1142457E+00
         21   -1    0    0  501  502  0.00000000000E+00  0.00000000000E+00  0.43421090541E+03  0.43421090541E+03  0.00000000000E+00 0.  1.
         21   -1    0    0  502  503 -0.00000000000E+00 -0.00000000000E+00 -0.35876201446E+03  0.35876201446E+03  0.00000000000E+00 0. -1.
         -6    2    1    2    0  503  0.31517641698E+02  0.11314497419E+03 -0.29881879234E+03  0.36473138633E+03  0.17303515999E+03 0.  0.
        -24    2    3    3    0    0 -0.12476655782E+02  0.10224964038E+03 -0.28932716946E+03  0.31818691926E+03  0.83198850371E+02 0.  0.
          6    2    1    2  501    0 -0.31517641698E+02 -0.11314497419E+03  0.37426768330E+03  0.42824153354E+03  0.17181200589E+03 0.  0.
         24    2    5    5    0    0 -0.66441087221E+02 -0.18139989654E+02  0.21623817615E+03  0.24051564491E+03  0.79657700984E+02 0.  0.
          5    1    5    5  501    0  0.34923445522E+02 -0.95004984532E+02  0.15802950715E+03  0.18772588863E+03  0.47000000000E+01 0. -1.
        -13    1    6    6    0    0 -0.21727004804E+02  0.81519517535E+01  0.16827655101E+03  0.16986911042E+03  0.00000000000E+00 0.  1.
         14    1    6    6    0    0 -0.44714082417E+02 -0.26291941408E+02  0.47961625141E+02  0.70646534491E+02  0.00000000000E+00 0. -1.
         -5    1    3    3    0  503  0.43994297481E+02  0.10895333803E+02 -0.94916228832E+01  0.46544467066E+02  0.47000000000E+01 0.  1.
         11    1    4    4    0    0  0.83261016474E+01  0.10705556915E+03 -0.20771837954E+03  0.23383144368E+03  0.00000000000E+00 0. -1.
        -12    1    4    4    0    0 -0.20802757430E+02 -0.48059287705E+01 -0.81608789920E+02  0.84355475580E+02  0.00000000000E+00 0.  1.
<mgrwt>
<rscale>  2 0.20887910E+03</rscale>
<asrwt>0</asrwt>
<pdfrwt beam="1">  1       21 0.66801677E-01 0.20913229E+03</pdfrwt>
<pdfrwt beam="2">  1       21 0.55194156E-01 0.20913229E+03</pdfrwt>
<totfact> 0.62799320E+03</totfact>
</mgrwt>
</event>
<event>
12    1  0.1026879E-001  0.2160108E+03  0.7546771E-02  0.1136985E+00
         21   -1    0    0  503  502  0.00000000000E+00  0.00000000000E+00  0.64459503646E+03  0.64459503646E+03  0.00000000000E+00 0.  1.
         21   -1    0    0  501  503 -0.00000000000E+00 -0.00000000000E+00 -0.73979388319E+02  0.73979388319E+02  0.00000000000E+00 0. -1.
          6    2    1    2  501    0  0.81552129363E+01  0.12852659847E+03  0.34095046955E+03  0.40361849918E+03  0.17342167162E+03 0.  0.
         24    2    3    3    0    0  0.59274385360E+02  0.11478772251E+03  0.19783433632E+03  0.25095467212E+03  0.84558552705E+02 0.  0.
         -6    2    1    2    0  502 -0.81552129363E+01 -0.12852659847E+03  0.22966517859E+03  0.31495592559E+03  0.17281651194E+03 0.  0.
        -24    2    5    5    0    0 -0.21744088621E+02  0.26873611730E+01  0.10090298430E+03  0.13055540112E+03  0.79895389237E+02 0.  0.
          5    1    3    3  501    0 -0.51119172424E+02  0.13738875960E+02  0.14311613323E+03  0.15266382706E+03  0.47000000000E+01 0. -1.
        -11    1    4    4    0    0 -0.13192717464E+02  0.65279670968E+02  0.82603030194E+02  0.10610722800E+03  0.00000000000E+00 0.  1.
         12    1    4    4    0    0  0.72467102824E+02  0.49508051539E+02  0.11523130612E+03  0.14484744413E+03  0.00000000000E+00 0. -1.
         -5    1    5    5    0  502  0.13588875685E+02 -0.13121395964E+03  0.12876219429E+03  0.18440052447E+03  0.47000000000E+01 0.  1.
         11    1    6    6    0    0  0.16247086580E+02  0.90197371151E+01 -0.38225414260E+01  0.18971960966E+02  0.00000000000E+00 0. -1.
        -12    1    6    6    0    0 -0.37991175201E+02 -0.63323759421E+01  0.10472552573E+03  0.11158344016E+03  0.00000000000E+00 0.  1.
<mgrwt>
<rscale>  2 0.21588932E+03</rscale>
<asrwt>0</asrwt>
<pdfrwt beam="1">  1       21 0.99168464E-01 0.21601081E+03</pdfrwt>
<pdfrwt beam="2">  1       21 0.11381445E-01 0.21601081E+03</pdfrwt>
<totfact> 0.53387198E+04</totfact>
</mgrwt>
</event>
<event>
12    1  0.1026879E-001  0.1866217E+03  0.7546771E-02  0.1162271E+00
         21   -1    0    0  503  502  0.00000000000E+00  0.00000000000E+00  0.13929986479E+03  0.13929986479E+03  0.00000000000E+00 0.  1.
         21   -1    0    0  501  503 -0.00000000000E+00 -0.00000000000E+00 -0.67361544185E+03  0.67361544185E+03  0.00000000000E+00 0.  1.
          6    2    1    2  501    0  0.57240735316E+02  0.15998047912E+02 -0.59187357272E+03  0.62059808903E+03  0.17690455819E+03 0.  0.
         24    2    3    3    0    0  0.66825169950E+02  0.39100251755E+02 -0.58362377541E+03  0.59384510106E+03  0.77722968322E+02 0.  0.
         -6    2    1    2    0  502 -0.57240735316E+02 -0.15998047912E+02  0.57557995654E+02  0.19231721761E+03  0.17361033958E+03 0.  0.
        -24    2    5    5    0    0 -0.33744916594E+02 -0.70332712542E+02  0.69840889016E+02  0.13167672992E+03  0.79847364235E+02 0.  0.
          5    1    3    3  501    0 -0.95844346338E+01 -0.23102203843E+02 -0.82497973100E+01  0.26752987969E+02  0.47000000000E+01 0. -1.
        -11    1    4    4    0    0  0.32510910973E+02 -0.21980542219E+02 -0.23451304562E+03  0.23777399381E+03  0.00000000000E+00 0.  1.
         12    1    4    4    0    0  0.34314258977E+02  0.61080793974E+02 -0.34911072979E+03  0.35607110725E+03  0.00000000000E+00 0. -1.
         -5    1    5    5    0  502 -0.23495818722E+02  0.54334664629E+02 -0.12282893362E+02  0.60640487689E+02  0.47000000000E+01 0.  1.
         11    1    6    6    0    0  0.11738720280E+02 -0.60381125226E+02  0.55789477197E+02  0.83043022604E+02  0.00000000000E+00 0. -1.
        -12    1    6    6    0    0 -0.45483636875E+02 -0.99515873160E+01  0.14051411819E+02  0.48633707318E+02  0.00000000000E+00 0.  1.
<mgrwt>
<rscale>  2 0.18583685E+03</rscale>
<asrwt>0</asrwt>
<pdfrwt beam="1">  1       21 0.21430748E-01 0.18662171E+03</pdfrwt>
<pdfrwt beam="2">  1       21 0.10363315E+00 0.18662171E+03</pdfrwt>
<totfact> 0.15349753E+04</totfact>
</mgrwt>
</event>
<event>
12    1  0.1026879E-001  0.2845443E+03  0.7546771E-02  0.1093904E+00
         21   -1    0    0  503  502  0.00000000000E+00  0.00000000000E+00  0.28612693569E+03  0.28612693569E+03  0.00000000000E+00 0. -1.
         21   -1    0    0  501  503 -0.00000000000E+00 -0.00000000000E+00 -0.32320835703E+03  0.32320835703E+03  0.00000000000E+00 0. -1.
          6    2    1    2  501    0 -0.17519897910E+03 -0.14403421541E+03  0.95201307317E+02  0.30004788298E+03  0.17182812831E+03 0.  0.
         24    2    3    3    0    0 -0.44257655038E+02 -0.11454828360E+03  0.31771669896E+02  0.15152024439E+03  0.82878803966E+02 0.  0.
         -6    2    1    2    0  502  0.17519897910E+03  0.14403421541E+03 -0.13228272866E+03  0.30928740974E+03  0.16346083335E+03 0.  0.
        -24    2    5    5    0    0  0.14040212405E+03  0.15884836033E+03 -0.14476799870E+03  0.26918439267E+03  0.80974723151E+02 0.  0.
          5    1    3    3  501    0 -0.13094132406E+03 -0.29485931812E+02  0.63429637420E+02  0.14852763859E+03  0.47000000000E+01 0. -1.
        -13    1    4    4    0    0 -0.34223675284E+01  0.56538041741E+01 -0.14871287026E+02  0.16273698994E+02  0.00000000000E+00 0.  1.
         14    1    4    4    0    0 -0.40835287509E+02 -0.12020208777E+03  0.46642956922E+02  0.13524654540E+03  0.00000000000E+00 0. -1.
         -5    1    5    5    0  502  0.34796855042E+02 -0.14814144919E+02  0.12485270041E+02  0.40103017075E+02  0.47000000000E+01 0.  1.
         13    1    6    6    0    0  0.14019057918E+02  0.72526346689E+02 -0.48932782265E+02  0.88605993754E+02  0.00000000000E+00 0. -1.
        -14    1    6    6    0    0  0.12638306613E+03  0.86322013643E+02 -0.95835216435E+02  0.18057839891E+03  0.00000000000E+00 0.  1.
<mgrwt>
<rscale>  2 0.28329274E+03</rscale>
<asrwt>0</asrwt>
<pdfrwt beam="1">  1       21 0.44019528E-01 0.28454427E+03</pdfrwt>
<pdfrwt beam="2">  1       21 0.49724363E-01 0.28454427E+03</pdfrwt>
<totfact> 0.18222347E+04</totfact>
</mgrwt>
</event>
<event>
12    1  0.1026879E-001  0.2384458E+03  0.7546771E-02  0.1121739E+00
         21   -1    0    0  501  502  0.00000000000E+00  0.00000000000E+00  0.30846786030E+03  0.30846786030E+03  0.00000000000E+00 0. -1.
         21   -1    0    0  502  503 -0.00000000000E+00 -0.00000000000E+00 -0.29100809394E+03  0.29100809394E+03  0.00000000000E+00 0. -1.
         -6    2    1    2    0  503  0.16216348153E+03  0.52705646725E+01 -0.17626609453E+03  0.29225272183E+03  0.16738322419E+03 0.  0.
        -24    2    3    3    0    0  0.84988642974E+02 -0.51826123616E+01 -0.18013410615E+03  0.21413565499E+03  0.78459248258E+02 0.  0.
          6    2    1    2  501    0 -0.16216348153E+03 -0.52705646725E+01  0.19372586089E+03  0.30722323242E+03  0.17473302997E+03 0.  0.
         24    2    5    5    0    0 -0.74966744917E+02 -0.61703051056E+02  0.67275871423E+02  0.14351744073E+03  0.81510327956E+02 0.  0.
          5    1    5    5  501    0 -0.87196736618E+02  0.56432486383E+02  0.12644998947E+03  0.16370579169E+03  0.47000000000E+01 0. -1.
        -11    1    6    6    0    0 -0.25735801436E+02  0.49159214597E+01 -0.12037142063E+02  0.28833843802E+02  0.00000000000E+00 0.  1.
         12    1    6    6    0    0 -0.49230943481E+02 -0.66618972515E+02  0.79313013486E+02  0.11468359692E+03  0.00000000000E+00 0. -1.
         -5    1    3    3    0  503  0.77174838561E+02  0.10453177034E+02  0.38680116173E+01  0.78117066835E+02  0.47000000000E+01 0.  1.
         11    1    4    4    0    0  0.42093277148E+02 -0.24826209357E+02 -0.15094091353E+03  0.15865479516E+03  0.00000000000E+00 0. -1.
        -12    1    4    4    0    0  0.42895365826E+02  0.19643596996E+02 -0.29193192621E+02  0.55480859832E+02  0.00000000000E+00 0.  1.
<mgrwt>
<rscale>  2 0.23710141E+03</rscale>
<asrwt>0</asrwt>
<pdfrwt beam="1">  1       21 0.47456594E-01 0.23844581E+03</pdfrwt>
<pdfrwt beam="2">  1       21 0.44770476E-01 0.23844581E+03</pdfrwt>
<totfact> 0.19821771E+04</totfact>
</mgrwt>
</event>
<event>
12    1  0.1026879E-001  0.1822044E+03  0.7546771E-02  0.1167194E+00
         21   -1    0    0  501  502  0.00000000000E+00  0.00000000000E+00  0.18104565900E+03  0.18104565900E+03  0.00000000000E+00 0. -1.
         21   -1    0    0  502  503 -0.00000000000E+00 -0.00000000000E+00 -0.19900476767E+03  0.19900476767E+03  0.00000000000E+00 0. -1.
         -6    2    1    2    0  503  0.25250041777E+02 -0.19652919797E+02 -0.72050439646E+02  0.19593292309E+03  0.17937291499E+03 0.  0.
        -24    2    3    3    0    0 -0.30939601170E+02  0.35094622608E+02 -0.98034180844E+01  0.95676496531E+02  0.82879391441E+02 0.  0.
          6    2    1    2  501    0 -0.25250041777E+02  0.19652919797E+02  0.54091330973E+02  0.18411750357E+03  0.17305947292E+03 0.  0.
         24    2    5    5    0    0 -0.29704525239E+02 -0.54996592749E+02  0.29286782773E+02  0.10518875242E+03  0.79372375280E+02 0.  0.
          5    1    5    5  501    0  0.44544834623E+01  0.74649512547E+02  0.24804548200E+02  0.78928751148E+02  0.47000000000E+01 0. -1.
        -13    1    6    6    0    0  0.24483795351E+02 -0.22380676810E+02 -0.45125364566E+01  0.33477065501E+02  0.00000000000E+00 0.  1.
         14    1    6    6    0    0 -0.54188320590E+02 -0.32615915939E+02  0.33799319229E+02  0.71711686923E+02  0.00000000000E+00 0. -1.
         -5    1    3    3    0  503  0.56189642947E+02 -0.54747542405E+02 -0.62247021562E+02  0.10025642656E+03  0.47000000000E+01 0.  1.
         11    1    4    4    0    0  0.28220255561E+02  0.98230557248E+01  0.31739654326E+01  0.30049114866E+02  0.00000000000E+00 0. -1.
        -12    1    4    4    0    0 -0.59159856731E+02  0.25271566883E+02 -0.12977383517E+02  0.65627381664E+02  0.00000000000E+00 0.  1.
<mgrwt>
<rscale>  2 0.18063119E+03</rscale>
<asrwt>0</asrwt>
<pdfrwt beam="1">  1       21 0.27853179E-01 0.18220440E+03</pdfrwt>
<pdfrwt beam="2">  1       21 0.30616118E-01 0.18220440E+03</pdfrwt>
<totfact> 0.12650738E+05</totfact>
</mgrwt>
</event>
<event>
12    1  0.1026879E-001  0.1953211E+03  0.7546771E-02  0.1159287E+00
         21   -1    0    0  501  502  0.00000000000E+00  0.00000000000E+00  0.48216456906E+03  0.48216456906E+03  0.00000000000E+00 0. -1.
         21   -1    0    0  502  503 -0.00000000000E+00 -0.00000000000E+00 -0.24325466312E+03  0.24325466312E+03  0.00000000000E+00 0. -1.
         -6    2    1    2    0  503  0.42533360108E+02 -0.96905128789E+00 -0.18443317630E+03  0.26863715015E+03  0.19063130944E+03 0.  0.
        -24    2    3    3    0    0 -0.35488643530E+01  0.44874730461E+02 -0.18105333068E+03  0.20337815006E+03  0.80969299740E+02 0.  0.
          6    2    1    2  501    0 -0.42533360108E+02  0.96905128789E+00  0.42334308223E+03  0.45678208203E+03  0.16619410160E+03 0.  0.
         24    2    5    5    0    0 -0.32776796002E+02 -0.61309599886E+02  0.23462149445E+03  0.25775507725E+03  0.80976841115E+02 0.  0.
          5    1    5    5  501    0 -0.97565641058E+01  0.62278651174E+02  0.18872158778E+03  0.19902700478E+03  0.47000000000E+01 0. -1.
        -13    1    6    6    0    0  0.15155538499E+02  0.11547734403E+02  0.33503387780E+02  0.38542411831E+02  0.00000000000E+00 0.  1.
         14    1    6    6    0    0 -0.47932334501E+02 -0.72857334289E+02  0.20111810667E+03  0.21921266542E+03  0.00000000000E+00 0. -1.
         -5    1    3    3    0  503  0.46082224461E+02 -0.45843781749E+02 -0.33798456181E+01  0.65259000090E+02  0.47000000000E+01 0.  1.
         11    1    4    4    0    0  0.37087335847E+02  0.90223365672E+01 -0.67125851379E+02  0.77218864021E+02  0.00000000000E+00 0. -1.
        -12    1    4    4    0    0 -0.40636200200E+02  0.35852393894E+02 -0.11392747930E+03  0.12615928604E+03  0.00000000000E+00 0.  1.
<mgrwt>
<rscale>  2 0.18908694E+03</rscale>
<asrwt>0</asrwt>
<pdfrwt beam="1">  1       21 0.74179164E-01 0.19532107E+03</pdfrwt>
<pdfrwt beam="2">  1       21 0.37423794E-01 0.19532107E+03</pdfrwt>
<totfact> 0.11200649E+04</totfact>
</mgrwt>
</event>
<event>
12    1  0.1026879E-001  0.2882782E+03  0.7546771E-02  0.1091310E+00
         21   -1    0    0  503  502  0.00000000000E+00  0.00000000000E+00  0.13631212826E+03  0.13631212826E+03  0.00000000000E+00 0.  1.
         21   -1    0    0  501  503 -0.00000000000E+00 -0.00000000000E+00 -0.65714914707E+03  0.65714914707E+03  0.00000000000E+00 0.  1.
          6    2    1    2  501    0  0.33937348288E+02 -0.22793927696E+03 -0.15252997040E+03  0.32574940512E+03  0.17245064650E+03 0.  0.
         24    2    3    3    0    0  0.23349766061E+02 -0.15892026762E+03 -0.17680469280E+03  0.25167462739E+03  0.79242385386E+02 0.  0.
         -6    2    1    2    0  502 -0.33937348288E+02  0.22793927696E+03 -0.36830704841E+03  0.46771187020E+03  0.17319426674E+03 0.  0.
        -24    2    5    5    0    0  0.16539421408E+02  0.61416997959E+02 -0.74531526371E+02  0.12623900008E+03  0.79597340528E+02 0.  0.
          5    1    3    3  501    0  0.10587582227E+02 -0.69019009345E+02  0.24274722403E+02  0.74074777733E+02  0.47000000000E+01 0. -1.
        -13    1    4    4    0    0 -0.20718412279E+02 -0.11141365319E+03 -0.99521183120E+02  0.15082015984E+03  0.00000000000E+00 0.  1.
         14    1    4    4    0    0  0.44068178340E+02 -0.47506614428E+02 -0.77283509680E+02  0.10085446755E+03  0.00000000000E+00 0. -1.
         -5    1    5    5    0  502 -0.50476769697E+02  0.16652227901E+03 -0.29377552204E+03  0.34147287012E+03  0.47000000000E+01 0.  1.
         11    1    6    6    0    0  0.19417053771E+02  0.69061400368E+02 -0.24896507697E+02  0.75936388468E+02  0.00000000000E+00 0. -1.
        -12    1    6    6    0    0 -0.28776323625E+01 -0.76444024098E+01 -0.49635018674E+02  0.50302611612E+02  0.00000000000E+00 0.  1.
<mgrwt>
<rscale>  2 0.28816658E+03</rscale>
<asrwt>0</asrwt>
<pdfrwt beam="1">  1       21 0.20971097E-01 0.28827818E+03</pdfrwt>
<pdfrwt beam="2">  1       21 0.10109987E+00 0.28827818E+03</pdfrwt>
<totfact> 0.16038891E+04</totfact>
</mgrwt>
</event>
<event>
12    1  0.1026879E-001  0.1776999E+03  0.7546771E-02  0.1172278E+00
         21   -1    0    0  503  502  0.00000000000E+00  0.00000000000E+00  0.68947691638E+02  0.68947691638E+02  0.00000000000E+00 0.  1.
         21   -1    0    0  501  503 -0.00000000000E+00 -0.00000000000E+00 -0.47001678078E+03  0.47001678078E+03  0.00000000000E+00 0. -1.
          6    2    1    2  501    0 -0.62835384076E+01  0.41001302059E+02 -0.26877017755E+03  0.31742384436E+03  0.16370674696E+03 0.  0.
         24    2    3    3    0    0  0.25708294371E+02 -0.26152977715E+02 -0.16425383006E+03  0.18905355360E+03  0.86122185270E+02 0.  0.
         -6    2    1    2    0  502  0.62835384076E+01 -0.41001302059E+02 -0.13229891159E+03  0.22154062806E+03  0.17279079330E+03 0.  0.
        -24    2    5    5    0    0 -0.12413130632E+02 -0.81290540987E+02 -0.13448656988E+03  0.17682302465E+03  0.80109342161E+02 0.  0.
          5    1    3    3  501    0 -0.31991832779E+02  0.67154279775E+02 -0.10451634749E+03  0.12837029076E+03  0.47000000000E+01 0. -1.
        -13    1    4    4    0    0  0.22039173696E+01 -0.46819590479E+02 -0.42262844897E+02  0.63111642057E+02  0.00000000000E+00 0.  1.
         14    1    4    4    0    0  0.23504377002E+02  0.20666612763E+02 -0.12199098517E+03  0.12594191154E+03  0.00000000000E+00 0. -1.
         -5    1    5    5    0  502  0.18696669039E+02  0.40289238928E+02  0.21876582857E+01  0.44717603417E+02  0.47000000000E+01 0.  1.
         11    1    6    6    0    0  0.27632167757E+02 -0.44496935738E+01 -0.37011090202E+02  0.46402125661E+02  0.00000000000E+00 0. -1.
        -12    1    6    6    0    0 -0.40045298389E+02 -0.76840847414E+02 -0.97475479675E+02  0.13042089899E+03  0.00000000000E+00 0.  1.
<mgrwt>
<rscale>  2 0.17545267E+03</rscale>
<asrwt>0</asrwt>
<pdfrwt beam="1">  1       21 0.10607337E-01 0.17769988E+03</pdfrwt>
<pdfrwt beam="2">  1       21 0.72310275E-01 0.17769988E+03</pdfrwt>
<totfact> 0.12674943E+05</totfact>
</mgrwt>
</event>
<event>
12    1  0.1026879E-001  0.2477089E+03  0.7546771E-02  0.1115731E+00
         21   -1    0    0  501  502  0.00000000000E+00  0.00000000000E+00  0.13457689332E+04  0.13457689332E+04  0.00000000000E+00 0.  1.
         21   -1    0    0  502  503 -0.00000000000E+00 -0.00000000000E+00 -0.56054916103E+02  0.56054916103E+02  0.00000000000E+00 0. -1.
         -6    2    1    2    0  503  0.17350544371E+03 -0.28401318425E+02  0.33289774465E+03  0.41494653080E+03  0.17449624966E+03 0.  0.
        -24    2    3    3    0    0  0.19573253046E+03 -0.41301082298E-02  0.27540980259E+03  0.34692155618E+03  0.78694239209E+02 0.  0.
          6    2    1    2  501    0 -0.17350544371E+03  0.28401318425E+02  0.95681627245E+03  0.98687731851E+03  0.16588757842E+03 0.  0.
         24    2    5    5    0    0 -0.10581656875E+03  0.80917708259E+02  0.59028031064E+03  0.61043282552E+03  0.80327875734E+02 0.  0.
          5    1    5    5  501    0 -0.67688874956E+02 -0.52516389835E+02  0.36653596182E+03  0.37644449298E+03  0.47000000000E+01 0. -1.
        -13    1    6    6    0    0 -0.41449067090E+02  0.11170785638E+02  0.34108067811E+03  0.34377149473E+03  0.00000000000E+00 0.  1.
         14    1    6    6    0    0 -0.64367501664E+02  0.69746922621E+02  0.24919963253E+03  0.26666133079E+03  0.00000000000E+00 0. -1.
         -5    1    3    3    0  503 -0.22227086747E+02 -0.28397188316E+02  0.57487942057E+02  0.68024974616E+02  0.47000000000E+01 0.  1.
         11    1    4    4    0    0  0.15195669277E+03  0.73278162726E+01  0.14899658726E+03  0.21294251897E+03  0.00000000000E+00 0. -1.
        -12    1    4    4    0    0  0.43775837687E+02 -0.73319463808E+01  0.12641321533E+03  0.13397903721E+03  0.00000000000E+00 0.  1.
<mgrwt>
<rscale>  2 0.24619841E+03</rscale>
<asrwt>0</asrwt>
<pdfrwt beam="1">  1       21 0.20704135E+00 0.24770893E+03</pdfrwt>
<pdfrwt beam="2">  1       21 0.86238343E-02 0.24770893E+03</pdfrwt>
<totfact> 0.12232163E+04</totfact>
</mgrwt>
</event>
<event>
12    1  0.1026879E-001  0.1925921E+03  0.7546771E-02  0.1158999E+00
         21   -1    0    0  501  502  0.00000000000E+00  0.00000000000E+00  0.21020261365E+03  0.21020261365E+03  0.00000000000E+00 0.  1.
         21   -1    0    0  502  503 -0.00000000000E+00 -0.00000000000E+00 -0.31724437399E+03  0.31724437399E+03  0.00000000000E+00 0.  1.
         -6    2    1    2    0  503 -0.44764534551E+02 -0.33454155514E+02 -0.23694208874E+03  0.30534120675E+03  0.18430587362E+03 0.  0.
        -24    2    3    3    0    0 -0.46158740170E+02 -0.73734948921E+01 -0.14187298349E+02  0.81011245958E+02  0.64626192958E+02 0.  0.
          6    2    1    2  501    0  0.44764534551E+02  0.33454155514E+02  0.12990032840E+03  0.22210578089E+03  0.17127124252E+03 0.  0.
         24    2    5    5    0    0 -0.10490097133E+02  0.27374171367E+02  0.42624645601E+01  0.84639409150E+02  0.79286023871E+02 0.  0.
          5    1    5    5  501    0  0.55254631683E+02  0.60799841472E+01  0.12563786384E+03  0.13746637174E+03  0.47000000000E+01 0. -1.
        -13    1    6    6    0    0 -0.33807748043E+02 -0.12900666498E+02  0.10517578972E+02  0.37683026567E+02  0.00000000000E+00 0.  1.
         14    1    6    6    0    0  0.23317650910E+02  0.40274837864E+02 -0.62551144124E+01  0.46956382583E+02  0.00000000000E+00 0. -1.
         -5    1    3    3    0  503  0.13942056190E+01 -0.26080660622E+02 -0.22275479039E+03  0.22432996079E+03  0.47000000000E+01 0.  1.
         11    1    4    4    0    0 -0.16747330384E+01  0.16927772565E+02 -0.23964430135E+02  0.29387890813E+02  0.00000000000E+00 0. -1.
        -12    1    4    4    0    0 -0.44484007131E+02 -0.24301267457E+02  0.97771317854E+01  0.51623355145E+02  0.00000000000E+00 0.  1.
<mgrwt>
<rscale>  2 0.18940530E+03</rscale>
<asrwt>0</asrwt>
<pdfrwt beam="1">  1       21 0.32338863E-01 0.19259205E+03</pdfrwt>
<pdfrwt beam="2">  1       21 0.48806827E-01 0.19259205E+03</pdfrwt>
<totfact> 0.36866312E+04</totfact>
</mgrwt>
</event>
<event>
12    1  0.1026879E-001  0.1896454E+03  0.7546771E-02  0.1160232E+00
         21   -1    0    0  501  502  0.00000000000E+00  0.00000000000E+00  0.45652089606E+02  0.45652089606E+02  0.00000000000E+00 0.  1.
         21   -1    0    0  502  503 -0.00000000000E+00 -0.00000000000E+00 -0.99754325463E+03  0.99754325463E+03  0.00000000000E+00 0.  1.
         -6    2    1    2    0  503  0.34512345307E+01  0.64261036668E+02 -0.73558989212E+03  0.75964323779E+03  0.17839273381E+03 0.  0.
        -24    2    3    3    0    0  0.30834972243E+02  0.46257161254E+02 -0.19302136706E+03  0.21606554968E+03  0.79602469421E+02 0.  0.
          6    2    1    2  501    0 -0.34512345307E+01 -0.64261036668E+02 -0.21630127290E+03  0.28355210644E+03  0.17168041401E+03 0.  0.
         24    2    5    5    0    0  0.32339796548E+02 -0.99839319678E+02 -0.14442432857E+03  0.19560213627E+03  0.79925320360E+02 0.  0.
          5    1    5    5  501    0 -0.35791031079E+02  0.35578283010E+02 -0.71876944330E+02  0.87949970176E+02  0.47000000000E+01 0. -1.
        -11    1    6    6    0    0  0.45109834713E+02 -0.27615912627E+02 -0.33451178114E+02  0.62582083181E+02  0.00000000000E+00 0.  1.
         12    1    6    6    0    0 -0.12770038165E+02 -0.72223407051E+02 -0.11097315046E+03  0.13302005309E+03  0.00000000000E+00 0. -1.
         -5    1    3    3    0  503 -0.27383737713E+02  0.18003875414E+02 -0.54256852506E+03  0.54357768811E+03  0.47000000000E+01 0.  1.
         11    1    4    4    0    0  0.44949987491E+02  0.50353894342E+02 -0.18919952975E+03  0.20087926252E+03  0.00000000000E+00 0. -1.
        -12    1    4    4    0    0 -0.14115015248E+02 -0.40967330880E+01 -0.38218373046E+01  0.15186287164E+02  0.00000000000E+00 0.  1.
<mgrwt>
<rscale>  2 0.18805037E+03</rscale>
<asrwt>0</asrwt>
<pdfrwt beam="1">  1       21 0.70233982E-02 0.18964535E+03</pdfrwt>
<pdfrwt beam="2">  1       21 0.15346820E+00 0.18964535E+03</pdfrwt>
<totfact> 0.42395454E+04</totfact>
</mgrwt>
</event>
<event>
12    1  0.1026879E-001  0.2279292E+03  0.7546771E-02  0.1128303E+00
         21   -1    0    0  501  502  0.00000000000E+00  0.00000000000E+00  0.16873791679E+03  0.16873791679E+03  0.00000000000E+00 0.  1.
         21   -1    0    0  502  503 -0.00000000000E+00 -0.00000000000E+00 -0.33351175827E+03  0.33351175827E+03  0.00000000000E+00 0. -1.
         -6    2    1    2    0  503 -0.55873840988E+02  0.13452890999E+03 -0.15381439469E+03  0.27405719672E+03  0.17386364004E+03 0.  0.
        -24    2    3    3    0    0 -0.35489322688E+02  0.10962309354E+03 -0.18269421914E+03  0.23056050098E+03  0.80648944488E+02 0.  0.
          6    2    1    2  501    0  0.55873840988E+02 -0.13452890999E+03 -0.10959446796E+02  0.22819247834E+03  0.17530483156E+03 0.  0.
         24    2    5    5    0    0 -0.14625333316E+02 -0.50157351304E+02  0.43988962202E+02  0.10518796158E+03  0.79998863748E+02 0.  0.
          5    1    5    5  501    0  0.70499174304E+02 -0.84371558689E+02 -0.54948408997E+02  0.12300451676E+03  0.47000000000E+01 0. -1.
        -11    1    6    6    0    0  0.33199621474E+02 -0.19007013196E+02  0.21151043790E+02  0.43713248221E+02  0.00000000000E+00 0.  1.
         12    1    6    6    0    0 -0.47824954790E+02 -0.31150338108E+02  0.22837918411E+02  0.61474713357E+02  0.00000000000E+00 0. -1.
         -5    1    3    3    0  503 -0.20384518300E+02  0.24905816458E+02  0.28879824445E+02  0.43496695734E+02  0.47000000000E+01 0.  1.
         13    1    4    4    0    0 -0.40382836315E+02  0.13386817300E+02 -0.40123011727E+02  0.58479367440E+02  0.00000000000E+00 0. -1.
        -14    1    4    4    0    0  0.48935136267E+01  0.96236276236E+02 -0.14257120741E+03  0.17208113354E+03  0.00000000000E+00 0.  1.
<mgrwt>
<rscale>  2 0.22765200E+03</rscale>
<asrwt>0</asrwt>
<pdfrwt beam="1">  1       21 0.25959680E-01 0.22792915E+03</pdfrwt>
<pdfrwt beam="2">  1       21 0.51309501E-01 0.22792915E+03</pdfrwt>
<totfact> 0.50048531E+04</totfact>
</mgrwt>
</event>
<event>
12    1  0.1026879E-001  0.2134998E+03  0.7546771E-02  0.1138962E+00
         21   -1    0    0  503  502  0.00000000000E+00  0.00000000000E+00  0.77028923861E+02  0.77028923861E+02  0.00000000000E+00 0. -1.
         21   -1    0    0  501  503 -0.00000000000E+00 -0.00000000000E+00 -0.59560011415E+03  0.59560011415E+03  0.00000000000E+00 0.  1.
          6    2    1    2  501    0 -0.12549766739E+03  0.26804872173E+01 -0.22565006324E+03  0.31015839219E+03  0.17182382742E+03 0.  0.
         24    2    3    3    0    0  0.21749943309E+01 -0.20757372485E+02 -0.90603909972E+02  0.12278391331E+03  0.80194898549E+02 0.  0.
         -6    2    1    2    0  502  0.12549766739E+03 -0.26804872173E+01 -0.29292112705E+03  0.36247064583E+03  0.17270012416E+03 0.  0.
        -24    2    5    5    0    0  0.13969192430E+03  0.38712106086E+02 -0.20037176544E+03  0.25998992547E+03  0.80208828017E+02 0.  0.
          5    1    3    3  501    0 -0.12767266172E+03  0.23437859702E+02 -0.13504615327E+03  0.18737447887E+03  0.47000000000E+01 0. -1.
        -13    1    4    4    0    0 -0.35142417705E+02  0.72239022143E+01 -0.33881370073E+02  0.49346950497E+02  0.00000000000E+00 0.  1.
         14    1    4    4    0    0  0.37317412036E+02 -0.27981274699E+02 -0.56722539899E+02  0.73436962815E+02  0.00000000000E+00 0. -1.
         -5    1    5    5    0  502 -0.14194256907E+02 -0.41392593303E+02 -0.92549361612E+02  0.10248072035E+03  0.47000000000E+01 0.  1.
         11    1    6    6    0    0  0.47192351443E+02  0.53628778827E+02 -0.76405190649E+02  0.10459883896E+03  0.00000000000E+00 0. -1.
        -12    1    6    6    0    0  0.92499572857E+02 -0.14916672741E+02 -0.12396657479E+03  0.15539108652E+03  0.00000000000E+00 0.  1.
<mgrwt>
<rscale>  2 0.21332257E+03</rscale>
<asrwt>0</asrwt>
<pdfrwt beam="1">  1       21 0.11850604E-01 0.21349984E+03</pdfrwt>
<pdfrwt beam="2">  1       21 0.91630785E-01 0.21349984E+03</pdfrwt>
<totfact> 0.59875738E+04</totfact>
</mgrwt>
</event>
<event>
12    1  0.1026879E-001  0.3115398E+03  0.7546771E-02  0.1079614E+00
         21   -1    0    0  503  502  0.00000000000E+00  0.00000000000E+00  0.98787857080E+03  0.98787857080E+03  0.00000000000E+00 0.  1.
         21   -1    0    0  501  503 -0.00000000000E+00 -0.00000000000E+00 -0.10289217667E+03  0.10289217667E+03  0.00000000000E+00 0. -1.
          6    2    1    2  501    0  0.18141949662E+03  0.18432594433E+03  0.55846950287E+03  0.63947229102E+03  0.17363046342E+03 0.  0.
         24    2    3    3    0    0  0.20592308900E+03  0.15258198623E+03  0.46131357992E+03  0.53426075039E+03  0.83299155353E+02 0.  0.
         -6    2    1    2    0  502 -0.18141949662E+03 -0.18432594433E+03  0.32651689126E+03  0.45129845645E+03  0.17368917356E+03 0.  0.
        -24    2    5    5    0    0 -0.10354307053E+03 -0.19199690702E+03  0.22837269711E+03  0.32568812943E+03  0.79590760178E+02 0.  0.
          5    1    3    3  501    0 -0.24503592383E+02  0.31743958104E+02  0.97155922952E+02  0.10521154062E+03  0.47000000000E+01 0. -1.
        -11    1    4    4    0    0  0.11697664481E+03  0.11307229863E+03  0.35273365306E+03  0.38844550473E+03  0.00000000000E+00 0.  1.
         12    1    4    4    0    0  0.88946444191E+02  0.39509687594E+02  0.10857992687E+03  0.14581524566E+03  0.00000000000E+00 0. -1.
         -5    1    5    5    0  502 -0.77876426088E+02  0.76709626920E+01  0.98144194148E+02  0.12561032702E+03  0.47000000000E+01 0.  1.
         13    1    6    6    0    0 -0.71088054946E+02 -0.53022704366E+02  0.74525349151E+02  0.11584017611E+03  0.00000000000E+00 0. -1.
        -14    1    6    6    0    0 -0.32455015586E+02 -0.13897420266E+03  0.15384734796E+03  0.20984795332E+03  0.00000000000E+00 0.  1.
<mgrwt>
<rscale>  2 0.31153157E+03</rscale>
<asrwt>0</asrwt>
<pdfrwt beam="1">  1       21 0.15198131E+00 0.31153975E+03</pdfrwt>
<pdfrwt beam="2">  1       21 0.15829566E-01 0.31153975E+03</pdfrwt>
<totfact> 0.95484025E+03</totfact>
</mgrwt>
</event>
<event>
12    1  0.1026879E-001  0.1780451E+03  0.7546771E-02  0.1169957E+00
         21   -1    0    0  503  502  0.00000000000E+00  0.00000000000E+00  0.36084214854E+03  0.36084214854E+03  0.00000000000E+00 0.  1.
         21   -1    0    0  501  503 -0.00000000000E+00 -0.00000000000E+00 -0.87373004903E+02  0.87373004903E+02  0.00000000000E+00 0.  1.
          6    2    1    2  501    0 -0.11930528413E+02  0.30977218887E+02  0.13978564239E+03  0.22556892424E+03  0.17389476176E+03 0.  0.
         24    2    3    3    0    0 -0.38228183285E+02  0.80223579864E+02  0.97408268969E+02  0.15532148657E+03  0.82092487866E+02 0.  0.
         -6    2    1    2    0  502  0.11930528413E+02 -0.30977218887E+02  0.13368350125E+03  0.22264622920E+03  0.17492323823E+03 0.  0.
        -24    2    5    5    0    0  0.15767028096E+02  0.42918567364E+02  0.11122644831E+03  0.14517549161E+03  0.81326489917E+02 0.  0.
          5    1    3    3  501    0  0.26297654872E+02 -0.49246360977E+02  0.42377373417E+02  0.70247437668E+02  0.47000000000E+01 0. -1.
        -13    1    4    4    0    0 -0.41864855712E+02  0.79930847341E+01  0.60830307343E+02  0.74275715000E+02  0.00000000000E+00 0.  1.
         14    1    4    4    0    0  0.36366724268E+01  0.72230495130E+02  0.36577961627E+02  0.81045771572E+02  0.00000000000E+00 0. -1.
         -5    1    5    5    0  502 -0.38364996833E+01 -0.73895786251E+02  0.22457052941E+02  0.77470737587E+02  0.47000000000E+01 0.  1.
         11    1    6    6    0    0 -0.33447450104E+02  0.17999285543E+02  0.49456549491E+02  0.62359093051E+02  0.00000000000E+00 0. -1.
        -12    1    6    6    0    0  0.49214478200E+02  0.24919281820E+02  0.61769898815E+02  0.82816398561E+02  0.00000000000E+00 0.  1.
<mgrwt>
<rscale>  2 0.17779200E+03</rscale>
<asrwt>0</asrwt>
<pdfrwt beam="1">  1       21 0.55514176E-01 0.17804512E+03</pdfrwt>
<pdfrwt beam="2">  1       21 0.13442001E-01 0.17804512E+03</pdfrwt>
<totfact> 0.14707412E+05</totfact>
</mgrwt>
</event>
<event>
12    1  0.1026879E-001  0.1917561E+03  0.7546771E-02  0.1157717E+00
         21   -1    0    0  501  502  0.00000000000E+00  0.00000000000E+00  0.48613745873E+03  0.48613745873E+03  0.00000000000E+00 0. -1.
         21   -1    0    0  502  503 -0.00000000000E+00 -0.00000000000E+00 -0.76482615431E+02  0.76482615431E+02  0.00000000000E+00 0. -1.
         -6    2    1    2    0  503 -0.12145694980E+02 -0.72813536226E+02  0.15419484905E+03  0.24319840475E+03  0.17297422824E+03 0.  0.
        -24    2    3    3    0    0 -0.56723756758E+02 -0.64856780341E+01  0.12437961481E+03  0.15777225795E+03  0.78499351584E+02 0.  0.
          6    2    1    2  501    0  0.12145694980E+02  0.72813536226E+02  0.25545999424E+03  0.31942166940E+03  0.17697758407E+03 0.  0.
         24    2    5    5    0    0 -0.45346369867E+02  0.70904992688E+02  0.22725930756E+03  0.25518500707E+03  0.79929867451E+02 0.  0.
          5    1    5    5  501    0  0.57492064846E+02  0.19085435379E+01  0.28200686680E+02  0.64236662335E+02  0.47000000000E+01 0. -1.
        -13    1    6    6    0    0  0.37575219830E+01 -0.15160204580E+02  0.19321440193E+02  0.24844895361E+02  0.00000000000E+00 0.  1.
         14    1    6    6    0    0 -0.49103891850E+02  0.86065197267E+02  0.20793786737E+03  0.23034011171E+03  0.00000000000E+00 0. -1.
         -5    1    3    3    0  503  0.44578061778E+02 -0.66327858191E+02  0.29815234243E+02  0.85426146800E+02  0.47000000000E+01 0.  1.
         13    1    4    4    0    0 -0.20109293147E+02 -0.27046823695E+02  0.10724875672E+03  0.11241979435E+03  0.00000000000E+00 0. -1.
        -14    1    4    4    0    0 -0.36614463610E+02  0.20561145661E+02  0.17130858090E+02  0.45352463607E+02  0.00000000000E+00 0.  1.
<mgrwt>
<rscale>  2 0.19082723E+03</rscale>
<asrwt>0</asrwt>
<pdfrwt beam="1">  1       21 0.74790376E-01 0.19175608E+03</pdfrwt>
<pdfrwt beam="2">  1       21 0.11766557E-01 0.19175608E+03</pdfrwt>
<totfact> 0.97279249E+04</totfact>
</mgrwt>
</event>
<event>
12    1  0.1026879E-001  0.2358816E+03  0.7546771E-02  0.1122735E+00
         21   -1    0    0  503  502  0.00000000000E+00  0.00000000000E+00  0.26777200242E+04  0.26777200242E+04  0.00000000000E+00 0. -1.
         21   -1    0    0  501  503 -0.00000000000E+00 -0.00000000000E+00 -0.82201877321E+02  0.82201877321E+02  0.00000000000E+00 0. -1.
          6    2    1    2  501    0  0.49470394454E+02 -0.15274209777E+03  0.10337667581E+03  0.25664220330E+03  0.17146724193E+03 0.  0.
         24    2    3    3    0    0  0.16883957634E+00 -0.18647798648E+02  0.75325419668E+02  0.11096829575E+03  0.79323860921E+02 0.  0.
         -6    2    1    2    0  502 -0.49470394454E+02  0.15274209777E+03  0.24921414710E+04  0.25032796982E+04  0.17280818080E+03 0.  0.
        -24    2    5    5    0    0 -0.75277663226E+02  0.16941089431E+03  0.22597033888E+04  0.22687729478E+04  0.81881045870E+02 0.  0.
          5    1    3    3  501    0  0.49301554877E+02 -0.13409429912E+03  0.28051256142E+02  0.14567390755E+03  0.47000000000E+01 0. -1.
        -11    1    4    4    0    0 -0.29351127568E+02 -0.81891554314E+01  0.11968956064E+01  0.30495631085E+02  0.00000000000E+00 0.  1.
         12    1    4    4    0    0  0.29519967144E+02 -0.10458643216E+02  0.74128524062E+02  0.80472664661E+02  0.00000000000E+00 0. -1.
         -5    1    5    5    0  502  0.25807268772E+02 -0.16668796537E+02  0.23243808224E+03  0.23450675038E+03  0.47000000000E+01 0.  1.
         13    1    6    6    0    0 -0.12192417411E+01  0.10243964176E+03  0.10762876838E+04  0.10811524152E+04  0.00000000000E+00 0. -1.
        -14    1    6    6    0    0 -0.74058421485E+02  0.66971252545E+02  0.11834157050E+04  0.11876205326E+04  0.00000000000E+00 0.  1.
<mgrwt>
<rscale>  2 0.23563608E+03</rscale>
<asrwt>0</asrwt>
<pdfrwt beam="1">  1       21 0.41195686E+00 0.23588161E+03</pdfrwt>
<pdfrwt beam="2">  1       21 0.12646445E-01 0.23588161E+03</pdfrwt>
<totfact> 0.36664016E+02</totfact>
</mgrwt>
</event>
<event>
12    1  0.1026879E-001  0.1929247E+03  0.7546771E-02  0.1155880E+00
         21   -1    0    0  503  502  0.00000000000E+00  0.00000000000E+00  0.17779976057E+02  0.17779976057E+02  0.00000000000E+00 0. -1.
         21   -1    0    0  501  503 -0.00000000000E+00 -0.00000000000E+00 -0.21720112207E+04  0.21720112207E+04  0.00000000000E+00 0.  1.
          6    2    1    2  501    0 -0.54615538376E+02  0.65589639009E+02 -0.86717819248E+03  0.88837940466E+03  0.17301760411E+03 0.  0.
         24    2    3    3    0    0 -0.92438686771E+02  0.60383074944E+02 -0.45206086411E+03  0.47148351217E+03  0.75806667469E+02 0.  0.
         -6    2    1    2    0  502  0.54615538376E+02 -0.65589639009E+02 -0.12870530522E+04  0.13014117921E+04  0.17286479039E+03 0.  0.
        -24    2    5    5    0    0  0.44394248895E+02 -0.40614544912E+00 -0.10834488452E+04  0.10873320740E+04  0.80365569637E+02 0.  0.
          5    1    3    3  501    0  0.37823148395E+02  0.52065640649E+01 -0.41511732837E+03  0.41689589249E+03  0.47000000000E+01 0. -1.
        -13    1    4    4    0    0 -0.78181203891E+02  0.21239681034E+02 -0.37729387486E+03  0.38589388787E+03  0.00000000000E+00 0.  1.
         14    1    4    4    0    0 -0.14257482880E+02  0.39143393910E+02 -0.74766989258E+02  0.85589624299E+02  0.00000000000E+00 0. -1.
         -5    1    5    5    0  502  0.10221289481E+02 -0.65183493560E+02 -0.20360420699E+03  0.21407971808E+03  0.47000000000E+01 0.  1.
         11    1    6    6    0    0  0.47916635458E+02 -0.59496407129E+01 -0.30040526602E+03  0.30426095056E+03  0.00000000000E+00 0. -1.
        -12    1    6    6    0    0 -0.35223865630E+01  0.55434952637E+01 -0.78304357918E+03  0.78307112348E+03  0.00000000000E+00 0.  1.
<mgrwt>
<rscale>  2 0.19289046E+03</rscale>
<asrwt>0</asrwt>
<pdfrwt beam="1">  1       21 0.27353808E-02 0.19292472E+03</pdfrwt>
<pdfrwt beam="2">  1       21 0.33415559E+00 0.19292472E+03</pdfrwt>
<totfact> 0.15956758E+04</totfact>
</mgrwt>
</event>
<event>
12    1  0.1026879E-001  0.2041865E+03  0.7546771E-02  0.1146371E+00
         21   -1    0    0  503  502  0.00000000000E+00  0.00000000000E+00  0.17704479333E+03  0.17704479333E+03  0.00000000000E+00 0. -1.
         21   -1    0    0  501  503 -0.00000000000E+00 -0.00000000000E+00 -0.27254360043E+03  0.27254360043E+03  0.00000000000E+00 0.  1.
          6    2    1    2  501    0 -0.10691870037E+03 -0.10736629928E+02  0.35924388247E+02  0.20676294125E+03  0.17295510542E+03 0.  0.
         24    2    3    3    0    0 -0.31421268387E+02 -0.47344759366E+02 -0.24380704953E+02  0.10332788122E+03  0.82785324283E+02 0.  0.
         -6    2    1    2    0  502  0.10691870037E+03  0.10736629928E+02 -0.13142319535E+03  0.24282545252E+03  0.17362390505E+03 0.  0.
        -24    2    5    5    0    0  0.11360640345E+03 -0.34712283651E+02 -0.56124225735E+02  0.15449451829E+03  0.81285115027E+02 0.  0.
          5    1    3    3  501    0 -0.75497431984E+02  0.36608129438E+02  0.60305093200E+02  0.10343506003E+03  0.47000000000E+01 0. -1.
        -11    1    4    4    0    0  0.13283461949E+01 -0.19377903153E+02 -0.49706794096E+02  0.53366965564E+02  0.00000000000E+00 0.  1.
         12    1    4    4    0    0 -0.32749614582E+02 -0.27966856213E+02  0.25326089143E+02  0.49960915654E+02  0.00000000000E+00 0. -1.
         -5    1    5    5    0  502 -0.66877030787E+01  0.45448913578E+02 -0.75298969613E+02  0.88330934234E+02  0.47000000000E+01 0.  1.
         11    1    6    6    0    0  0.61152246857E+02  0.18388200634E+02 -0.50571465863E+01  0.64056989859E+02  0.00000000000E+00 0. -1.
        -12    1    6    6    0    0  0.52454156593E+02 -0.53100484285E+02 -0.51067079149E+02  0.90437528427E+02  0.00000000000E+00 0.  1.
<mgrwt>
<rscale>  2 0.20404430E+03</rscale>
<asrwt>0</asrwt>
<pdfrwt beam="1">  1       21 0.27237660E-01 0.20418654E+03</pdfrwt>
<pdfrwt beam="2">  1       21 0.41929785E-01 0.20418654E+03</pdfrwt>
<totfact> 0.69993403E+04</totfact>
</mgrwt>
</event>
<event>
12    1  0.1026879E-001  0.2016777E+03  0.7546771E-02  0.1148608E+00
         21   -1    0    0  503  502  0.00000000000E+00  0.00000000000E+00  0.82291533225E+03  0.82291533225E+03  0.00000000000E+00 0. -1.
         21   -1    0    0  501  503 -0.00000000000E+00 -0.00000000000E+00 -0.89403065793E+02  0.89403065793E+02  0.00000000000E+00 0. -1.
          6    2    1    2  501    0  0.88047968203E+02  0.52838830316E+02  0.61157042006E+02  0.21074648265E+03  0.17357853977E+03 0.  0.
         24    2    3    3    0    0  0.49012720706E+02  0.58003388609E+02  0.10334917424E+03  0.15284407136E+03  0.83148171675E+02 0.  0.
         -6    2    1    2    0  502 -0.88047968203E+02 -0.52838830316E+02  0.67235522446E+03  0.70157191540E+03  0.17203841993E+03 0.  0.
        -24    2    5    5    0    0 -0.94370845904E+02  0.18463385348E+02  0.43990879871E+03  0.45830782930E+03  0.85320349665E+02 0.  0.
          5    1    3    3  501    0  0.39035247497E+02 -0.51645582934E+01 -0.42192132239E+02  0.57902411283E+02  0.47000000000E+01 0. -1.
        -13    1    4    4    0    0 -0.56638154742E+01  0.45407381443E+02  0.79810445956E+02  0.91997915080E+02  0.00000000000E+00 0.  1.
         14    1    4    4    0    0  0.54676536180E+02  0.12596007166E+02  0.23538728288E+02  0.60846156285E+02  0.00000000000E+00 0. -1.
         -5    1    5    5    0  502  0.63228777015E+01 -0.71302215664E+02  0.23244642575E+03  0.24326408610E+03  0.47000000000E+01 0.  1.
         13    1    6    6    0    0 -0.20286281811E+02 -0.12609837141E+02  0.21123396565E+02  0.31886346684E+02  0.00000000000E+00 0. -1.
        -14    1    6    6    0    0 -0.74084564093E+02  0.31073222489E+02  0.41878540214E+03  0.42642148262E+03  0.00000000000E+00 0.  1.
<mgrwt>
<rscale>  2 0.20134588E+03</rscale>
<asrwt>0</asrwt>
<pdfrwt beam="1">  1       21 0.12660235E+00 0.20167770E+03</pdfrwt>
<pdfrwt beam="2">  1       21 0.13754318E-01 0.20167770E+03</pdfrwt>
<totfact> 0.21090893E+04</totfact>
</mgrwt>
</event>
<event>
12    1  0.1026879E-001  0.1905250E+03  0.7546771E-02  0.1158147E+00
         21   -1    0    0  503  502  0.00000000000E+00  0.00000000000E+00  0.93565309331E+03  0.93565309331E+03  0.00000000000E+00 0. -1.
         21   -1    0    0  501  503 -0.00000000000E+00 -0.00000000000E+00 -0.44125784394E+02  0.44125784394E+02  0.00000000000E+00 0. -1.
          6    2    1    2  501    0 -0.43275071518E+02 -0.65604231622E+02  0.27396318000E+03  0.33369986500E+03  0.17356015927E+03 0.  0.
         24    2    3    3    0    0 -0.71218256191E+01  0.17282925340E+02  0.61816372835E+02  0.10303626629E+03  0.80285666920E+02 0.  0.
         -6    2    1    2    0  502  0.43275071518E+02  0.65604231622E+02  0.61756412891E+03  0.64607901270E+03  0.17278886049E+03 0.  0.
        -24    2    5    5    0    0 -0.27856905483E+02  0.92293304174E+01  0.40263951302E+03  0.41272827207E+03  0.85818770639E+02 0.  0.
          5    1    3    3  501    0 -0.36153245899E+02 -0.82887156962E+02  0.21214680717E+03  0.23066359871E+03  0.47000000000E+01 0. -1.
        -11    1    4    4    0    0  0.81100416380E+01 -0.95343772852E+01 -0.15425339201E+02  0.19864999750E+02  0.00000000000E+00 0.  1.
         12    1    4    4    0    0 -0.15231867257E+02  0.26817302625E+02  0.77241712036E+02  0.83171266544E+02  0.00000000000E+00 0. -1.
         -5    1    5    5    0  502  0.71131977001E+02  0.56374901204E+02  0.21492461589E+03  0.23335074063E+03  0.47000000000E+01 0.  1.
         11    1    6    6    0    0  0.18397547760E+02 -0.19552960533E+02  0.59311100299E+02  0.65104490228E+02  0.00000000000E+00 0. -1.
        -12    1    6    6    0    0 -0.46254453243E+02  0.28782290950E+02  0.34332841273E+03  0.34762378184E+03  0.00000000000E+00 0.  1.
<mgrwt>
<rscale>  2 0.19034917E+03</rscale>
<asrwt>0</asrwt>
<pdfrwt beam="1">  1       21 0.14394661E+00 0.19052500E+03</pdfrwt>
<pdfrwt beam="2">  1       21 0.67885829E-02 0.19052500E+03</pdfrwt>
<totfact> 0.53160673E+04</totfact>
</mgrwt>
</event>
<event>
12    1  0.1026879E-001  0.2176611E+03  0.7546771E-02  0.1135897E+00
         21   -1    0    0  501  502  0.00000000000E+00  0.00000000000E+00  0.55665512338E+03  0.55665512338E+03  0.00000000000E+00 0.  1.
         21   -1    0    0  502  503 -0.00000000000E+00 -0.00000000000E+00 -0.17909567877E+03  0.17909567877E+03  0.00000000000E+00 0. -1.
         -6    2    1    2    0  503  0.13059825124E+03  0.10320662184E+02 -0.78747178365E+02  0.23018965609E+03  0.17211548557E+03 0.  0.
        -24    2    3    3    0    0  0.49311387891E+02  0.51340534095E+02 -0.88354375715E+02  0.13851320172E+03  0.79447768536E+02 0.  0.
          6    2    1    2  501    0 -0.13059825124E+03 -0.10320662184E+02  0.45630662297E+03  0.50556114606E+03  0.17382151463E+03 0.  0.
         24    2    5    5    0    0 -0.13450317273E+03  0.60384407241E+01  0.46146900749E+03  0.48735101499E+03  0.80186038057E+02 0.  0.
          5    1    5    5  501    0  0.39049214876E+01 -0.16359102908E+02 -0.51623845188E+01  0.18210131073E+02  0.47000000000E+01 0. -1.
        -11    1    6    6    0    0 -0.84422775903E+02 -0.38148380898E+01  0.39281546868E+03  0.40180312407E+03  0.00000000000E+00 0.  1.
         12    1    6    6    0    0 -0.50080396824E+02  0.98532788138E+01  0.68653538813E+02  0.85547890921E+02  0.00000000000E+00 0. -1.
         -5    1    3    3    0  503  0.81286863349E+02 -0.41019871911E+02  0.96071973501E+01  0.91676454369E+02  0.47000000000E+01 0.  1.
         11    1    4    4    0    0  0.48312696256E+02 -0.65481072868E+01 -0.41813187901E+02  0.64228786467E+02  0.00000000000E+00 0. -1.
        -12    1    4    4    0    0  0.99869163411E+00  0.57888641382E+02 -0.46541187814E+02  0.74284415251E+02  0.00000000000E+00 0.  1.
<mgrwt>
<rscale>  2 0.21732027E+03</rscale>
<asrwt>0</asrwt>
<pdfrwt beam="1">  1       21 0.85639249E-01 0.21766106E+03</pdfrwt>
<pdfrwt beam="2">  1       21 0.27553182E-01 0.21766106E+03</pdfrwt>
<totfact> 0.14571211E+04</totfact>
</mgrwt>
</event>
<event>
12    1  0.1026879E-001  0.2008136E+03  0.7546771E-02  0.1149286E+00
         21   -1    0    0  501  502  0.00000000000E+00  0.00000000000E+00  0.16610803659E+04  0.16610803659E+04  0.00000000000E+00 0.  1.
         21   -1    0    0  502  503 -0.00000000000E+00 -0.00000000000E+00 -0.46954457548E+02  0.46954457548E+02  0.00000000000E+00 0.  1.
         -6    2    1    2    0  503  0.66638949112E+02  0.74539693744E+02  0.21068600872E+03  0.29030083637E+03  0.17288454484E+03 0.  0.
        -24    2    3    3    0    0  0.54831841297E+02  0.11861146404E+03  0.16933559683E+03  0.22854587466E+03  0.80519949385E+02 0.  0.
          6    2    1    2  501    0 -0.66638949112E+02 -0.74539693744E+02  0.14034398997E+04  0.14177339871E+04  0.17415277995E+03 0.  0.
         24    2    5    5    0    0 -0.42840026923E+02 -0.67566136670E+02  0.13746359919E+04  0.13794354976E+04  0.82569552993E+02 0.  0.
          5    1    5    5  501    0 -0.23798922189E+02 -0.69735570737E+01  0.28803907716E+02  0.38298489465E+02  0.47000000000E+01 0. -1.
        -13    1    6    6    0    0 -0.36896736898E+02 -0.47095479151E+02  0.38942069663E+03  0.39398963478E+03  0.00000000000E+00 0.  1.
         14    1    6    6    0    0 -0.59432900253E+01 -0.20470657519E+02  0.98521529531E+03  0.98544586286E+03  0.00000000000E+00 0. -1.
         -5    1    3    3    0  503  0.11807107815E+02 -0.44071770295E+02  0.41350411890E+02  0.61754961707E+02  0.47000000000E+01 0.  1.
         13    1    4    4    0    0  0.32365383378E+02  0.49962965715E+02  0.13706352431E+03  0.14943301402E+03  0.00000000000E+00 0. -1.
        -14    1    4    4    0    0  0.22466457919E+02  0.68648498324E+02  0.32272072525E+02  0.79112860640E+02  0.00000000000E+00 0.  1.
<mgrwt>
<rscale>  2 0.20053833E+03</rscale>
<asrwt>0</asrwt>
<pdfrwt beam="1">  1       21 0.25555078E+00 0.20081361E+03</pdfrwt>
<pdfrwt beam="2">  1       21 0.72237640E-02 0.20081361E+03</pdfrwt>
<totfact> 0.87677139E+03</totfact>
</mgrwt>
</event>
<event>
12    1  0.1026879E-001  0.2035538E+03  0.7546771E-02  0.1147239E+00
         21   -1    0    0  503  502  0.00000000000E+00  0.00000000000E+00  0.10337642492E+03  0.10337642492E+03  0.00000000000E+00 0.  1.
         21   -1    0    0  501  503 -0.00000000000E+00 -0.00000000000E+00 -0.48663305085E+03  0.48663305085E+03  0.00000000000E+00 0.  1.
          6    2    1    2  501    0 -0.38656110605E+02  0.94988266214E+02 -0.31778688934E+03  0.37618612760E+03  0.17323518684E+03 0.  0.
         24    2    3    3    0    0 -0.86628195379E+02  0.87888203250E+02 -0.17257704259E+03  0.22302046106E+03  0.68749617600E+02 0.  0.
         -6    2    1    2    0  502  0.38656110605E+02 -0.94988266214E+02 -0.65469736591E+02  0.21382334818E+03  0.17583251181E+03 0.  0.
        -24    2    5    5    0    0  0.22891865457E+02  0.38292557328E+01 -0.74110876803E+02  0.11327399028E+03  0.82461349190E+02 0.  0.
          5    1    3    3  501    0  0.47972084774E+02  0.71000629642E+01 -0.14520984675E+03  0.15316566654E+03  0.47000000000E+01 0. -1.
        -11    1    4    4    0    0  0.25726897398E+01 -0.67626371534E+01 -0.26334119816E+02  0.27310032227E+02  0.00000000000E+00 0.  1.
         12    1    4    4    0    0 -0.89200885119E+02  0.94650840404E+02 -0.14624292277E+03  0.19571042884E+03  0.00000000000E+00 0. -1.
         -5    1    5    5    0  502  0.15764245148E+02 -0.98817521947E+02  0.86411402117E+01  0.10054935789E+03  0.47000000000E+01 0.  1.
         11    1    6    6    0    0  0.42424957610E+02 -0.89420824965E+01 -0.78357577943E+02  0.89553045111E+02  0.00000000000E+00 0. -1.
        -12    1    6    6    0    0 -0.19533092153E+02  0.12771338229E+02  0.42467011400E+01  0.23720945170E+02  0.00000000000E+00 0.  1.
<mgrwt>
<rscale>  2 0.20299161E+03</rscale>
<asrwt>0</asrwt>
<pdfrwt beam="1">  1       21 0.15904065E-01 0.20355377E+03</pdfrwt>
<pdfrwt beam="2">  1       21 0.74866623E-01 0.20355377E+03</pdfrwt>
<totfact> 0.55978405E+04</totfact>
</mgrwt>
</event>
<event>
12    1  0.1026879E-001  0.2816107E+03  0.7546771E-02  0.1094854E+00
         21   -1    0    0  503  502  0.00000000000E+00  0.00000000000E+00  0.78869357298E+02  0.78869357298E+02  0.00000000000E+00 0. -1.
         21   -1    0    0  501  503 -0.00000000000E+00 -0.00000000000E+00 -0.10629807297E+04  0.10629807297E+04  0.00000000000E+00 0.  1.
          6    2    1    2  501    0 -0.17602884656E+03  0.13503811719E+03 -0.62632217721E+03  0.68671977057E+03  0.17344487800E+03 0.  0.
         24    2    3    3    0    0 -0.79353572062E+02  0.60513518377E+02 -0.15548155792E+03  0.20029094402E+03  0.77350320589E+02 0.  0.
         -6    2    1    2    0  502  0.17602884656E+03 -0.13503811719E+03 -0.35778919523E+03  0.45513031647E+03  0.17294232804E+03 0.  0.
        -24    2    5    5    0    0  0.48786143723E+02 -0.10472881939E+03 -0.24321962635E+03  0.28118309725E+03  0.80993420154E+02 0.  0.
          5    1    3    3  501    0 -0.96675274502E+02  0.74524598816E+02 -0.47084061929E+03  0.48642882655E+03  0.47000000000E+01 0. -1.
        -11    1    4    4    0    0 -0.46881313818E+01 -0.11684473583E+02  0.83190640798E+00  0.12617351824E+02  0.00000000000E+00 0.  1.
         12    1    4    4    0    0 -0.74665440680E+02  0.72197991961E+02 -0.15631346433E+03  0.18767359219E+03  0.00000000000E+00 0. -1.
         -5    1    5    5    0  502  0.12724270284E+03 -0.30309297807E+02 -0.11456956887E+03  0.17394721921E+03  0.47000000000E+01 0.  1.
         13    1    6    6    0    0  0.10014748310E+02 -0.17656182721E+01  0.37316525844E+01  0.10832258426E+02  0.00000000000E+00 0. -1.
        -14    1    6    6    0    0  0.38771395414E+02 -0.10296320111E+03 -0.24695127894E+03  0.27035083883E+03  0.00000000000E+00 0.  1.
<mgrwt>
<rscale>  2 0.28153333E+03</rscale>
<asrwt>0</asrwt>
<pdfrwt beam="1">  1       21 0.12133748E-01 0.28161068E+03</pdfrwt>
<pdfrwt beam="2">  1       21 0.16353549E+00 0.28161068E+03</pdfrwt>
<totfact> 0.12901323E+04</totfact>
</mgrwt>
</event>
<event>
12    1  0.1026879E-001  0.2000893E+03  0.7546771E-02  0.1149958E+00
         21   -1    0    0  503  502  0.00000000000E+00  0.00000000000E+00  0.19725882885E+03  0.19725882885E+03  0.00000000000E+00 0.  1.
         21   -1    0    0  501  503 -0.00000000000E+00 -0.00000000000E+00 -0.25278577808E+03  0.25278577808E+03  0.00000000000E+00 0.  1.
          6    2    1    2  501    0 -0.80623123943E+02 -0.52965492981E+02 -0.12914241587E+03  0.23814593713E+03  0.17530057683E+03 0.  0.
         24    2    3    3    0    0 -0.11694917916E+03 -0.68838725338E+02 -0.88901795508E+02  0.18146314151E+03  0.81298596976E+02 0.  0.
         -6    2    1    2    0  502  0.80623123943E+02  0.52965492981E+02  0.73615466641E+02  0.21189866980E+03  0.17371349335E+03 0.  0.
        -24    2    5    5    0    0  0.16726196433E+02 -0.34232258201E+02  0.50754027955E+02  0.10130481583E+03  0.78962530407E+02 0.  0.
          5    1    3    3  501    0  0.36326055213E+02  0.15873232357E+02 -0.40240620362E+02  0.56682795626E+02  0.47000000000E+01 0. -1.
        -11    1    4    4    0    0 -0.45477173962E+02 -0.57626014797E+02 -0.79991049535E+02  0.10857024887E+03  0.00000000000E+00 0.  1.
         12    1    4    4    0    0 -0.71472005195E+02 -0.11212710541E+02 -0.89107459735E+01  0.72892892644E+02  0.00000000000E+00 0. -1.
         -5    1    5    5    0  502  0.63896927510E+02  0.87197751182E+02  0.22861438686E+02  0.11059385397E+03  0.47000000000E+01 0.  1.
         11    1    6    6    0    0  0.45704167714E+02 -0.25613846031E+02  0.15030497316E+02  0.54505558474E+02  0.00000000000E+00 0. -1.
        -12    1    6    6    0    0 -0.28977971281E+02 -0.86184121700E+01  0.35723530639E+02  0.46799257357E+02  0.00000000000E+00 0.  1.
<mgrwt>
<rscale>  2 0.19974113E+03</rscale>
<asrwt>0</asrwt>
<pdfrwt beam="1">  1       21 0.30347512E-01 0.20008929E+03</pdfrwt>
<pdfrwt beam="2">  1       21 0.38890119E-01 0.20008929E+03</pdfrwt>
<totfact> 0.66202289E+04</totfact>
</mgrwt>
</event>
<event>
12    1  0.1026879E-001  0.2311549E+03  0.7546771E-02  0.1126257E+00
         21   -1    0    0  501  502  0.00000000000E+00  0.00000000000E+00  0.36817416179E+02  0.36817416179E+02  0.00000000000E+00 0. -1.
         21   -1    0    0  502  503 -0.00000000000E+00 -0.00000000000E+00 -0.28456639532E+04  0.28456639532E+04  0.00000000000E+00 0. -1.
         -6    2    1    2    0  503  0.14192036515E+03  0.44646713891E+02 -0.24150328029E+04  0.24258394410E+04  0.17372056631E+03 0.  0.
        -24    2    3    3    0    0  0.95017176555E+02  0.42730158138E+02 -0.22635627128E+04  0.22671924728E+04  0.74775825498E+02 0.  0.
          6    2    1    2  501    0 -0.14192036515E+03 -0.44646713891E+02 -0.39381373415E+03  0.45664192844E+03  0.17691205301E+03 0.  0.
         24    2    5    5    0    0 -0.18594968816E+02  0.31114697403E+01 -0.23733283583E+03  0.25170691673E+03  0.81694815379E+02 0.  0.
          5    1    5    5  501    0 -0.12332539633E+03 -0.47758183631E+02 -0.15648089832E+03  0.20493501171E+03  0.47000000000E+01 0. -1.
        -11    1    6    6    0    0  0.29322364941E+02 -0.11445844599E+02 -0.64598996121E+02  0.71859854885E+02  0.00000000000E+00 0.  1.
         12    1    6    6    0    0 -0.47917333757E+02  0.14557314339E+02 -0.17273383971E+03  0.17984706185E+03  0.00000000000E+00 0. -1.
         -5    1    3    3    0  503  0.46903188596E+02  0.19165557534E+01 -0.15147009012E+03  0.15864696810E+03  0.47000000000E+01 0.  1.
         13    1    4    4    0    0  0.25565980305E+02  0.25153951078E+02 -0.14605741696E+04  0.14610144577E+04  0.00000000000E+00 0. -1.
        -14    1    4    4    0    0  0.69451196249E+02  0.17576207059E+02 -0.80298854312E+03  0.80617801514E+03  0.00000000000E+00 0.  1.
<mgrwt>
<rscale>  2 0.23054416E+03</rscale>
<asrwt>0</asrwt>
<pdfrwt beam="1">  1       21 0.56642199E-02 0.23115491E+03</pdfrwt>
<pdfrwt beam="2">  1       21 0.43779430E+00 0.23115491E+03</pdfrwt>
<totfact> 0.10296125E+03</totfact>
</mgrwt>
</event>
<event>
12    1  0.1026879E-001  0.2361790E+03  0.7546771E-02  0.1122480E+00
         21   -1    0    0  501  502  0.00000000000E+00  0.00000000000E+00  0.25353744486E+03  0.25353744486E+03  0.00000000000E+00 0. -1.
         21   -1    0    0  502  503 -0.00000000000E+00 -0.00000000000E+00 -0.34838000056E+03  0.34838000056E+03  0.00000000000E+00 0. -1.
         -6    2    1    2    0  503 -0.75361282068E+02  0.14181526764E+03 -0.23051632172E+03  0.32954292121E+03  0.17224943940E+03 0.  0.
        -24    2    3    3    0    0 -0.57743875063E+02  0.68743397709E+02 -0.22369544655E+03  0.25392225246E+03  0.79855166721E+02 0.  0.
          6    2    1    2  501    0  0.75361282068E+02 -0.14181526764E+03  0.13567376602E+03  0.27237452421E+03  0.17317510699E+03 0.  0.
         24    2    5    5    0    0  0.12100832495E+03 -0.92615724879E+02  0.11193299790E+03  0.20103055738E+03  0.68290568732E+02 0.  0.
          5    1    5    5  501    0 -0.45647042885E+02 -0.49199542760E+02  0.23740768123E+02  0.71343966830E+02  0.47000000000E+01 0. -1.
        -13    1    6    6    0    0  0.45408437509E+02 -0.87576946969E+01  0.67737847632E+01  0.46738716001E+02  0.00000000000E+00 0.  1.
         14    1    6    6    0    0  0.75599887443E+02 -0.83858030182E+02  0.10515921314E+03  0.15429184138E+03  0.00000000000E+00 0. -1.
         -5    1    3    3    0  503 -0.17617407005E+02  0.73071869931E+02 -0.68208751711E+01  0.75620668754E+02  0.47000000000E+01 0.  1.
         13    1    4    4    0    0 -0.49447639385E+02  0.62055751295E+02 -0.90735422892E+02  0.12053589622E+03  0.00000000000E+00 0. -1.
        -14    1    4    4    0    0 -0.82962356774E+01  0.66876464135E+01 -0.13296002366E+03  0.13338635624E+03  0.00000000000E+00 0.  1.
<mgrwt>
<rscale>  2 0.23600932E+03</rscale>
<asrwt>0</asrwt>
<pdfrwt beam="1">  1       21 0.39005761E-01 0.23617898E+03</pdfrwt>
<pdfrwt beam="2">  1       21 0.53596923E-01 0.23617898E+03</pdfrwt>
<totfact> 0.20372135E+04</totfact>
</mgrwt>
</event>
<event>
12    1  0.1026879E-001  0.2017014E+03  0.7546771E-02  0.1148401E+00
         21   -1    0    0  503  502  0.00000000000E+00  0.00000000000E+00  0.12112266126E+03  0.12112266126E+03  0.00000000000E+00 0.  1.
         21   -1    0    0  501  503 -0.00000000000E+00 -0.00000000000E+00 -0.61497981156E+03  0.61497981156E+03  0.00000000000E+00 0.  1.
          6    2    1    2  501    0  0.24928039947E+02  0.10289283604E+03 -0.49504578620E+03  0.53439755807E+03  0.17117849384E+03 0.  0.
         24    2    3    3    0    0 -0.10401772782E+02  0.83597855587E+02 -0.47517649157E+03  0.48926031395E+03  0.80536689301E+02 0.  0.
         -6    2    1    2    0  502 -0.24928039947E+02 -0.10289283604E+03  0.11886358999E+01  0.20170491474E+03  0.17168318756E+03 0.  0.
        -24    2    5    5    0    0  0.36582943361E+02 -0.19948160769E+02  0.29512377427E+02  0.94524018322E+02  0.79546016590E+02 0.  0.
          5    1    3    3  501    0  0.35329812729E+02  0.19294980456E+02 -0.19869294626E+02  0.45137244125E+02  0.47000000000E+01 0. -1.
        -11    1    4    4    0    0  0.10328135624E+02 -0.10137936850E+01 -0.58410697308E+01  0.11908663179E+02  0.00000000000E+00 0.  1.
         12    1    4    4    0    0 -0.20729908406E+02  0.84611649272E+02 -0.46933542184E+03  0.47735165077E+03  0.00000000000E+00 0. -1.
         -5    1    5    5    0  502 -0.61510983308E+02 -0.82944675274E+02 -0.28323741527E+02  0.10718089642E+03  0.47000000000E+01 0.  1.
         11    1    6    6    0    0 -0.10551244791E+02  0.21439659123E+02 -0.26341491209E+01  0.24040101737E+02  0.00000000000E+00 0. -1.
        -12    1    6    6    0    0  0.47134188152E+02 -0.41387819891E+02  0.32146526548E+02  0.70483916585E+02  0.00000000000E+00 0.  1.
<mgrwt>
<rscale>  2 0.20159397E+03</rscale>
<asrwt>0</asrwt>
<pdfrwt beam="1">  1       21 0.18634255E-01 0.20170141E+03</pdfrwt>
<pdfrwt beam="2">  1       21 0.94612282E-01 0.20170141E+03</pdfrwt>
<totfact> 0.24494935E+04</totfact>
</mgrwt>
</event>
<event>
12    1  0.1026879E-001  0.1949473E+03  0.7546771E-02  0.1154478E+00
         21   -1    0    0  503  502  0.00000000000E+00  0.00000000000E+00  0.21059353534E+03  0.21059353534E+03  0.00000000000E+00 0.  1.
         21   -1    0    0  501  503 -0.00000000000E+00 -0.00000000000E+00 -0.25484385435E+03  0.25484385435E+03  0.00000000000E+00 0.  1.
          6    2    1    2  501    0 -0.48306847393E+02  0.69611193378E+02 -0.14920829576E+03  0.24403137563E+03  0.17351924107E+03 0.  0.
         24    2    3    3    0    0 -0.10300134646E+02  0.33873771845E+02 -0.16703849284E+03  0.18869893090E+03  0.80323740193E+02 0.  0.
         -6    2    1    2    0  502  0.48306847393E+02 -0.69611193378E+02  0.10495797675E+03  0.22140601406E+03  0.17557100110E+03 0.  0.
        -24    2    5    5    0    0 -0.28544503057E+02  0.49906984836E+01 -0.14201637934E+01  0.70376311281E+02  0.64117958469E+02 0.  0.
          5    1    3    3  501    0 -0.38006712747E+02  0.35737421533E+02  0.17830197088E+02  0.55332444731E+02  0.47000000000E+01 0. -1.
        -11    1    4    4    0    0  0.84983247820E+01  0.55888245262E+02 -0.88698950323E+02  0.10518184858E+03  0.00000000000E+00 0.  1.
         12    1    4    4    0    0 -0.18798459428E+02 -0.22014473417E+02 -0.78339542521E+02  0.83517082319E+02  0.00000000000E+00 0. -1.
         -5    1    5    5    0  502  0.76851350450E+02 -0.74601891862E+02  0.10637814054E+03  0.15102970278E+03  0.47000000000E+01 0.  1.
         11    1    6    6    0    0 -0.11100611513E+02 -0.29602506913E+02 -0.25878619154E+00  0.31616434995E+02  0.00000000000E+00 0. -1.
        -12    1    6    6    0    0 -0.17443891544E+02  0.34593205396E+02 -0.11613776019E+01  0.38759876286E+02  0.00000000000E+00 0.  1.
<mgrwt>
<rscale>  2 0.19448420E+03</rscale>
<asrwt>0</asrwt>
<pdfrwt beam="1">  1       21 0.32399005E-01 0.19494729E+03</pdfrwt>
<pdfrwt beam="2">  1       21 0.39206747E-01 0.19494729E+03</pdfrwt>
<totfact> 0.57431338E+04</totfact>
</mgrwt>
</event>
<event>
12    1  0.1026879E-001  0.1756058E+03  0.7546771E-02  0.1172206E+00
         21   -1    0    0  501  502  0.00000000000E+00  0.00000000000E+00  0.17796989469E+03  0.17796989469E+03  0.00000000000E+00 0.  1.
         21   -1    0    0  502  503 -0.00000000000E+00 -0.00000000000E+00 -0.21487095640E+03  0.21487095640E+03  0.00000000000E+00 0.  1.
         -6    2    1    2    0  503  0.85185144844E+01  0.26915181652E+02 -0.10519346646E+03  0.20442309719E+03  0.17299174890E+03 0.  0.
        -24    2    3    3    0    0  0.31368490333E+02 -0.44795201801E+02 -0.42595516068E+02  0.10641751631E+03  0.80744767622E+02 0.  0.
          6    2    1    2  501    0 -0.85185144844E+01 -0.26915181652E+02  0.68292404753E+02  0.18841775390E+03  0.17332168169E+03 0.  0.
         24    2    5    5    0    0 -0.71902612294E+02 -0.24615071376E+02  0.53288829601E+02  0.12307227487E+03  0.80815828197E+02 0.  0.
          5    1    5    5  501    0  0.63384097810E+02 -0.23001102761E+01  0.15003575151E+02  0.65345479031E+02  0.47000000000E+01 0. -1.
        -11    1    6    6    0    0 -0.47894972999E+02 -0.14229318595E+02  0.74288821913E+02  0.89527822533E+02  0.00000000000E+00 0.  1.
         12    1    6    6    0    0 -0.24007639295E+02 -0.10385752781E+02 -0.20999992311E+02  0.33544452335E+02  0.00000000000E+00 0. -1.
         -5    1    3    3    0  503 -0.22849975848E+02  0.71710383454E+02 -0.62597950388E+02  0.98005580883E+02  0.47000000000E+01 0.  1.
         13    1    4    4    0    0 -0.14049599098E+02 -0.21487352801E+02  0.14776485505E+02  0.29621648993E+02  0.00000000000E+00 0. -1.
        -14    1    4    4    0    0  0.45418089431E+02 -0.23307849001E+02 -0.57372001572E+02  0.76795867317E+02  0.00000000000E+00 0.  1.
<mgrwt>
<rscale>  2 0.17552434E+03</rscale>
<asrwt>0</asrwt>
<pdfrwt beam="1">  1       21 0.27379984E-01 0.17560580E+03</pdfrwt>
<pdfrwt beam="2">  1       21 0.33057070E-01 0.17560580E+03</pdfrwt>
<totfact> 0.11278196E+05</totfact>
</mgrwt>
</event>
<event>
12    1  0.1026879E-001  0.1830259E+03  0.7546771E-02  0.1165184E+00
         21   -1    0    0  501  502  0.00000000000E+00  0.00000000000E+00  0.41328140569E+03  0.41328140569E+03  0.00000000000E+00 0. -1.
         21   -1    0    0  502  503 -0.00000000000E+00 -0.00000000000E+00 -0.11785652186E+03  0.11785652186E+03  0.00000000000E+00 0. -1.
         -6    2    1    2    0  503 -0.23442624272E+02  0.52434411410E+02 -0.14014685348E+01  0.18303131289E+03  0.17378024414E+03 0.  0.
        -24    2    3    3    0    0  0.45700026727E+02  0.32172821026E+02 -0.34101292802E+02  0.10376841654E+03  0.80507162686E+02 0.  0.
          6    2    1    2  501    0  0.23442624272E+02 -0.52434411410E+02  0.29682635236E+03  0.34810661465E+03  0.17254972493E+03 0.  0.
         24    2    5    5    0    0  0.15166412648E+02 -0.19684366478E+02  0.46984677822E+02  0.95947907761E+02  0.79880828097E+02 0.  0.
          5    1    5    5  501    0  0.82762116241E+01 -0.32750044932E+02  0.24984167454E+03  0.25215870689E+03  0.47000000000E+01 0. -1.
        -11    1    6    6    0    0 -0.20517293558E+02 -0.35320678381E+02  0.96155337213E+01  0.41963890966E+02  0.00000000000E+00 0.  1.
         12    1    6    6    0    0  0.35683706207E+02  0.15636311903E+02  0.37369144100E+02  0.53984016795E+02  0.00000000000E+00 0. -1.
         -5    1    3    3    0  503 -0.69142650999E+02  0.20261590384E+02  0.32699824267E+02  0.79262896359E+02  0.47000000000E+01 0.  1.
         11    1    4    4    0    0  0.32445930818E+02  0.58809908314E+02 -0.30607193559E+02  0.73811544084E+02  0.00000000000E+00 0. -1.
        -12    1    4    4    0    0  0.13254095909E+02 -0.26637087288E+02 -0.34940992433E+01  0.29956872451E+02  0.00000000000E+00 0.  1.
<mgrwt>
<rscale>  2 0.18273326E+03</rscale>
<asrwt>0</asrwt>
<pdfrwt beam="1">  1       21 0.63581754E-01 0.18302595E+03</pdfrwt>
<pdfrwt beam="2">  1       21 0.18131773E-01 0.18302595E+03</pdfrwt>
<totfact> 0.63604411E+04</totfact>
</mgrwt>
</event>
<event>
12    1  0.1026879E-001  0.2613656E+03  0.7546771E-02  0.1106809E+00
         21   -1    0    0  501  502  0.00000000000E+00  0.00000000000E+00  0.11279671799E+03  0.11279671799E+03  0.00000000000E+00 0.  1.
         21   -1    0    0  502  503 -0.00000000000E+00 -0.00000000000E+00 -0.95559520943E+03  0.95559520943E+03  0.00000000000E+00 0.  1.
         -6    2    1    2    0  503  0.15231107112E+03 -0.12207291818E+03 -0.74972439670E+03  0.79397648680E+03  0.17381464512E+03 0.  0.
        -24    2    3    3    0    0  0.89765149911E+01 -0.19853473042E+02 -0.29449343148E+03  0.30586693799E+03  0.79708621629E+02 0.  0.
          6    2    1    2  501    0 -0.15231107112E+03  0.12207291818E+03 -0.93074094752E+02  0.27441544061E+03  0.16893959629E+03 0.  0.
         24    2    5    5    0    0 -0.11867174969E+03  0.10497203225E+03 -0.26229506768E+01  0.17629539317E+03  0.77272725161E+02 0.  0.
          5    1    5    5  501    0 -0.33639321427E+02  0.17100885933E+02 -0.90451144075E+02  0.98120047443E+02  0.47000000000E+01 0. -1.
        -13    1    6    6    0    0 -0.27468602250E+01  0.39799946370E+02 -0.15246983415E+02  0.42708915643E+02  0.00000000000E+00 0.  1.
         14    1    6    6    0    0 -0.11592488947E+03  0.65172085876E+02  0.12624032738E+02  0.13358647753E+03  0.00000000000E+00 0. -1.
         -5    1    3    3    0  503  0.14333455613E+03 -0.10221944514E+03 -0.45523096522E+03  0.48810954881E+03  0.47000000000E+01 0.  1.
         11    1    4    4    0    0 -0.11725938053E+02  0.18919041628E+02 -0.20455982798E+03  0.20576722524E+03  0.00000000000E+00 0. -1.
        -12    1    4    4    0    0  0.20702453044E+02 -0.38772514670E+02 -0.89933603499E+02  0.10009971276E+03  0.00000000000E+00 0.  1.
<mgrwt>
<rscale>  2 0.26055780E+03</rscale>
<asrwt>0</asrwt>
<pdfrwt beam="1">  1       21 0.17353342E-01 0.26136563E+03</pdfrwt>
<pdfrwt beam="2">  1       21 0.14701464E+00 0.26136563E+03</pdfrwt>
<totfact> 0.90364757E+03</totfact>
</mgrwt>
</event>
<event>
12    1  0.1026879E-001  0.1819424E+03  0.7546771E-02  0.1165945E+00
         21   -1    0    0  503  502  0.00000000000E+00  0.00000000000E+00  0.97094275528E+02  0.97094275528E+02  0.00000000000E+00 0. -1.
         21   -1    0    0  501  503 -0.00000000000E+00 -0.00000000000E+00 -0.50029714634E+03  0.50029714634E+03  0.00000000000E+00 0. -1.
          6    2    1    2  501    0 -0.32257758293E+02  0.47198293791E+02 -0.37020328188E+03  0.41248064303E+03  0.17268922681E+03 0.  0.
         24    2    3    3    0    0 -0.82131970011E+02  0.33498728002E+02 -0.17770782531E+03  0.21310234458E+03  0.77231553209E+02 0.  0.
         -6    2    1    2    0  502  0.32257758293E+02 -0.47198293791E+02 -0.32999588934E+02  0.18491077883E+03  0.17272747712E+03 0.  0.
        -24    2    5    5    0    0  0.29075410628E+01  0.26155391986E+02  0.23092812380E+02  0.87902294908E+02  0.80628637230E+02 0.  0.
          5    1    3    3  501    0  0.49874211719E+02  0.13699565789E+02 -0.19249545656E+03  0.19937829846E+03  0.47000000000E+01 0. -1.
        -11    1    4    4    0    0  0.15188024306E+02  0.37195126304E+01 -0.28127100311E+02  0.32181432977E+02  0.00000000000E+00 0.  1.
         12    1    4    4    0    0 -0.97319994317E+02  0.29779215372E+02 -0.14958072500E+03  0.18092091160E+03  0.00000000000E+00 0. -1.
         -5    1    5    5    0  502  0.29350217230E+02 -0.73353685777E+02 -0.56092401314E+02  0.97008483926E+02  0.47000000000E+01 0.  1.
         11    1    6    6    0    0 -0.28399195126E+02  0.18333937528E+01 -0.15643993318E+02  0.32474761637E+02  0.00000000000E+00 0. -1.
        -12    1    6    6    0    0  0.31306736189E+02  0.24321998233E+02  0.38736805697E+02  0.55427533271E+02  0.00000000000E+00 0.  1.
<mgrwt>
<rscale>  2 0.18193328E+03</rscale>
<asrwt>0</asrwt>
<pdfrwt beam="1">  1       21 0.14937581E-01 0.18194236E+03</pdfrwt>
<pdfrwt beam="2">  1       21 0.76968792E-01 0.18194236E+03</pdfrwt>
<totfact> 0.59595810E+04</totfact>
</mgrwt>
</event>
<event>
12    1  0.1026879E-001  0.3077273E+03  0.7546771E-02  0.1081502E+00
         21   -1    0    0  501  502  0.00000000000E+00  0.00000000000E+00  0.40500855969E+03  0.40500855969E+03  0.00000000000E+00 0.  1.
         21   -1    0    0  502  503 -0.00000000000E+00 -0.00000000000E+00 -0.24361152459E+03  0.24361152459E+03  0.00000000000E+00 0.  1.
         -6    2    1    2    0  503 -0.25005545243E+03  0.42947803749E+02  0.14310089953E+02  0.30754726058E+03  0.17322902666E+03 0.  0.
        -24    2    3    3    0    0 -0.68125389615E+02 -0.19361084938E+02  0.37075426362E+02  0.11384311528E+03  0.81053977917E+02 0.  0.
          6    2    1    2  501    0  0.25005545243E+03 -0.42947803749E+02  0.14708694515E+03  0.34107282371E+03  0.17413747013E+03 0.  0.
         24    2    5    5    0    0  0.18996559793E+03 -0.92328052799E+02  0.86190202173E+02  0.24218044324E+03  0.81309399252E+02 0.  0.
          5    1    5    5  501    0  0.60089854496E+02  0.49380249049E+02  0.60896742975E+02  0.98892380467E+02  0.47000000000E+01 0. -1.
        -11    1    6    6    0    0  0.11344949079E+03 -0.58802080231E+02  0.84444733012E+01  0.12806162864E+03  0.00000000000E+00 0.  1.
         12    1    6    6    0    0  0.76516107141E+02 -0.33525972568E+02  0.77745728872E+02  0.11411881460E+03  0.00000000000E+00 0. -1.
         -5    1    3    3    0  503 -0.18193006281E+03  0.62308888688E+02 -0.22765336410E+02  0.19370414530E+03  0.47000000000E+01 0.  1.
         13    1    4    4    0    0 -0.35239456029E+02  0.14368876380E+02  0.51990017444E+02  0.64430162063E+02  0.00000000000E+00 0. -1.
        -14    1    4    4    0    0 -0.32885933586E+02 -0.33729961318E+02 -0.14914591081E+02  0.49412953216E+02  0.00000000000E+00 0.  1.
<mgrwt>
<rscale>  2 0.30759895E+03</rscale>
<asrwt>0</asrwt>
<pdfrwt beam="1">  1       21 0.62309009E-01 0.30772732E+03</pdfrwt>
<pdfrwt beam="2">  1       21 0.37478696E-01 0.30772732E+03</pdfrwt>
<totfact> 0.15463209E+04</totfact>
</mgrwt>
</event>
<event>
12    1  0.1026879E-001  0.2974033E+03  0.7546771E-02  0.1086566E+00
         21   -1    0    0  501  502  0.00000000000E+00  0.00000000000E+00  0.44264054599E+03  0.44264054599E+03  0.00000000000E+00 0.  1.
         21   -1    0    0  502  503 -0.00000000000E+00 -0.00000000000E+00 -0.41564661266E+03  0.41564661266E+03  0.00000000000E+00 0.  1.
         -6    2    1    2    0  503 -0.49025915417E+02  0.23727750791E+03 -0.29581994921E+03  0.41935944790E+03  0.17218811820E+03 0.  0.
        -24    2    3    3    0    0  0.36110814252E+02  0.89556104806E+02 -0.10438659192E+03  0.16296386300E+03  0.79601339539E+02 0.  0.
          6    2    1    2  501    0  0.49025915417E+02 -0.23727750791E+03  0.32281388254E+03  0.43892771076E+03  0.17246616005E+03 0.  0.
         24    2    5    5    0    0  0.15066378784E+02 -0.20918006821E+03  0.32459586859E+03  0.39456577075E+03  0.79601336936E+02 0.  0.
          5    1    5    5  501    0  0.33959536633E+02 -0.28097439706E+02 -0.17819860458E+01  0.44361940001E+02  0.47000000000E+01 0. -1.
        -13    1    6    6    0    0  0.38102428596E+02 -0.13646662494E+03  0.25289618853E+03  0.28988172926E+03  0.00000000000E+00 0.  1.
         14    1    6    6    0    0 -0.23036049811E+02 -0.72713443266E+02  0.71699680058E+02  0.10468404149E+03  0.00000000000E+00 0. -1.
         -5    1    3    3    0  503 -0.85136729669E+02  0.14772140311E+03 -0.19143335729E+03  0.25639558490E+03  0.47000000000E+01 0.  1.
         13    1    4    4    0    0  0.18400534963E+02 -0.94494890143E+00  0.57657067464E+01  0.19305853766E+02  0.00000000000E+00 0. -1.
        -14    1    4    4    0    0  0.17710279289E+02  0.90501053708E+02 -0.11015229867E+03  0.14365800923E+03  0.00000000000E+00 0.  1.
<mgrwt>
<rscale>  2 0.29736302E+03</rscale>
<asrwt>0</asrwt>
<pdfrwt beam="1">  1       21 0.68098546E-01 0.29740332E+03</pdfrwt>
<pdfrwt beam="2">  1       21 0.63945633E-01 0.29740332E+03</pdfrwt>
<totfact> 0.41508278E+03</totfact>
</mgrwt>
</event>
<event>
12    1  0.1026879E-001  0.2806551E+03  0.7546771E-02  0.1095382E+00
         21   -1    0    0  503  502  0.00000000000E+00  0.00000000000E+00  0.27371998026E+03  0.27371998026E+03  0.00000000000E+00 0. -1.
         21   -1    0    0  501  503 -0.00000000000E+00 -0.00000000000E+00 -0.30740098533E+03  0.30740098533E+03  0.00000000000E+00 0. -1.
          6    2    1    2  501    0 -0.35900609734E+02 -0.21794085650E+03  0.57315962501E+02  0.28608240999E+03  0.17254261802E+03 0.  0.
         24    2    3    3    0    0 -0.35285702885E+02 -0.14740917917E+03 -0.30347522858E+02  0.17346770276E+03  0.78711656229E+02 0.  0.
         -6    2    1    2    0  502  0.35900609734E+02  0.21794085650E+03 -0.90996967572E+02  0.29503855560E+03  0.17314800164E+03 0.  0.
        -24    2    5    5    0    0  0.17711993301E+02  0.13045691555E+03  0.17616304707E+02  0.15431471751E+03  0.78549196857E+02 0.  0.
          5    1    3    3  501    0 -0.61490684926E+00 -0.70531677337E+02  0.87663485359E+02  0.11261470723E+03  0.47000000000E+01 0. -1.
        -11    1    4    4    0    0  0.93670750947E+01 -0.11240684949E+03 -0.10186171107E+02  0.11325546340E+03  0.00000000000E+00 0.  1.
         12    1    4    4    0    0 -0.44652777980E+02 -0.35002329673E+02 -0.20161351751E+02  0.60212239356E+02  0.00000000000E+00 0. -1.
         -5    1    5    5    0  502  0.18188616433E+02  0.87483940951E+02 -0.10861327228E+03  0.14072383809E+03  0.47000000000E+01 0.  1.
         13    1    6    6    0    0  0.43934797529E+02  0.10316546622E+03 -0.10015097185E+01  0.11213555580E+03  0.00000000000E+00 0. -1.
        -14    1    6    6    0    0 -0.26222804227E+02  0.27291449336E+02  0.18617814426E+02  0.42179161708E+02  0.00000000000E+00 0.  1.
<mgrwt>
<rscale>  2 0.28056181E+03</rscale>
<asrwt>0</asrwt>
<pdfrwt beam="1">  1       21 0.42110766E-01 0.28065513E+03</pdfrwt>
<pdfrwt beam="2">  1       21 0.47292459E-01 0.28065513E+03</pdfrwt>
<totfact> 0.22213033E+04</totfact>
</mgrwt>
</event>
<event>
12    1  0.1026879E-001  0.2112908E+03  0.7546771E-02  0.1140955E+00
         21   -1    0    0  501  502  0.00000000000E+00  0.00000000000E+00  0.12608412024E+04  0.12608412024E+04  0.00000000000E+00 0. -1.
         21   -1    0    0  502  503 -0.00000000000E+00 -0.00000000000E+00 -0.38199566805E+02  0.38199566805E+02  0.00000000000E+00 0. -1.
         -6    2    1    2    0  503  0.10933921543E+03  0.45249529846E+02  0.42244977350E+03  0.47142321749E+03  0.17254986200E+03 0.  0.
        -24    2    3    3    0    0  0.14261611056E+03  0.32132147984E+02  0.29272421945E+03  0.33677468676E+03  0.79736384788E+02 0.  0.
          6    2    1    2  501    0 -0.10933921543E+03 -0.45249529846E+02  0.80019186214E+03  0.82761755176E+03  0.17504631319E+03 0.  0.
         24    2    5    5    0    0 -0.56881447100E+01  0.41151348767E+01  0.18166097965E+03  0.19850471834E+03  0.79712748972E+02 0.  0.
          5    1    5    5  501    0 -0.10365107072E+03 -0.49364664723E+02  0.61853088249E+03  0.62911283343E+03  0.47000000000E+01 0. -1.
        -13    1    6    6    0    0  0.10659907570E+02 -0.31785236232E+02  0.12532017072E+03  0.12972694424E+03  0.00000000000E+00 0.  1.
         14    1    6    6    0    0 -0.16348052280E+02  0.35900371109E+02  0.56340808934E+02  0.68777774102E+02  0.00000000000E+00 0. -1.
         -5    1    3    3    0  503 -0.33276895129E+02  0.13117381862E+02  0.12972555405E+03  0.13464853074E+03  0.47000000000E+01 0.  1.
         11    1    4    4    0    0  0.60731570921E+02 -0.90014476762E+01  0.18722894049E+03  0.19703813317E+03  0.00000000000E+00 0. -1.
        -12    1    4    4    0    0  0.81884539640E+02  0.41133595661E+02  0.10549527896E+03  0.13973655358E+03  0.00000000000E+00 0.  1.
<mgrwt>
<rscale>  2 0.21077300E+03</rscale>
<asrwt>0</asrwt>
<pdfrwt beam="1">  1       21 0.19397554E+00 0.21129078E+03</pdfrwt>
<pdfrwt beam="2">  1       21 0.58768574E-02 0.21129078E+03</pdfrwt>
<totfact> 0.29624184E+04</totfact>
</mgrwt>
</event>
<event>
12    1  0.1026879E-001  0.2009403E+03  0.7546771E-02  0.1149333E+00
         21   -1    0    0  501  502  0.00000000000E+00  0.00000000000E+00  0.89829888626E+03  0.89829888626E+03  0.00000000000E+00 0. -1.
         21   -1    0    0  502  503 -0.00000000000E+00 -0.00000000000E+00 -0.63903228122E+02  0.63903228122E+02  0.00000000000E+00 0.  1.
         -6    2    1    2    0  503  0.92585832533E+02  0.39719280639E+02  0.15370301309E+03  0.25298544856E+03  0.17385989564E+03 0.  0.
        -24    2    3    3    0    0  0.10282568508E+02  0.10293827250E+01  0.65494912347E+01  0.79933478149E+02  0.78991608729E+02 0.  0.
          6    2    1    2  501    0 -0.92585832533E+02 -0.39719280639E+02  0.68069264505E+03  0.70921666582E+03  0.17174412483E+03 0.  0.
         24    2    5    5    0    0 -0.20068845789E+02 -0.58236123421E+02  0.21551605007E+03  0.23803417320E+03  0.80118007541E+02 0.  0.
          5    1    5    5  501    0 -0.72516986744E+02  0.18516842782E+02  0.46517659498E+03  0.47118249262E+03  0.47000000000E+01 0. -1.
        -11    1    6    6    0    0  0.12746195707E+02  0.23753316665E+01  0.13326514707E+01  0.13033942822E+02  0.00000000000E+00 0.  1.
         12    1    6    6    0    0 -0.32815041496E+02 -0.60611455087E+02  0.21418339860E+03  0.22500023038E+03  0.00000000000E+00 0. -1.
         -5    1    3    3    0  503  0.82303264025E+02  0.38689897913E+02  0.14715352186E+03  0.17305197042E+03  0.47000000000E+01 0.  1.
         11    1    4    4    0    0  0.42368022384E+02 -0.65523508442E+01  0.15801184814E+02  0.45690918834E+02  0.00000000000E+00 0. -1.
        -12    1    4    4    0    0 -0.32085453877E+02  0.75817335692E+01 -0.92516935788E+01  0.34242559315E+02  0.00000000000E+00 0.  1.
<mgrwt>
<rscale>  2 0.20048182E+03</rscale>
<asrwt>0</asrwt>
<pdfrwt beam="1">  1       21 0.13819982E+00 0.20094034E+03</pdfrwt>
<pdfrwt beam="2">  1       21 0.98312665E-02 0.20094034E+03</pdfrwt>
<totfact> 0.30781881E+04</totfact>
</mgrwt>
</event>
<event>
12    1  0.1026879E-001  0.2394371E+03  0.7546771E-02  0.1120602E+00
         21   -1    0    0  503  502  0.00000000000E+00  0.00000000000E+00  0.24350919328E+03  0.24350919328E+03  0.00000000000E+00 0.  1.
         21   -1    0    0  501  503 -0.00000000000E+00 -0.00000000000E+00 -0.23381632451E+03  0.23381632451E+03  0.00000000000E+00 0.  1.
          6    2    1    2  501    0 -0.15919875906E+03  0.25996243932E+02 -0.10101797238E+02  0.23707162848E+03  0.17343834968E+03 0.  0.
         24    2    3    3    0    0 -0.11060711241E+03  0.96265701775E+01  0.61473773496E+02  0.14889982647E+03  0.77881508253E+02 0.  0.
         -6    2    1    2    0  502  0.15919875906E+03 -0.25996243932E+02  0.19794666005E+02  0.24025388931E+03  0.17694646914E+03 0.  0.
        -24    2    5    5    0    0  0.11776908431E+03 -0.77248333667E+02  0.46465408986E+02  0.16900353364E+03  0.81032696344E+02 0.  0.
          5    1    3    3  501    0 -0.48591646657E+02  0.16369673754E+02 -0.71575570734E+02  0.88171802009E+02  0.47000000000E+01 0. -1.
        -13    1    4    4    0    0 -0.49380493864E+02  0.42558832855E+02  0.21172306858E+02  0.68541622435E+02  0.00000000000E+00 0.  1.
         14    1    4    4    0    0 -0.61226618541E+02 -0.32932262678E+02  0.40301466638E+02  0.80358204038E+02  0.00000000000E+00 0. -1.
         -5    1    5    5    0  502  0.41429674754E+02  0.51252089736E+02 -0.26670742980E+02  0.71250355674E+02  0.47000000000E+01 0.  1.
         13    1    6    6    0    0  0.29143167017E+02  0.60881284536E+01  0.36269057600E+02  0.46923704362E+02  0.00000000000E+00 0. -1.
        -14    1    6    6    0    0  0.88625917291E+02 -0.83336462121E+02  0.10196351385E+02  0.12207982928E+03  0.00000000000E+00 0.  1.
<mgrwt>
<rscale>  2 0.23878924E+03</rscale>
<asrwt>0</asrwt>
<pdfrwt beam="1">  1       21 0.37462953E-01 0.23943705E+03</pdfrwt>
<pdfrwt beam="2">  1       21 0.35971742E-01 0.23943705E+03</pdfrwt>
<totfact> 0.50136445E+04</totfact>
</mgrwt>
</event>
<event>
12    1  0.1026879E-001  0.2445989E+03  0.7546771E-02  0.1117015E+00
         21   -1    0    0  503  502  0.00000000000E+00  0.00000000000E+00  0.19573565463E+03  0.19573565463E+03  0.00000000000E+00 0. -1.
         21   -1    0    0  501  503 -0.00000000000E+00 -0.00000000000E+00 -0.34986241141E+03  0.34986241141E+03  0.00000000000E+00 0.  1.
          6    2    1    2  501    0  0.57459211380E+02  0.16293513390E+03  0.21756013186E+02  0.24556453463E+03  0.17314501935E+03 0.  0.
         24    2    3    3    0    0  0.21944759722E+02  0.50918140837E+02  0.68883179321E+02  0.11886748336E+03  0.79437753379E+02 0.  0.
         -6    2    1    2    0  502 -0.57459211380E+02 -0.16293513390E+03 -0.17588276997E+03  0.30003353141E+03  0.17098524019E+03 0.  0.
        -24    2    5    5    0    0  0.18645751899E+02 -0.11732396472E+03 -0.88583935185E+02  0.17547221821E+03  0.93972384400E+02 0.  0.
          5    1    3    3  501    0  0.35514451658E+02  0.11201699307E+03 -0.47127166135E+02  0.12669705127E+03  0.47000000000E+01 0. -1.
        -13    1    4    4    0    0 -0.26304497609E+02  0.30985194857E+02  0.13670575868E+02  0.42882321991E+02  0.00000000000E+00 0.  1.
         14    1    4    4    0    0  0.48249257331E+02  0.19932945980E+02  0.55212603453E+02  0.75985161371E+02  0.00000000000E+00 0. -1.
         -5    1    5    5    0  502 -0.76104963279E+02 -0.45611169180E+02 -0.87298834785E+02  0.12456131319E+03  0.47000000000E+01 0.  1.
         11    1    6    6    0    0 -0.23649768413E+02 -0.55683230582E+02 -0.12468479146E+01  0.60510233380E+02  0.00000000000E+00 0. -1.
        -12    1    6    6    0    0  0.42295520312E+02 -0.61640734141E+02 -0.87337087271E+02  0.11496198483E+03  0.00000000000E+00 0.  1.
<mgrwt>
<rscale>  2 0.24421698E+03</rscale>
<asrwt>0</asrwt>
<pdfrwt beam="1">  1       21 0.30113178E-01 0.24459889E+03</pdfrwt>
<pdfrwt beam="2">  1       21 0.53824986E-01 0.24459889E+03</pdfrwt>
<totfact> 0.33660047E+04</totfact>
</mgrwt>
</event>
<event>
12    1  0.1026879E-001  0.1865579E+03  0.7546771E-02  0.1162559E+00
         21   -1    0    0  503  502  0.00000000000E+00  0.00000000000E+00  0.15373706173E+03  0.15373706173E+03  0.00000000000E+00 0.  1.
         21   -1    0    0  501  503 -0.00000000000E+00 -0.00000000000E+00 -0.29907327105E+03  0.29907327105E+03  0.00000000000E+00 0.  1.
          6    2    1    2  501    0  0.59137052245E+02  0.30749192210E+02  0.42076287343E+02  0.19124399349E+03  0.17424450442E+03 0.  0.
         24    2    3    3    0    0  0.90559365771E+02 -0.70508109981E+01  0.62923857877E+02  0.13764442981E+03  0.82072312639E+02 0.  0.
         -6    2    1    2    0  502 -0.59137052245E+02 -0.30749192210E+02 -0.18741249667E+03  0.26156633929E+03  0.16985523888E+03 0.  0.
        -24    2    5    5    0    0  0.13060713399E+02 -0.33920895590E+02 -0.51895832379E+02  0.10791272441E+03  0.87354274534E+02 0.  0.
          5    1    3    3  501    0 -0.31422313527E+02  0.37800003208E+02 -0.20847570534E+02  0.53599563683E+02  0.47000000000E+01 0. -1.
        -13    1    4    4    0    0  0.90039766339E+02 -0.16140202983E+02  0.19830370729E+02  0.93599729049E+02  0.00000000000E+00 0.  1.
         14    1    4    4    0    0  0.51959943162E+00  0.90893919851E+01  0.43093487147E+02  0.44044700757E+02  0.00000000000E+00 0. -1.
         -5    1    5    5    0  502 -0.72197765644E+02  0.31717033800E+01 -0.13551666429E+03  0.15365361488E+03  0.47000000000E+01 0.  1.
         11    1    6    6    0    0  0.58283121588E+01 -0.42161100058E+02  0.11087278373E+02  0.43982443343E+02  0.00000000000E+00 0. -1.
        -12    1    6    6    0    0  0.72324012406E+01  0.82402044684E+01 -0.62983110752E+02  0.63930281067E+02  0.00000000000E+00 0.  1.
<mgrwt>
<rscale>  2 0.18552617E+03</rscale>
<asrwt>0</asrwt>
<pdfrwt beam="1">  1       21 0.23651856E-01 0.18655790E+03</pdfrwt>
<pdfrwt beam="2">  1       21 0.46011272E-01 0.18655790E+03</pdfrwt>
<totfact> 0.76391315E+04</totfact>
</mgrwt>
</event>
<event>
12    1  0.1026879E-001  0.1899036E+03  0.7546771E-02  0.1158630E+00
         21   -1    0    0  501  502  0.00000000000E+00  0.00000000000E+00  0.41916055107E+03  0.41916055107E+03  0.00000000000E+00 0. -1.
         21   -1    0    0  502  503 -0.00000000000E+00 -0.00000000000E+00 -0.15586106976E+03  0.15586106976E+03  0.00000000000E+00 0. -1.
         -6    2    1    2    0  503 -0.54588019542E+02  0.55377143252E+02 -0.61081654899E+02  0.19914063957E+03  0.17285700996E+03 0.  0.
        -24    2    3    3    0    0 -0.97032324015E+02  0.55211957928E+02 -0.70236802537E+02  0.15546624208E+03  0.82297702235E+02 0.  0.
          6    2    1    2  501    0  0.54588019542E+02 -0.55377143252E+02  0.32438113621E+03  0.37588098125E+03  0.17325389078E+03 0.  0.
         24    2    5    5    0    0  0.64313607093E+02 -0.85538700474E+02  0.16406056280E+03  0.21239066703E+03  0.82102483760E+02 0.  0.
          5    1    5    5  501    0 -0.97255875510E+01  0.30161557222E+02  0.16032057341E+03  0.16349031422E+03  0.47000000000E+01 0. -1.
        -13    1    6    6    0    0  0.36250102534E+02  0.61488527334E+01  0.63959882957E+02  0.73774961549E+02  0.00000000000E+00 0.  1.
         14    1    6    6    0    0  0.28063504559E+02 -0.91687553207E+02  0.10010067985E+03  0.13861570548E+03  0.00000000000E+00 0. -1.
         -5    1    3    3    0  503  0.42444304473E+02  0.16518532345E+00  0.91551476375E+01  0.43674397496E+02  0.47000000000E+01 0.  1.
         13    1    4    4    0    0  0.66051823675E+01 -0.43279980767E+01 -0.27373600716E+02  0.28489893254E+02  0.00000000000E+00 0. -1.
        -14    1    4    4    0    0 -0.10363750638E+03  0.59539956005E+02 -0.42863201821E+02  0.12697634882E+03  0.00000000000E+00 0.  1.
<mgrwt>
<rscale>  2 0.18981307E+03</rscale>
<asrwt>0</asrwt>
<pdfrwt beam="1">  1       21 0.64486238E-01 0.18990363E+03</pdfrwt>
<pdfrwt beam="2">  1       21 0.23978626E-01 0.18990363E+03</pdfrwt>
<totfact> 0.36417206E+04</totfact>
</mgrwt>
</event>
<event>
12    1  0.1026879E-001  0.2039363E+03  0.7546771E-02  0.1146857E+00
         21   -1    0    0  503  502  0.00000000000E+00  0.00000000000E+00  0.72073162064E+02  0.72073162064E+02  0.00000000000E+00 0. -1.
         21   -1    0    0  501  503 -0.00000000000E+00 -0.00000000000E+00 -0.60458068614E+03  0.60458068614E+03  0.00000000000E+00 0. -1.
          6    2    1    2  501    0  0.91964006671E+02 -0.50132435119E+02 -0.34643042147E+03  0.40200007620E+03  0.17498395576E+03 0.  0.
         24    2    3    3    0    0 -0.29137686825E+02 -0.50583058375E+01 -0.14252761757E+03  0.16055496704E+03  0.67743519407E+02 0.  0.
         -6    2    1    2    0  502 -0.91964006671E+02  0.50132435119E+02 -0.18607710261E+03  0.27465377200E+03  0.17274075022E+03 0.  0.
        -24    2    5    5    0    0 -0.78520905626E+01  0.45592832446E+02 -0.31188249306E+02  0.98278974194E+02  0.80905427365E+02 0.  0.
          5    1    3    3  501    0  0.12110169350E+03 -0.45074129282E+02 -0.20390280390E+03  0.24144510916E+03  0.47000000000E+01 0. -1.
        -13    1    4    4    0    0  0.54776390871E+01 -0.19856908464E+02 -0.10640882927E+03  0.10838422528E+03  0.00000000000E+00 0.  1.
         14    1    4    4    0    0 -0.34615325912E+02  0.14798602627E+02 -0.36118788296E+02  0.52170741759E+02  0.00000000000E+00 0. -1.
         -5    1    5    5    0  502 -0.84111916109E+02  0.45396026732E+01 -0.15488885330E+03  0.17637479781E+03  0.47000000000E+01 0.  1.
         13    1    6    6    0    0 -0.40171851422E+02  0.45682466566E+02 -0.18892928290E+02  0.63699357435E+02  0.00000000000E+00 0. -1.
        -14    1    6    6    0    0  0.32319760860E+02 -0.89634120270E-01 -0.12295321016E+02  0.34579616759E+02  0.00000000000E+00 0.  1.
<mgrwt>
<rscale>  2 0.20345425E+03</rscale>
<asrwt>0</asrwt>
<pdfrwt beam="1">  1       21 0.11088179E-01 0.20393632E+03</pdfrwt>
<pdfrwt beam="2">  1       21 0.93012415E-01 0.20393632E+03</pdfrwt>
<totfact> 0.65406779E+04</totfact>
</mgrwt>
</event>
<event>
12    1  0.1026879E-001  0.1873847E+03  0.7546771E-02  0.1160925E+00
         21   -1    0    0  503  502  0.00000000000E+00  0.00000000000E+00  0.14396164707E+03  0.14396164707E+03  0.00000000000E+00 0.  1.
         21   -1    0    0  501  503 -0.00000000000E+00 -0.00000000000E+00 -0.38128818680E+03  0.38128818680E+03  0.00000000000E+00 0.  1.
          6    2    1    2  501    0  0.61032448728E+02 -0.36725973979E+02 -0.27650414640E+03  0.33381337060E+03  0.17292503131E+03 0.  0.
         24    2    3    3    0    0 -0.36264680841E+01  0.12870830925E+02 -0.55689035213E+02  0.98394548270E+02  0.80008805308E+02 0.  0.
         -6    2    1    2    0  502 -0.61032448728E+02  0.36725973979E+02  0.39177606662E+02  0.19143646327E+03  0.17331842846E+03 0.  0.
        -24    2    5    5    0    0 -0.77961513660E+02  0.46276194058E+02 -0.24372933157E+02  0.12481393664E+03  0.82249590644E+02 0.  0.
          5    1    3    3  501    0  0.64658916813E+02 -0.49596804904E+02 -0.22081511118E+03  0.23541882233E+03  0.47000000000E+01 0. -1.
        -13    1    4    4    0    0  0.20155687952E+02 -0.25995163565E+02 -0.35979423487E+02  0.48749555896E+02  0.00000000000E+00 0.  1.
         14    1    4    4    0    0 -0.23782156036E+02  0.38865994490E+02 -0.19709611726E+02  0.49644992374E+02  0.00000000000E+00 0. -1.
         -5    1    5    5    0  502  0.16929064931E+02 -0.95502200785E+01  0.63550539819E+02  0.66622526628E+02  0.47000000000E+01 0.  1.
         11    1    6    6    0    0 -0.69844954196E+02 -0.34459861837E+01 -0.25464025686E+02  0.74421831821E+02  0.00000000000E+00 0. -1.
        -12    1    6    6    0    0 -0.81165594636E+01  0.49722180242E+02  0.10910925290E+01  0.50392104822E+02  0.00000000000E+00 0.  1.
<mgrwt>
<rscale>  2 0.18729371E+03</rscale>
<asrwt>0</asrwt>
<pdfrwt beam="1">  1       21 0.22147946E-01 0.18738472E+03</pdfrwt>
<pdfrwt beam="2">  1       21 0.58659720E-01 0.18738472E+03</pdfrwt>
<totfact> 0.51968019E+04</totfact>
</mgrwt>
</event>
<event>
12    1  0.1026879E-001  0.2250065E+03  0.7546771E-02  0.1130306E+00
         21   -1    0    0  503  502  0.00000000000E+00  0.00000000000E+00  0.35276168219E+02  0.35276168219E+02  0.00000000000E+00 0. -1.
         21   -1    0    0  501  503 -0.00000000000E+00 -0.00000000000E+00 -0.22733356351E+04  0.22733356351E+04  0.00000000000E+00 0.  1.
          6    2    1    2  501    0  0.14173983458E+03 -0.18201918565E+02 -0.18222888831E+04  0.18361276322E+04  0.17379993583E+03 0.  0.
         24    2    3    3    0    0  0.14752901820E+03 -0.29648624940E+02 -0.18091288257E+04  0.18171587407E+04  0.80466941998E+02 0.  0.
         -6    2    1    2    0  502 -0.14173983458E+03  0.18201918565E+02 -0.41577058379E+03  0.47248417113E+03  0.17307403930E+03 0.  0.
        -24    2    5    5    0    0  0.87943789109E+00  0.96526353850E+01 -0.16764913707E+03  0.18612829212E+03  0.80271795711E+02 0.  0.
          5    1    3    3  501    0 -0.57891836241E+01  0.11446706375E+02 -0.13160057412E+02  0.18968891506E+02  0.47000000000E+01 0. -1.
        -11    1    4    4    0    0  0.12512653831E+02  0.75932843965E+01 -0.56189553867E+03  0.56208613294E+03  0.00000000000E+00 0.  1.
         12    1    4    4    0    0  0.13501636437E+03 -0.37241909337E+02 -0.12472332870E+04  0.12550726077E+04  0.00000000000E+00 0. -1.
         -5    1    5    5    0  502 -0.14261927247E+03  0.85492831798E+01 -0.24812144672E+03  0.28635587902E+03  0.47000000000E+01 0.  1.
         11    1    6    6    0    0 -0.15023134713E+02 -0.30016644845E+02 -0.10543291636E+03  0.11064715720E+03  0.00000000000E+00 0. -1.
        -12    1    6    6    0    0  0.15902572605E+02  0.39669280230E+02 -0.62216220706E+02  0.75481134917E+02  0.00000000000E+00 0.  1.
<mgrwt>
<rscale>  2 0.22486628E+03</rscale>
<asrwt>0</asrwt>
<pdfrwt beam="1">  1       21 0.54271029E-02 0.22500646E+03</pdfrwt>
<pdfrwt beam="2">  1       21 0.34974394E+00 0.22500646E+03</pdfrwt>
<totfact> 0.39486106E+03</totfact>
</mgrwt>
</event>
<event>
12    1  0.1026879E-001  0.2045786E+03  0.7546771E-02  0.1145942E+00
         21   -1    0    0  501  502  0.00000000000E+00  0.00000000000E+00  0.52417204283E+03  0.52417204283E+03  0.00000000000E+00 0.  1.
         21   -1    0    0  502  503 -0.00000000000E+00 -0.00000000000E+00 -0.10011032294E+03  0.10011032294E+03  0.00000000000E+00 0.  1.
         -6    2    1    2    0  503 -0.94017802933E+02  0.52178472938E+02  0.71509138603E+02  0.21667261183E+03  0.17398713603E+03 0.  0.
        -24    2    3    3    0    0 -0.62754627757E+02  0.58197340627E+02 -0.19809964148E+02  0.11984864053E+03  0.81524157133E+02 0.  0.
          6    2    1    2  501    0  0.94017802933E+02 -0.52178472938E+02  0.35255258129E+03  0.40760975394E+03  0.17404151409E+03 0.  0.
         24    2    5    5    0    0  0.10254493201E+03 -0.51587239949E+02  0.36541547118E+03  0.39146647599E+03  0.80875390817E+02 0.  0.
          5    1    5    5  501    0 -0.85271290770E+01 -0.59123298934E+00 -0.12862889889E+02  0.16143277952E+02  0.47000000000E+01 0. -1.
        -13    1    6    6    0    0  0.56611266215E+02 -0.52438451469E+02  0.12653530768E+03  0.14820867297E+03  0.00000000000E+00 0.  1.
         14    1    6    6    0    0  0.45933665796E+02  0.85121152049E+00  0.23888016350E+03  0.24325780302E+03  0.00000000000E+00 0. -1.
         -5    1    3    3    0  503 -0.31263175177E+02 -0.60188676889E+01  0.91319102751E+02  0.96823971297E+02  0.47000000000E+01 0.  1.
         11    1    4    4    0    0  0.10644317587E+02  0.12582688797E+02  0.18968859110E+02  0.25128532989E+02  0.00000000000E+00 0. -1.
        -12    1    4    4    0    0 -0.73398945343E+02  0.45614651830E+02 -0.38778823258E+02  0.94720107540E+02  0.00000000000E+00 0.  1.
<mgrwt>
<rscale>  2 0.20456700E+03</rscale>
<asrwt>0</asrwt>
<pdfrwt beam="1">  1       21 0.80641851E-01 0.20457856E+03</pdfrwt>
<pdfrwt beam="2">  1       21 0.15401588E-01 0.20457856E+03</pdfrwt>
<totfact> 0.50195500E+04</totfact>
</mgrwt>
</event>
<event>
12    1  0.1026879E-001  0.1873390E+03  0.7546771E-02  0.1161199E+00
         21   -1    0    0  501  502  0.00000000000E+00  0.00000000000E+00  0.27714012890E+03  0.27714012890E+03  0.00000000000E+00 0.  1.
         21   -1    0    0  502  503 -0.00000000000E+00 -0.00000000000E+00 -0.14454318352E+03  0.14454318352E+03  0.00000000000E+00 0.  1.
         -6    2    1    2    0  503  0.32069337257E+02 -0.63753214723E+02 -0.95912509647E+01  0.18758439764E+03  0.17321373896E+03 0.  0.
        -24    2    3    3    0    0 -0.14988623117E+02  0.16552106582E+02  0.26878416005E+02  0.87506813371E+02  0.80226941137E+02 0.  0.
          6    2    1    2  501    0 -0.32069337257E+02  0.63753214723E+02  0.14218819634E+03  0.23409891478E+03  0.17173207022E+03 0.  0.
         24    2    5    5    0    0 -0.29838598809E+02  0.27233682024E+02  0.16740793684E+03  0.18941359534E+03  0.78867467101E+02 0.  0.
          5    1    5    5  501    0 -0.22307384473E+01  0.36519532699E+02 -0.25219740497E+02  0.44685319439E+02  0.47000000000E+01 0. -1.
        -13    1    6    6    0    0 -0.30085493253E+02  0.51090005974E+02  0.85098912927E+02  0.10371668427E+03  0.00000000000E+00 0.  1.
         14    1    6    6    0    0  0.24689444344E+00 -0.23856323950E+02  0.82309023913E+02  0.85696911069E+02  0.00000000000E+00 0. -1.
         -5    1    3    3    0  503  0.47057960373E+02 -0.80305321305E+02 -0.36469666969E+02  0.10007758427E+03  0.47000000000E+01 0.  1.
         13    1    4    4    0    0  0.68608703113E+01  0.40729808417E+02 -0.53806324166E+01  0.41652611446E+02  0.00000000000E+00 0. -1.
        -14    1    4    4    0    0 -0.21849493428E+02 -0.24177701835E+02  0.32259048421E+02  0.45854201924E+02  0.00000000000E+00 0.  1.
<mgrwt>
<rscale>  2 0.18699582E+03</rscale>
<asrwt>0</asrwt>
<pdfrwt beam="1">  1       21 0.42636943E-01 0.18733904E+03</pdfrwt>
<pdfrwt beam="2">  1       21 0.22237413E-01 0.18733904E+03</pdfrwt>
<totfact> 0.10029686E+05</totfact>
</mgrwt>
</event>
<event>
12    1  0.1026879E-001  0.1842583E+03  0.7546771E-02  0.1163868E+00
         21   -1    0    0  503  502  0.00000000000E+00  0.00000000000E+00  0.32469771451E+03  0.32469771451E+03  0.00000000000E+00 0. -1.
         21   -1    0    0  501  503 -0.00000000000E+00 -0.00000000000E+00 -0.52022955729E+03  0.52022955729E+03  0.00000000000E+00 0. -1.
          6    2    1    2  501    0  0.39625690723E+02 -0.46553298851E+02 -0.47555746631E+03  0.51000591900E+03  0.17382096724E+03 0.  0.
         24    2    3    3    0    0 -0.41708179002E+01 -0.27945480881E+02 -0.99973154212E+02  0.13138995189E+03  0.80438437767E+02 0.  0.
         -6    2    1    2    0  502 -0.39625690723E+02  0.46553298851E+02  0.28002562354E+03  0.33492135280E+03  0.17326441562E+03 0.  0.
        -24    2    5    5    0    0  0.33904177677E+02  0.40440519676E+02  0.21869174483E+03  0.23885917349E+03  0.80266410202E+02 0.  0.
          5    1    3    3  501    0  0.43796508623E+02 -0.18607817970E+02 -0.37558431210E+03  0.37861596711E+03  0.47000000000E+01 0. -1.
        -13    1    4    4    0    0 -0.15891800469E+02 -0.38330741772E+02 -0.10659568596E+03  0.11438721673E+03  0.00000000000E+00 0.  1.
         14    1    4    4    0    0  0.11720982569E+02  0.10385260891E+02  0.66225317437E+01  0.17002735158E+02  0.00000000000E+00 0. -1.
         -5    1    5    5    0  502 -0.73529868399E+02  0.61127791755E+01  0.61333878710E+02  0.96062179310E+02  0.47000000000E+01 0.  1.
         11    1    6    6    0    0  0.56546344316E+02  0.15641802085E+02  0.10462564088E+03  0.11995282305E+03  0.00000000000E+00 0. -1.
        -12    1    6    6    0    0 -0.22642166639E+02  0.24798717591E+02  0.11406610395E+03  0.11890635043E+03  0.00000000000E+00 0.  1.
<mgrwt>
<rscale>  2 0.18412696E+03</rscale>
<asrwt>0</asrwt>
<pdfrwt beam="1">  1       21 0.49953494E-01 0.18425833E+03</pdfrwt>
<pdfrwt beam="2">  1       21 0.80035317E-01 0.18425833E+03</pdfrwt>
<totfact> 0.52801548E+03</totfact>
</mgrwt>
</event>
<event>
12    1  0.1026879E-001  0.1878232E+03  0.7546771E-02  0.1160636E+00
         21   -1    0    0  501  502  0.00000000000E+00  0.00000000000E+00  0.30559065364E+02  0.30559065364E+02  0.00000000000E+00 0. -1.
         21   -1    0    0  502  503 -0.00000000000E+00 -0.00000000000E+00 -0.23910989196E+04  0.23910989196E+04  0.00000000000E+00 0. -1.
         -6    2    1    2    0  503 -0.67969476300E+02 -0.25650948513E+02 -0.20516158553E+04  0.20601174037E+04  0.17227384671E+03 0.  0.
        -24    2    3    3    0    0 -0.46247263157E+02 -0.82508404524E+02 -0.12266279534E+04  0.12328739370E+04  0.80097205312E+02 0.  0.
          6    2    1    2  501    0  0.67969476300E+02  0.25650948513E+02 -0.30892399891E+03  0.36154058128E+03  0.17320431271E+03 0.  0.
         24    2    5    5    0    0  0.11278432286E+03  0.32017724421E+02 -0.22485705918E+03  0.26594640435E+03  0.80133356113E+02 0.  0.
          5    1    5    5  501    0 -0.44814846564E+02 -0.63667759089E+01 -0.84066939728E+02  0.95594176932E+02  0.47000000000E+01 0. -1.
        -13    1    6    6    0    0 -0.44138455861E+01  0.18246988889E+02 -0.62344690888E+02  0.65109869592E+02  0.00000000000E+00 0.  1.
         14    1    6    6    0    0  0.11719816845E+03  0.13770735533E+02 -0.16251236829E+03  0.20083653475E+03  0.00000000000E+00 0. -1.
         -5    1    3    3    0  503 -0.21722213142E+02  0.56857456011E+02 -0.82498790194E+03  0.82724346669E+03  0.47000000000E+01 0.  1.
         13    1    4    4    0    0 -0.99990500058E+01 -0.25846022739E+02 -0.83868204680E+03  0.83913978187E+03  0.00000000000E+00 0. -1.
        -14    1    4    4    0    0 -0.36248213151E+02 -0.56662381785E+02 -0.38794590661E+03  0.39373415513E+03  0.00000000000E+00 0.  1.
<mgrwt>
<rscale>  2 0.18760841E+03</rscale>
<asrwt>0</asrwt>
<pdfrwt beam="1">  1       21 0.47013929E-02 0.18782320E+03</pdfrwt>
<pdfrwt beam="2">  1       21 0.36786151E+00 0.18782320E+03</pdfrwt>
<totfact> 0.41141408E+03</totfact>
</mgrwt>
</event>
<event>
12    1  0.1026879E-001  0.1820036E+03  0.7546771E-02  0.1166991E+00
         21   -1    0    0  503  502  0.00000000000E+00  0.00000000000E+00  0.38549171767E+02  0.38549171767E+02  0.00000000000E+00 0.  1.
         21   -1    0    0  501  503 -0.00000000000E+00 -0.00000000000E+00 -0.84135558187E+03  0.84135558187E+03  0.00000000000E+00 0.  1.
          6    2    1    2  501    0 -0.48130392193E+02 -0.22528000659E+02 -0.36731746639E+03  0.40791332103E+03  0.16925457421E+03 0.  0.
         24    2    3    3    0    0 -0.11593113328E+02 -0.72172204918E+02 -0.17814014406E+03  0.20889154070E+03  0.80984797395E+02 0.  0.
         -6    2    1    2    0  502  0.48130392193E+02  0.22528000659E+02 -0.43548894372E+03  0.47199143261E+03  0.17407253343E+03 0.  0.
        -24    2    5    5    0    0  0.30348576112E+02  0.71333808420E+02 -0.37970235875E+03  0.39562106587E+03  0.79577623882E+02 0.  0.
          5    1    3    3  501    0 -0.36537278866E+02  0.49644204259E+02 -0.18917732233E+03  0.19902178033E+03  0.47000000000E+01 0. -1.
        -13    1    4    4    0    0 -0.26756819739E+02 -0.82696595455E+02 -0.16411155398E+03  0.18570744857E+03  0.00000000000E+00 0.  1.
         14    1    4    4    0    0  0.15163706412E+02  0.10524390537E+02 -0.14028590079E+02  0.23184092130E+02  0.00000000000E+00 0. -1.
         -5    1    5    5    0  502  0.17781816081E+02 -0.48805807761E+02 -0.55786584967E+02  0.76370366744E+02  0.47000000000E+01 0.  1.
         11    1    6    6    0    0  0.80378624508E+01 -0.96008261016E+00  0.35833985554E+00  0.81029253266E+01  0.00000000000E+00 0. -1.
        -12    1    6    6    0    0  0.22310713662E+02  0.72293891030E+02 -0.38006069861E+03  0.38751814054E+03  0.00000000000E+00 0.  1.
<mgrwt>
<rscale>  2 0.18084187E+03</rscale>
<asrwt>0</asrwt>
<pdfrwt beam="1">  1       21 0.59306419E-02 0.18200355E+03</pdfrwt>
<pdfrwt beam="2">  1       21 0.12943932E+00 0.18200355E+03</pdfrwt>
<totfact> 0.88327583E+04</totfact>
</mgrwt>
</event>
<event>
12    1  0.1026879E-001  0.2090280E+03  0.7546771E-02  0.1142637E+00
         21   -1    0    0  503  502  0.00000000000E+00  0.00000000000E+00  0.59877045781E+03  0.59877045781E+03  0.00000000000E+00 0.  1.
         21   -1    0    0  501  503 -0.00000000000E+00 -0.00000000000E+00 -0.73114964536E+02  0.73114964536E+02  0.00000000000E+00 0.  1.
          6    2    1    2  501    0 -0.87797857475E+02  0.78845062484E+02  0.22983587402E+03  0.30966733310E+03  0.17071707749E+03 0.  0.
         24    2    3    3    0    0 -0.12761045821E+03  0.56666520347E+02  0.16812861228E+03  0.23281157820E+03  0.80240121552E+02 0.  0.
         -6    2    1    2    0  502  0.87797857475E+02 -0.78845062484E+02  0.29581961925E+03  0.36221808925E+03  0.17253315446E+03 0.  0.
        -24    2    5    5    0    0  0.91878289983E+01 -0.72649921564E+02  0.87959652914E+02  0.13985403650E+03  0.80373028307E+02 0.  0.
          5    1    3    3  501    0  0.39812600736E+02  0.22178542137E+02  0.61707261746E+02  0.76855754898E+02  0.47000000000E+01 0. -1.
        -11    1    4    4    0    0 -0.50055932784E+02  0.27488417162E+02  0.12920599480E+03  0.14126357839E+03  0.00000000000E+00 0.  1.
         12    1    4    4    0    0 -0.77554525427E+02  0.29178103185E+02  0.38922617471E+02  0.91547999817E+02  0.00000000000E+00 0. -1.
         -5    1    5    5    0  502  0.78610028477E+02 -0.61951409198E+01  0.20785996634E+03  0.22236405275E+03  0.47000000000E+01 0.  1.
         11    1    6    6    0    0 -0.19167458623E+02  0.90897414142E+01  0.10248168749E+02  0.23559283345E+02  0.00000000000E+00 0. -1.
        -12    1    6    6    0    0  0.28355287621E+02 -0.81739662978E+02  0.77711484165E+02  0.11629475315E+03  0.00000000000E+00 0.  1.
<mgrwt>
<rscale>  2 0.20865286E+03</rscale>
<asrwt>0</asrwt>
<pdfrwt beam="1">  1       21 0.92118528E-01 0.20902798E+03</pdfrwt>
<pdfrwt beam="2">  1       21 0.11248457E-01 0.20902798E+03</pdfrwt>
<totfact> 0.65052515E+04</totfact>
</mgrwt>
</event>
<event>
12    1  0.1026879E-001  0.1802757E+03  0.7546771E-02  0.1171767E+00
         21   -1    0    0  503  502  0.00000000000E+00  0.00000000000E+00  0.10143131291E+03  0.10143131291E+03  0.00000000000E+00 0.  1.
         21   -1    0    0  501  503 -0.00000000000E+00 -0.00000000000E+00 -0.32995920777E+03  0.32995920777E+03  0.00000000000E+00 0.  1.
          6    2    1    2  501    0 -0.54158067254E+02  0.12736821432E+02 -0.18292220066E+03  0.24543569237E+03  0.15389225038E+03 0.  0.
         24    2    3    3    0    0 -0.89767707432E+02 -0.75415316516E+01 -0.13095422816E+03  0.17908798522E+03  0.82512911608E+02 0.  0.
         -6    2    1    2    0  502  0.54158067254E+02 -0.12736821432E+02 -0.45605694206E+02  0.18595482831E+03  0.17147593405E+03 0.  0.
        -24    2    5    5    0    0  0.63294461325E+02 -0.13556872694E+02 -0.92417594208E+02  0.13802164395E+03  0.79492042678E+02 0.  0.
          5    1    3    3  501    0  0.35609640178E+02  0.20278353084E+02 -0.51967972505E+02  0.66347707147E+02  0.47000000000E+01 0. -1.
        -13    1    4    4    0    0 -0.48370991373E+02 -0.30034541935E+02 -0.23195955351E+02  0.61480719419E+02  0.00000000000E+00 0.  1.
         14    1    4    4    0    0 -0.41396716059E+02  0.22493010283E+02 -0.10775827280E+03  0.11760726580E+03  0.00000000000E+00 0. -1.
         -5    1    5    5    0  502 -0.91363940715E+01  0.82005126159E+00  0.46811900002E+02  0.47933184356E+02  0.47000000000E+01 0.  1.
         13    1    6    6    0    0 -0.12815060266E+02 -0.27141561775E+01  0.49140388922E+01  0.13990718052E+02  0.00000000000E+00 0. -1.
        -14    1    6    6    0    0  0.76109521591E+02 -0.10842716517E+02 -0.97331633100E+02  0.12403092590E+03  0.00000000000E+00 0.  1.
<mgrwt>
<rscale>  2 0.17596464E+03</rscale>
<asrwt>0</asrwt>
<pdfrwt beam="1">  1       21 0.15604817E-01 0.18027567E+03</pdfrwt>
<pdfrwt beam="2">  1       21 0.50762955E-01 0.18027567E+03</pdfrwt>
<totfact> 0.13531862E+05</totfact>
</mgrwt>
</event>
<event>
12    1  0.1026879E-001  0.1867382E+03  0.7546771E-02  0.1162129E+00
         21   -1    0    0  503  502  0.00000000000E+00  0.00000000000E+00  0.37625338388E+03  0.37625338388E+03  0.00000000000E+00 0. -1.
         21   -1    0    0  501  503 -0.00000000000E+00 -0.00000000000E+00 -0.91245423573E+02  0.91245423573E+02  0.00000000000E+00 0. -1.
          6    2    1    2  501    0 -0.65773955204E+01  0.71334113057E+02  0.13894091978E+03  0.23275683998E+03  0.17245100623E+03 0.  0.
         24    2    3    3    0    0 -0.76704513637E+00  0.11416879222E+02 -0.62914952256E-01  0.81204897885E+02  0.80394639080E+02 0.  0.
         -6    2    1    2    0  502  0.65773955204E+01 -0.71334113057E+02  0.14606704052E+03  0.23474196747E+03  0.16922290964E+03 0.  0.
        -24    2    5    5    0    0  0.42823268069E+02  0.59206897492E+01  0.47105673064E+02  0.10398451995E+03  0.82005786985E+02 0.  0.
          5    1    3    3  501    0 -0.58103503840E+01  0.59917233835E+02  0.13900383473E+03  0.15155194209E+03  0.47000000000E+01 0. -1.
        -11    1    4    4    0    0 -0.30423027732E+02  0.42945198765E+01  0.26641704923E+02  0.40666742660E+02  0.00000000000E+00 0.  1.
         12    1    4    4    0    0  0.29655982596E+02  0.71223593455E+01 -0.26704619875E+02  0.40538155225E+02  0.00000000000E+00 0. -1.
         -5    1    5    5    0  502 -0.36245872549E+02 -0.77254802806E+02  0.98961367460E+02  0.13075744752E+03  0.47000000000E+01 0.  1.
         13    1    6    6    0    0 -0.86315199254E+01 -0.61076597389E+01  0.49958825432E+02  0.51065554753E+02  0.00000000000E+00 0. -1.
        -14    1    6    6    0    0  0.51454787995E+02  0.12028349488E+02 -0.28531523677E+01  0.52918965196E+02  0.00000000000E+00 0.  1.
<mgrwt>
<rscale>  2 0.18598951E+03</rscale>
<asrwt>0</asrwt>
<pdfrwt beam="1">  1       21 0.57885135E-01 0.18673823E+03</pdfrwt>
<pdfrwt beam="2">  1       21 0.14037758E-01 0.18673823E+03</pdfrwt>
<totfact> 0.12406910E+05</totfact>
</mgrwt>
</event>
<event>
12    1  0.1026879E-001  0.1952599E+03  0.7546771E-02  0.1155988E+00
         21   -1    0    0  501  502  0.00000000000E+00  0.00000000000E+00  0.78398889596E+02  0.78398889596E+02  0.00000000000E+00 0. -1.
         21   -1    0    0  502  503 -0.00000000000E+00 -0.00000000000E+00 -0.59422915721E+03  0.59422915721E+03  0.00000000000E+00 0. -1.
         -6    2    1    2    0  503  0.76527607349E+02 -0.48044062739E+02 -0.42151578532E+03  0.46454493791E+03  0.17309458515E+03 0.  0.
        -24    2    3    3    0    0  0.10197940816E+03 -0.63628529209E+02 -0.23686757167E+03  0.27744143029E+03  0.80119356660E+02 0.  0.
          6    2    1    2  501    0 -0.76527607349E+02  0.48044062739E+02 -0.94314482287E+02  0.20808310889E+03  0.16198349294E+03 0.  0.
         24    2    5    5    0    0 -0.83131790198E+01 -0.25402075642E+02 -0.39332152398E+02  0.93659815480E+02  0.80689332821E+02 0.  0.
          5    1    5    5  501    0 -0.68214428330E+02  0.73446138381E+02 -0.54982329889E+02  0.11442329341E+03  0.47000000000E+01 0. -1.
        -13    1    6    6    0    0 -0.57727489844E+01 -0.31180741945E+02  0.17675268048E+02  0.36303972230E+02  0.00000000000E+00 0.  1.
         14    1    6    6    0    0 -0.25404300354E+01  0.57786663034E+01 -0.57007420446E+02  0.57355843250E+02  0.00000000000E+00 0. -1.
         -5    1    3    3    0  503 -0.25451800813E+02  0.15584466470E+02 -0.18464821365E+03  0.18710350762E+03  0.47000000000E+01 0.  1.
         11    1    4    4    0    0  0.32896045192E+02 -0.49929500483E+02 -0.17045781374E+03  0.18064044694E+03  0.00000000000E+00 0. -1.
        -12    1    4    4    0    0  0.69083362970E+02 -0.13699028726E+02 -0.66409757932E+02  0.96800983342E+02  0.00000000000E+00 0.  1.
<mgrwt>
<rscale>  2 0.19276801E+03</rscale>
<asrwt>0</asrwt>
<pdfrwt beam="1">  1       21 0.12061368E-01 0.19525993E+03</pdfrwt>
<pdfrwt beam="2">  1       21 0.91419868E-01 0.19525993E+03</pdfrwt>
<totfact> 0.58840338E+04</totfact>
</mgrwt>
</event>
<event>
12    1  0.1026879E-001  0.1975898E+03  0.7546771E-02  0.1152238E+00
         21   -1    0    0  503  502  0.00000000000E+00  0.00000000000E+00  0.31379009430E+03  0.31379009430E+03  0.00000000000E+00 0. -1.
         21   -1    0    0  501  503 -0.00000000000E+00 -0.00000000000E+00 -0.39932944540E+03  0.39932944540E+03  0.00000000000E+00 0. -1.
          6    2    1    2  501    0  0.95001401497E+02 -0.43049360690E+01 -0.33938548945E+03  0.39271392932E+03  0.17319907931E+03 0.  0.
         24    2    3    3    0    0  0.89877562654E+02  0.53834913163E+02 -0.26559908849E+03  0.29851722683E+03  0.87140603431E+02 0.  0.
         -6    2    1    2    0  502 -0.95001401497E+02  0.43049360690E+01  0.25384613835E+03  0.32040561037E+03  0.17081596659E+03 0.  0.
        -24    2    5    5    0    0 -0.78958015358E+02  0.31086884597E+02  0.75270023788E+02  0.13906013429E+03  0.80444899674E+02 0.  0.
          5    1    3    3  501    0  0.51238388432E+01 -0.58139849232E+02 -0.73786400961E+02  0.94196702490E+02  0.47000000000E+01 0. -1.
        -11    1    4    4    0    0  0.36018199972E+02  0.33712101694E+01 -0.18501434692E+02  0.40632239329E+02  0.00000000000E+00 0.  1.
         12    1    4    4    0    0  0.53859362682E+02  0.50463702994E+02 -0.24709765379E+03  0.25788498750E+03  0.00000000000E+00 0. -1.
         -5    1    5    5    0  502 -0.16043386139E+02 -0.26781948528E+02  0.17857611456E+03  0.18134547609E+03  0.47000000000E+01 0.  1.
         11    1    6    6    0    0  0.17813466728E+01  0.21140108886E+02  0.49291358328E+02  0.53662979842E+02  0.00000000000E+00 0. -1.
        -12    1    6    6    0    0 -0.80739362031E+02  0.99467757109E+01  0.25978665460E+02  0.85397154445E+02  0.00000000000E+00 0.  1.
<mgrwt>
<rscale>  2 0.19706631E+03</rscale>
<asrwt>0</asrwt>
<pdfrwt beam="1">  1       21 0.48275399E-01 0.19758978E+03</pdfrwt>
<pdfrwt beam="2">  1       21 0.61435299E-01 0.19758978E+03</pdfrwt>
<totfact> 0.10060364E+04</totfact>
</mgrwt>
</event>
<event>
12    1  0.1026879E-001  0.2161320E+03  0.7546771E-02  0.1136869E+00
         21   -1    0    0  503  502  0.00000000000E+00  0.00000000000E+00  0.29943955038E+03  0.29943955038E+03  0.00000000000E+00 0. -1.
         21   -1    0    0  501  503 -0.00000000000E+00 -0.00000000000E+00 -0.17812016763E+03  0.17812016763E+03  0.00000000000E+00 0. -1.
          6    2    1    2  501    0  0.12528169913E+03  0.31147093030E+02 -0.23930761044E+02  0.21745276790E+03  0.17334179935E+03 0.  0.
         24    2    3    3    0    0  0.33396748357E+02  0.76688035574E+01  0.43590934321E+02  0.10093949141E+03  0.84347246673E+02 0.  0.
         -6    2    1    2    0  502 -0.12528169913E+03 -0.31147093030E+02  0.14525014379E+03  0.26010695012E+03  0.17289411698E+03 0.  0.
        -24    2    5    5    0    0 -0.52370860655E+02 -0.84265226756E+02  0.76011418345E+02  0.14629298964E+03  0.76030044147E+02 0.  0.
          5    1    3    3  501    0  0.91884950773E+02  0.23478289472E+02 -0.67521695365E+02  0.11651327650E+03  0.47000000000E+01 0. -1.
        -13    1    4    4    0    0  0.27576781567E+02  0.22888026166E+02  0.64886378260E+02  0.74125452492E+02  0.00000000000E+00 0.  1.
         14    1    4    4    0    0  0.58199667901E+01 -0.15219222609E+02 -0.21295443940E+02  0.26814038913E+02  0.00000000000E+00 0. -1.
         -5    1    5    5    0  502 -0.72910838475E+02  0.53118133726E+02  0.69238725447E+02  0.11381396048E+03  0.47000000000E+01 0.  1.
         11    1    6    6    0    0  0.72196420381E+00 -0.49503967456E+02  0.65281794896E+02  0.81932147360E+02  0.00000000000E+00 0. -1.
        -12    1    6    6    0    0 -0.53092824859E+02 -0.34761259299E+02  0.10729623449E+02  0.64360842280E+02  0.00000000000E+00 0.  1.
<mgrwt>
<rscale>  2 0.21604219E+03</rscale>
<asrwt>0</asrwt>
<pdfrwt beam="1">  1       21 0.46067623E-01 0.21613196E+03</pdfrwt>
<pdfrwt beam="2">  1       21 0.27403103E-01 0.21613196E+03</pdfrwt>
<totfact> 0.56733410E+04</totfact>
</mgrwt>
</event>
<event>
11    1  0.1026879E-001  0.1764167E+03  0.7546771E-02  0.1171339E+00
         21   -1    0    0  503  502  0.00000000000E+00  0.00000000000E+00  0.22920601895E+03  0.22920601895E+03  0.00000000000E+00 0.  1.
         21   -1    0    0  501  503 -0.00000000000E+00 -0.00000000000E+00 -0.22059072099E+03  0.22059072099E+03  0.00000000000E+00 0.  1.
          6    2    1    2  501    0  0.42372292371E+02 -0.69526842876E+01 -0.13519252283E+03  0.22226078572E+03  0.17111133119E+03 0.  0.
         -6    2    1    2    0  502 -0.42372292371E+02  0.69526842876E+01  0.14380782079E+03  0.22753595421E+03  0.17102096410E+03 0.  0.
        -24    2    4    4    0    0 -0.87231455684E+02 -0.21857850683E+02  0.11274028216E+03  0.16565159905E+03  0.81504530837E+02 0.  0.
          5    1    3    3  501    0  0.41503376310E+02 -0.25336852641E+02 -0.58184011260E+02  0.75973386874E+02  0.47000000000E+01 0. -1.
        -11    1    3    3    0    0 -0.60250383523E+01  0.51390389899E+02 -0.94919996450E+02  0.10810679436E+03  0.00000000000E+00 0.  1.
         12    1    3    3    0    0  0.68939544134E+01 -0.33006221546E+02  0.17911484884E+02  0.38180604487E+02  0.00000000000E+00 0. -1.
         -5    1    4    4    0  502  0.44859163313E+02  0.28810534971E+02  0.31067538623E+02  0.61884355168E+02  0.47000000000E+01 0.  1.
         13    1    5    5    0    0 -0.92304458553E+02 -0.28701663014E+02  0.63443822996E+02  0.11562446629E+03  0.00000000000E+00 0. -1.
        -14    1    5    5    0    0  0.50730028689E+01  0.68438123302E+01  0.49296459168E+02  0.50027132756E+02  0.00000000000E+00 0.  1.
<mgrwt>
<rscale>  2 0.17639475E+03</rscale>
<asrwt>0</asrwt>
<pdfrwt beam="1">  1       21 0.35262464E-01 0.17641666E+03</pdfrwt>
<pdfrwt beam="2">  1       21 0.33937034E-01 0.17641666E+03</pdfrwt>
<totfact> 0.65320748E+04</totfact>
</mgrwt>
</event>
<event>
12    1  0.1026879E-001  0.2589249E+03  0.7546771E-02  0.1107819E+00
         21   -1    0    0  503  502  0.00000000000E+00  0.00000000000E+00  0.32809385952E+03  0.32809385952E+03  0.00000000000E+00 0. -1.
         21   -1    0    0  501  503 -0.00000000000E+00 -0.00000000000E+00 -0.30060914697E+03  0.30060914697E+03  0.00000000000E+00 0. -1.
          6    2    1    2  501    0  0.18679511512E+03  0.48928296682E+02 -0.16428935767E+03  0.30649280010E+03  0.17222209563E+03 0.  0.
         24    2    3    3    0    0  0.74073333352E+02 -0.20475956293E+02 -0.26394042666E+02  0.11528516868E+03  0.81779588707E+02 0.  0.
         -6    2    1    2    0  502 -0.18679511512E+03 -0.48928296682E+02  0.19177407022E+03  0.32221020639E+03  0.17249849229E+03 0.  0.
        -24    2    5    5    0    0 -0.20794408019E+03 -0.64771135351E+02  0.17166177904E+03  0.28867114681E+03  0.80169970411E+02 0.  0.
          5    1    3    3  501    0  0.11272178177E+03  0.69404252975E+02 -0.13789531500E+03  0.19120763142E+03  0.47000000000E+01 0. -1.
        -13    1    4    4    0    0  0.88413393206E+02 -0.21698418235E+01 -0.25377138938E+02  0.92008888117E+02  0.00000000000E+00 0.  1.
         14    1    4    4    0    0 -0.14340059855E+02 -0.18306114470E+02 -0.10169037283E+01  0.23276280562E+02  0.00000000000E+00 0. -1.
         -5    1    5    5    0  502  0.21148965072E+02  0.15842838670E+02  0.20112291185E+02  0.33539059579E+02  0.47000000000E+01 0.  1.
         13    1    6    6    0    0 -0.44050596744E+02 -0.44043861545E+02  0.22914738275E+02  0.66373202751E+02  0.00000000000E+00 0. -1.
        -14    1    6    6    0    0 -0.16389348345E+03 -0.20727273807E+02  0.14874704076E+03  0.22229794406E+03  0.00000000000E+00 0.  1.
<mgrwt>
<rscale>  2 0.25887891E+03</rscale>
<asrwt>0</asrwt>
<pdfrwt beam="1">  1       21 0.50475978E-01 0.25892494E+03</pdfrwt>
<pdfrwt beam="2">  1       21 0.46247561E-01 0.25892494E+03</pdfrwt>
<totfact> 0.16126684E+04</totfact>
</mgrwt>
</event>
<event>
12    1  0.1026879E-001  0.2358884E+03  0.7546771E-02  0.1123309E+00
         21   -1    0    0  503  502  0.00000000000E+00  0.00000000000E+00  0.16779393128E+03  0.16779393128E+03  0.00000000000E+00 0. -1.
         21   -1    0    0  501  503 -0.00000000000E+00 -0.00000000000E+00 -0.46530305091E+03  0.46530305091E+03  0.00000000000E+00 0.  1.
          6    2    1    2  501    0  0.93130376390E+02 -0.13025728836E+03 -0.32319988236E+03  0.40012683951E+03  0.17321401665E+03 0.  0.
         24    2    3    3    0    0  0.34972764436E+02 -0.18262330843E+00 -0.92243142312E+02  0.12871417936E+03  0.82676569002E+02 0.  0.
         -6    2    1    2    0  502 -0.93130376390E+02  0.13025728836E+03  0.25690762737E+02  0.23297014268E+03  0.16725682022E+03 0.  0.
        -24    2    5    5    0    0 -0.72471938806E+02  0.12209208459E+03 -0.35246150685E+02  0.16794061851E+03  0.82480914000E+02 0.  0.
          5    1    3    3  501    0  0.58157611954E+02 -0.13007466505E+03 -0.23095674005E+03  0.27141266015E+03  0.47000000000E+01 0. -1.
        -11    1    4    4    0    0  0.59449133976E+01 -0.39996360681E+02 -0.39215937633E+02  0.56328861408E+02  0.00000000000E+00 0.  1.
         12    1    4    4    0    0  0.29027851038E+02  0.39813737373E+02 -0.53027204679E+02  0.72385317955E+02  0.00000000000E+00 0. -1.
         -5    1    5    5    0  502 -0.20658437583E+02  0.81652037736E+01  0.60936913422E+02  0.65029524168E+02  0.47000000000E+01 0.  1.
         11    1    6    6    0    0 -0.39645054653E+02  0.34739916608E+02  0.23456134299E+02  0.57695601224E+02  0.00000000000E+00 0. -1.
        -12    1    6    6    0    0 -0.32826884154E+02  0.87352167980E+02 -0.58702284985E+02  0.11024501729E+03  0.00000000000E+00 0.  1.
<mgrwt>
<rscale>  2 0.23479604E+03</rscale>
<asrwt>0</asrwt>
<pdfrwt beam="1">  1       21 0.25814451E-01 0.23588837E+03</pdfrwt>
<pdfrwt beam="2">  1       21 0.71585084E-01 0.23588837E+03</pdfrwt>
<totfact> 0.24538201E+04</totfact>
</mgrwt>
</event>
<event>
12    1  0.1026879E-001  0.2243454E+03  0.7546771E-02  0.1130851E+00
         21   -1    0    0  501  502  0.00000000000E+00  0.00000000000E+00  0.42510934646E+03  0.42510934646E+03  0.00000000000E+00 0. -1.
         21   -1    0    0  502  503 -0.00000000000E+00 -0.00000000000E+00 -0.18386700609E+03  0.18386700609E+03  0.00000000000E+00 0. -1.
         -6    2    1    2    0  503 -0.10541480885E+03  0.93233831747E+02 -0.61586671177E+02  0.23264522022E+03  0.17471706018E+03 0.  0.
        -24    2    3    3    0    0 -0.93189896286E+02  0.11236916325E+03 -0.10036730204E+03  0.18746074580E+03  0.61292334568E+02 0.  0.
          6    2    1    2  501    0  0.10541480885E+03 -0.93233831747E+02  0.30282901155E+03  0.37633113234E+03  0.17353639856E+03 0.  0.
         24    2    5    5    0    0  0.53762296264E+02  0.83108596007E+01  0.85242354855E+02  0.13067822768E+03  0.82771282705E+02 0.  0.
          5    1    5    5  501    0  0.51652512583E+02 -0.10154469135E+03  0.21758665669E+03  0.24565290466E+03  0.47000000000E+01 0. -1.
        -11    1    6    6    0    0 -0.86088529079E+01  0.14820157883E+02  0.61138568075E+02  0.63495463888E+02  0.00000000000E+00 0.  1.
         12    1    6    6    0    0  0.62371149172E+02 -0.65092982826E+01  0.24103786779E+02  0.67182763788E+02  0.00000000000E+00 0. -1.
         -5    1    3    3    0  503 -0.12224912561E+02 -0.19135331500E+02  0.38780630862E+02  0.45184474422E+02  0.47000000000E+01 0.  1.
         13    1    4    4    0    0 -0.43189300474E+02  0.90465732321E+02 -0.45584807803E+02  0.11012419853E+03  0.00000000000E+00 0. -1.
        -14    1    4    4    0    0 -0.50000595812E+02  0.21903430926E+02 -0.54782494237E+02  0.77336547264E+02  0.00000000000E+00 0.  1.
<mgrwt>
<rscale>  2 0.22411553E+03</rscale>
<asrwt>0</asrwt>
<pdfrwt beam="1">  1       21 0.65401438E-01 0.22434545E+03</pdfrwt>
<pdfrwt beam="2">  1       21 0.28287232E-01 0.22434545E+03</pdfrwt>
<totfact> 0.25241779E+04</totfact>
</mgrwt>
</event>
<event>
12    1  0.1026879E-001  0.2521305E+03  0.7546771E-02  0.1111996E+00
         21   -1    0    0  501  502  0.00000000000E+00  0.00000000000E+00  0.64585758865E+03  0.64585758865E+03  0.00000000000E+00 0.  1.
         21   -1    0    0  502  503 -0.00000000000E+00 -0.00000000000E+00 -0.10452073794E+03  0.10452073794E+03  0.00000000000E+00 0. -1.
         -6    2    1    2    0  503  0.17193301377E+03 -0.61159057478E+02  0.17942642982E+03  0.30930131985E+03  0.17370109730E+03 0.  0.
        -24    2    3    3    0    0  0.56524543097E+02  0.21567550415E+02  0.34274642519E+02  0.10619066500E+03  0.80259099230E+02 0.  0.
          6    2    1    2  501    0 -0.17193301377E+03  0.61159057478E+02  0.36191042088E+03  0.44107700675E+03  0.17397810669E+03 0.  0.
         24    2    5    5    0    0 -0.38928467331E+02  0.12757199531E+02  0.22896562801E+03  0.24683654450E+03  0.82612645398E+02 0.  0.
          5    1    5    5  501    0 -0.13300454643E+03  0.48401857948E+02  0.13294479287E+03  0.19424046225E+03  0.47000000000E+01 0. -1.
        -13    1    6    6    0    0  0.25630093538E+02 -0.17053820978E+01  0.54560310536E+02  0.60304539702E+02  0.00000000000E+00 0.  1.
         14    1    6    6    0    0 -0.64558560870E+02  0.14462581628E+02  0.17440531748E+03  0.18653200480E+03  0.00000000000E+00 0. -1.
         -5    1    3    3    0  503  0.11540847067E+03 -0.82726607893E+02  0.14515178731E+03  0.20311065485E+03  0.47000000000E+01 0.  1.
         13    1    4    4    0    0  0.76733322164E+02  0.22284641096E+02  0.30996109895E+02  0.85705115295E+02  0.00000000000E+00 0. -1.
        -14    1    4    4    0    0 -0.20208779066E+02 -0.71709068087E+00  0.32785326233E+01  0.20485549701E+02  0.00000000000E+00 0.  1.
<mgrwt>
<rscale>  2 0.25208269E+03</rscale>
<asrwt>0</asrwt>
<pdfrwt beam="1">  1       21 0.99362703E-01 0.25213047E+03</pdfrwt>
<pdfrwt beam="2">  1       21 0.16080114E-01 0.25213047E+03</pdfrwt>
<totfact> 0.27910965E+04</totfact>
</mgrwt>
</event>
<event>
12    1  0.1026879E-001  0.2649922E+03  0.7546771E-02  0.1104632E+00
         21   -1    0    0  501  502  0.00000000000E+00  0.00000000000E+00  0.30574243017E+03  0.30574243017E+03  0.00000000000E+00 0. -1.
         21   -1    0    0  502  503 -0.00000000000E+00 -0.00000000000E+00 -0.27588141347E+03  0.27588141347E+03  0.00000000000E+00 0.  1.
         -6    2    1    2    0  503  0.19190002960E+03  0.58131308575E+02 -0.10751930350E+03  0.28313732536E+03  0.16852736867E+03 0.  0.
        -24    2    3    3    0    0  0.19222583573E+03  0.91259412617E+02 -0.10142382347E+03  0.24912523481E+03  0.80607309465E+02 0.  0.
          6    2    1    2  501    0 -0.19190002960E+03 -0.58131308575E+02  0.13738032021E+03  0.29848651827E+03  0.17325120147E+03 0.  0.
         24    2    5    5    0    0 -0.20040199825E+03 -0.22783272630E+02  0.81235506374E+02  0.23143357474E+03  0.79260668705E+02 0.  0.
          5    1    5    5  501    0  0.85019686492E+01 -0.35348035945E+02  0.56144813835E+02  0.67052943534E+02  0.47000000000E+01 0. -1.
        -13    1    6    6    0    0 -0.59006388714E+00  0.42148175580E+01 -0.94399545251E+01  0.10354979666E+02  0.00000000000E+00 0.  1.
         14    1    6    6    0    0 -0.19981193437E+03 -0.26998090188E+02  0.90675460899E+02  0.22107859507E+03  0.00000000000E+00 0. -1.
         -5    1    3    3    0  503 -0.32580612457E+00 -0.33128104042E+02 -0.60954800341E+01  0.34012090554E+02  0.47000000000E+01 0.  1.
         11    1    4    4    0    0 -0.36246143854E+01  0.13735232930E+02  0.22088790364E+01  0.14376146900E+02  0.00000000000E+00 0. -1.
        -12    1    4    4    0    0  0.19585045011E+03  0.77524179687E+02 -0.10363270251E+03  0.23474908791E+03  0.00000000000E+00 0.  1.
<mgrwt>
<rscale>  2 0.26422281E+03</rscale>
<asrwt>0</asrwt>
<pdfrwt beam="1">  1       21 0.47037297E-01 0.26499217E+03</pdfrwt>
<pdfrwt beam="2">  1       21 0.42443294E-01 0.26499217E+03</pdfrwt>
<totfact> 0.22255087E+04</totfact>
</mgrwt>
</event>
<event>
12    1  0.1026879E-001  0.3334506E+03  0.7546771E-02  0.1069659E+00
         21   -1    0    0  503  502  0.00000000000E+00  0.00000000000E+00  0.16467186581E+03  0.16467186581E+03  0.00000000000E+00 0. -1.
         21   -1    0    0  501  503 -0.00000000000E+00 -0.00000000000E+00 -0.14352532650E+04  0.14352532650E+04  0.00000000000E+00 0. -1.
          6    2    1    2  501    0 -0.28474078392E+03 -0.11083660193E+02 -0.12175406986E+04  0.12622823967E+04  0.17248575251E+03 0.  0.
         24    2    3    3    0    0 -0.91452055478E+02 -0.36231464787E+02 -0.32389236190E+03  0.34761175421E+03  0.79066251183E+02 0.  0.
         -6    2    1    2    0  502  0.28474078392E+03  0.11083660193E+02 -0.53040700598E+02  0.33764273408E+03  0.17317372320E+03 0.  0.
        -24    2    5    5    0    0  0.18298649925E+03  0.68495171903E+02 -0.23476166266E+02  0.21703523923E+03  0.91528777992E+02 0.  0.
          5    1    3    3  501    0 -0.19328872844E+03  0.25147804594E+02 -0.89364833667E+03  0.91467064250E+03  0.47000000000E+01 0. -1.
        -11    1    4    4    0    0 -0.10269755030E+03 -0.26449932835E+02 -0.30835495812E+03  0.32608153272E+03  0.00000000000E+00 0.  1.
         12    1    4    4    0    0  0.11245494823E+02 -0.97815319516E+01 -0.15537403781E+02  0.21530221490E+02  0.00000000000E+00 0. -1.
         -5    1    5    5    0  502  0.10175428466E+03 -0.57411511709E+02 -0.29564534332E+02  0.12060749485E+03  0.47000000000E+01 0.  1.
         11    1    6    6    0    0  0.71451073806E+02  0.57542792620E+02  0.24760025585E+02  0.95023617051E+02  0.00000000000E+00 0. -1.
        -12    1    6    6    0    0  0.11153542545E+03  0.10952379283E+02 -0.48236191851E+02  0.12201162218E+03  0.00000000000E+00 0.  1.
<mgrwt>
<rscale>  2 0.33336137E+03</rscale>
<asrwt>0</asrwt>
<pdfrwt beam="1">  1       21 0.25334133E-01 0.33345060E+03</pdfrwt>
<pdfrwt beam="2">  1       21 0.22080819E+00 0.33345060E+03</pdfrwt>
<totfact> 0.13026718E+03</totfact>
</mgrwt>
</event>
<event>
12    1  0.1026879E-001  0.1830027E+03  0.7546771E-02  0.1165015E+00
         21   -1    0    0  501  502  0.00000000000E+00  0.00000000000E+00  0.64983415907E+03  0.64983415907E+03  0.00000000000E+00 0.  1.
         21   -1    0    0  502  503 -0.00000000000E+00 -0.00000000000E+00 -0.52124303989E+02  0.52124303989E+02  0.00000000000E+00 0.  1.
         -6    2    1    2    0  503  0.32095142640E+02  0.50505096541E+02  0.33956686862E+03  0.38574036781E+03  0.17294250529E+03 0.  0.
        -24    2    3    3    0    0 -0.58447949060E+01  0.91430455122E+02  0.26992160058E+03  0.29637103752E+03  0.81144511026E+02 0.  0.
          6    2    1    2  501    0 -0.32095142640E+02 -0.50505096541E+02  0.25814298646E+03  0.31621809525E+03  0.17255497485E+03 0.  0.
         24    2    5    5    0    0  0.23377292154E+02  0.22748721329E+02  0.10194306512E+03  0.13493428935E+03  0.82163689094E+02 0.  0.
          5    1    5    5  501    0 -0.55472434795E+02 -0.73253817870E+02  0.15619992134E+03  0.18128380590E+03  0.47000000000E+01 0. -1.
        -13    1    6    6    0    0 -0.21171971425E+02  0.34632069297E+02  0.34696094653E+02  0.53398984840E+02  0.00000000000E+00 0.  1.
         14    1    6    6    0    0  0.44549263579E+02 -0.11883347968E+02  0.67246970470E+02  0.81535304511E+02  0.00000000000E+00 0. -1.
         -5    1    3    3    0  503  0.37939937546E+02 -0.40925358582E+02  0.69645268036E+02  0.89369330286E+02  0.47000000000E+01 0.  1.
         11    1    4    4    0    0 -0.16879605826E+02 -0.68809246005E+01  0.17555811608E+02  0.25307602364E+02  0.00000000000E+00 0. -1.
        -12    1    4    4    0    0  0.11034810920E+02  0.98311379723E+02  0.25236578898E+03  0.27106343516E+03  0.00000000000E+00 0.  1.
<mgrwt>
<rscale>  2 0.18291104E+03</rscale>
<asrwt>0</asrwt>
<pdfrwt beam="1">  1       21 0.99974480E-01 0.18300266E+03</pdfrwt>
<pdfrwt beam="2">  1       21 0.80191242E-02 0.18300266E+03</pdfrwt>
<totfact> 0.98559614E+04</totfact>
</mgrwt>
</event>
<event>
12    1  0.1026879E-001  0.2040220E+03  0.7546771E-02  0.1146443E+00
         21   -1    0    0  503  502  0.00000000000E+00  0.00000000000E+00  0.42055325957E+03  0.42055325957E+03  0.00000000000E+00 0. -1.
         21   -1    0    0  501  503 -0.00000000000E+00 -0.00000000000E+00 -0.99234706218E+02  0.99234706218E+02  0.00000000000E+00 0. -1.
          6    2    1    2  501    0 -0.10725667577E+03 -0.13148820213E+02  0.17673643661E+03  0.26973005623E+03  0.17274735667E+03 0.  0.
         24    2    3    3    0    0 -0.96137979491E+02 -0.64754183530E+02  0.15488215226E+03  0.21240258747E+03  0.87696993611E+02 0.  0.
         -6    2    1    2    0  502  0.10725667577E+03  0.13148820213E+02  0.14458211674E+03  0.25005790956E+03  0.17305514635E+03 0.  0.
        -24    2    5    5    0    0  0.28829066118E+02  0.67456429900E+02  0.82011874113E+02  0.13587677412E+03  0.79718663201E+02 0.  0.
          5    1    3    3  501    0 -0.11118696284E+02  0.51605363317E+02  0.21854284348E+02  0.57327468761E+02  0.47000000000E+01 0. -1.
        -13    1    4    4    0    0  0.10262634011E+02  0.82727343975E+01  0.30238198190E+02  0.32986488461E+02  0.00000000000E+00 0.  1.
         14    1    4    4    0    0 -0.10640061350E+03 -0.73026917928E+02  0.12464395407E+03  0.17941609901E+03  0.00000000000E+00 0. -1.
         -5    1    5    5    0  502  0.78427609657E+02 -0.54307609687E+02  0.62570242626E+02  0.11418113543E+03  0.47000000000E+01 0.  1.
         13    1    6    6    0    0  0.43952368174E+02  0.26557070240E+02  0.10957008818E+02  0.52508520167E+02  0.00000000000E+00 0. -1.
        -14    1    6    6    0    0 -0.15123302056E+02  0.40899359660E+02  0.71054865295E+02  0.83368253957E+02  0.00000000000E+00 0.  1.
<mgrwt>
<rscale>  2 0.20395670E+03</rscale>
<asrwt>0</asrwt>
<pdfrwt beam="1">  1       21 0.64700500E-01 0.20402198E+03</pdfrwt>
<pdfrwt beam="2">  1       21 0.15266878E-01 0.20402198E+03</pdfrwt>
<totfact> 0.83220222E+04</totfact>
</mgrwt>
</event>
<event>
12    1  0.1026879E-001  0.1766323E+03  0.7546771E-02  0.1171208E+00
         21   -1    0    0  501  502  0.00000000000E+00  0.00000000000E+00  0.57420650343E+02  0.57420650343E+02  0.00000000000E+00 0.  1.
         21   -1    0    0  502  503 -0.00000000000E+00 -0.00000000000E+00 -0.54226175961E+03  0.54226175961E+03  0.00000000000E+00 0. -1.
         -6    2    1    2    0  503 -0.34339526286E+02 -0.23060723560E+02 -0.23598485191E+03  0.29451291988E+03  0.17128341894E+03 0.  0.
        -24    2    3    3    0    0 -0.76759975394E+02 -0.34611916858E+02 -0.10200261957E+03  0.15342339810E+03  0.77743977746E+02 0.  0.
          6    2    1    2  501    0  0.34339526286E+02  0.23060723560E+02 -0.24885625735E+03  0.30516949008E+03  0.17172064761E+03 0.  0.
         24    2    5    5    0    0  0.46621047663E+02 -0.32913548808E+02 -0.79037227234E+02  0.12588048337E+03  0.79637861758E+02 0.  0.
          5    1    5    5  501    0 -0.12281521377E+02  0.55974272368E+02 -0.16981903012E+03  0.17928900671E+03  0.47000000000E+01 0. -1.
        -11    1    6    6    0    0  0.53919997395E+01 -0.49533113715E+02 -0.24505124625E+02  0.55525707095E+02  0.00000000000E+00 0.  1.
         12    1    6    6    0    0  0.41229047923E+02  0.16619564907E+02 -0.54532102609E+02  0.70354776279E+02  0.00000000000E+00 0. -1.
         -5    1    3    3    0  503  0.42420449108E+02  0.11551193298E+02 -0.13398223235E+03  0.14108952177E+03  0.47000000000E+01 0.  1.
         13    1    4    4    0    0 -0.50490333301E+02 -0.23299033906E+02 -0.11040061544E+03  0.12361397424E+03  0.00000000000E+00 0. -1.
        -14    1    4    4    0    0 -0.26269642093E+02 -0.11312882952E+02  0.83979958727E+01  0.29809423863E+02  0.00000000000E+00 0.  1.
<mgrwt>
<rscale>  2 0.17652598E+03</rscale>
<asrwt>0</asrwt>
<pdfrwt beam="1">  1       21 0.88339465E-02 0.17663233E+03</pdfrwt>
<pdfrwt beam="2">  1       21 0.83424884E-01 0.17663233E+03</pdfrwt>
<totfact> 0.12695694E+05</totfact>
</mgrwt>
</event>
<event>
12    1  0.1026879E-001  0.2037971E+03  0.7546771E-02  0.1146688E+00
         21   -1    0    0  501  502  0.00000000000E+00  0.00000000000E+00  0.53489729733E+03  0.53489729733E+03  0.00000000000E+00 0.  1.
         21   -1    0    0  502  503 -0.00000000000E+00 -0.00000000000E+00 -0.78740939248E+02  0.78740939248E+02  0.00000000000E+00 0.  1.
         -6    2    1    2    0  503 -0.23528067613E+02 -0.10149102319E+03  0.26726163658E+03  0.33576329983E+03  0.17451135600E+03 0.  0.
        -24    2    3    3    0    0 -0.61929069067E+02 -0.99402528046E+01  0.16241944264E+03  0.19129823104E+03  0.79252253155E+02 0.  0.
          6    2    1    2  501    0  0.23528067613E+02  0.10149102319E+03  0.18889472150E+03  0.27787493675E+03  0.17515497968E+03 0.  0.
         24    2    5    5    0    0  0.59106801231E+02  0.12272132424E+03  0.15307888264E+03  0.22290734373E+03  0.87751935604E+02 0.  0.
          5    1    5    5  501    0 -0.35578733618E+02 -0.21230301056E+02  0.35815838856E+02  0.54967593014E+02  0.47000000000E+01 0. -1.
        -11    1    6    6    0    0 -0.14524659573E+02  0.58574744915E+02  0.35318174872E+02  0.69923815355E+02  0.00000000000E+00 0.  1.
         12    1    6    6    0    0  0.73631460804E+02  0.64146579328E+02  0.11776070777E+03  0.15298352838E+03  0.00000000000E+00 0. -1.
         -5    1    3    3    0  503  0.38401001455E+02 -0.91550770382E+02  0.10484219393E+03  0.14446506879E+03  0.47000000000E+01 0.  1.
         11    1    4    4    0    0 -0.49268192214E+02 -0.43128112577E+02  0.10866221976E+03  0.12686554640E+03  0.00000000000E+00 0. -1.
        -12    1    4    4    0    0 -0.12660876853E+02  0.33187859773E+02  0.53757222881E+02  0.64432684648E+02  0.00000000000E+00 0.  1.
<mgrwt>
<rscale>  2 0.20365875E+03</rscale>
<asrwt>0</asrwt>
<pdfrwt beam="1">  1       21 0.82291890E-01 0.20379712E+03</pdfrwt>
<pdfrwt beam="2">  1       21 0.12113991E-01 0.20379712E+03</pdfrwt>
<totfact> 0.74057502E+04</totfact>
</mgrwt>
</event>
<event>
12    1  0.1026879E-001  0.2041307E+03  0.7546771E-02  0.1147029E+00
         21   -1    0    0  501  502  0.00000000000E+00  0.00000000000E+00  0.25605852155E+03  0.25605852155E+03  0.00000000000E+00 0.  1.
         21   -1    0    0  502  503 -0.00000000000E+00 -0.00000000000E+00 -0.29326742879E+03  0.29326742879E+03  0.00000000000E+00 0.  1.
         -6    2    1    2    0  503 -0.99020688951E+02  0.23374810757E+02 -0.20388058829E+03  0.28850759899E+03  0.17696853329E+03 0.  0.
        -24    2    3    3    0    0 -0.70583336825E+02 -0.50652657138E+02 -0.95923640951E+02  0.15447200119E+03  0.84335965903E+02 0.  0.
          6    2    1    2  501    0  0.99020688951E+02 -0.23374810757E+02  0.16667168105E+03  0.26081835135E+03  0.17290252895E+03 0.  0.
         24    2    5    5    0    0  0.95503767287E+02 -0.14047087035E+02  0.19357421274E+03  0.23174583203E+03  0.83167689676E+02 0.  0.
          5    1    5    5  501    0  0.35169216639E+01 -0.93277237223E+01 -0.26902531691E+02  0.29072519313E+02  0.47000000000E+01 0. -1.
        -11    1    6    6    0    0  0.13232567816E+02 -0.29570695759E+02  0.10491647007E+03  0.10980433776E+03  0.00000000000E+00 0.  1.
         12    1    6    6    0    0  0.82271199471E+02  0.15523608724E+02  0.88657742670E+02  0.12194149427E+03  0.00000000000E+00 0. -1.
         -5    1    3    3    0  503 -0.28437352126E+02  0.74027467895E+02 -0.10795694734E+03  0.13403559780E+03  0.47000000000E+01 0.  1.
         13    1    4    4    0    0 -0.13670540068E+02 -0.43236049931E+02 -0.84578390033E+02  0.95967409780E+02  0.00000000000E+00 0. -1.
        -14    1    4    4    0    0 -0.56912796757E+02 -0.74166072073E+01 -0.11345250918E+02  0.58504591406E+02  0.00000000000E+00 0.  1.
<mgrwt>
<rscale>  2 0.20324628E+03</rscale>
<asrwt>0</asrwt>
<pdfrwt beam="1">  1       21 0.39393619E-01 0.20413069E+03</pdfrwt>
<pdfrwt beam="2">  1       21 0.45118066E-01 0.20413069E+03</pdfrwt>
<totfact> 0.29093714E+04</totfact>
</mgrwt>
</event>
<event>
12    1  0.1026879E-001  0.1834130E+03  0.7546771E-02  0.1166103E+00
         21   -1    0    0  501  502  0.00000000000E+00  0.00000000000E+00  0.15302756813E+04  0.15302756813E+04  0.00000000000E+00 0. -1.
         21   -1    0    0  502  503 -0.00000000000E+00 -0.00000000000E+00 -0.10872698083E+03  0.10872698083E+03  0.00000000000E+00 0. -1.
         -6    2    1    2    0  503 -0.26402375374E+02 -0.52909239612E+02 -0.26928882483E+02  0.17895895058E+03  0.16674731848E+03 0.  0.
        -24    2    3    3    0    0 -0.76307301496E+02 -0.37421293276E+02 -0.40742106123E+02  0.12470700794E+03  0.81662483222E+02 0.  0.
          6    2    1    2  501    0  0.26402375374E+02  0.52909239612E+02  0.14484775829E+04  0.14600437115E+04  0.17361986713E+03 0.  0.
         24    2    5    5    0    0  0.32763939084E+02  0.10014480776E+03  0.92933876128E+03  0.93870037501E+03  0.79908714138E+02 0.  0.
          5    1    5    5  501    0 -0.63615637107E+01 -0.47235568152E+02  0.51913882166E+03  0.52134333653E+03  0.47000000000E+01 0. -1.
        -13    1    6    6    0    0  0.39944376722E+02  0.43645042337E+02  0.24692979212E+03  0.25391881614E+03  0.00000000000E+00 0.  1.
         14    1    6    6    0    0 -0.71804376374E+01  0.56499765427E+02  0.68240896916E+03  0.68478155887E+03  0.00000000000E+00 0. -1.
         -5    1    3    3    0  503  0.49904926122E+02 -0.15487946336E+02  0.13813223641E+02  0.54251942641E+02  0.47000000000E+01 0.  1.
         11    1    4    4    0    0  0.10055766606E+01 -0.38129675814E+02 -0.25557986686E+02  0.45913985294E+02  0.00000000000E+00 0. -1.
        -12    1    4    4    0    0 -0.77312878157E+02  0.70838253771E+00 -0.15184119437E+02  0.78793022646E+02  0.00000000000E+00 0.  1.
<mgrwt>
<rscale>  2 0.18176808E+03</rscale>
<asrwt>0</asrwt>
<pdfrwt beam="1">  1       21 0.23542701E+00 0.18341301E+03</pdfrwt>
<pdfrwt beam="2">  1       21 0.16727229E-01 0.18341301E+03</pdfrwt>
<totfact> 0.26341006E+03</totfact>
</mgrwt>
</event>
<event>
12    1  0.1026879E-001  0.2355606E+03  0.7546771E-02  0.1122841E+00
         21   -1    0    0  501  502  0.00000000000E+00  0.00000000000E+00  0.78331818573E+02  0.78331818573E+02  0.00000000000E+00 0. -1.
         21   -1    0    0  502  503 -0.00000000000E+00 -0.00000000000E+00 -0.19087132746E+04  0.19087132746E+04  0.00000000000E+00 0.  1.
         -6    2    1    2    0  503 -0.62227418354E+02 -0.14606336982E+03 -0.17031532928E+04  0.17193217610E+04  0.17357827986E+03 0.  0.
        -24    2    3    3    0    0 -0.31391000340E+02 -0.16392460002E+03 -0.15979774745E+04  0.16081734322E+04  0.69520570292E+02 0.  0.
          6    2    1    2  501    0  0.62227418354E+02  0.14606336982E+03 -0.12722816314E+03  0.26772333215E+03  0.17401729077E+03 0.  0.
         24    2    5    5    0    0 -0.30192055920E+02  0.42303048150E+02 -0.43661013853E+02  0.10551013288E+03  0.80777446649E+02 0.  0.
          5    1    5    5  501    0  0.92419474273E+02  0.10376032167E+03 -0.83567149286E+02  0.16221319927E+03  0.47000000000E+01 0. -1.
        -13    1    6    6    0    0  0.96106655220E+00 -0.12288565832E+02 -0.40765663944E+02  0.42588400486E+02  0.00000000000E+00 0.  1.
         14    1    6    6    0    0 -0.31153122472E+02  0.54591613983E+02 -0.28953499089E+01  0.62921732399E+02  0.00000000000E+00 0. -1.
         -5    1    3    3    0  503 -0.30836418014E+02  0.17861230205E+02 -0.10517581832E+03  0.11114832873E+03  0.47000000000E+01 0.  1.
         11    1    4    4    0    0 -0.25234128621E+02 -0.50644740923E+02 -0.30313748898E+03  0.30837313154E+03  0.00000000000E+00 0. -1.
        -12    1    4    4    0    0 -0.61568717185E+01 -0.11327985910E+03 -0.12948399855E+04  0.12998003007E+04  0.00000000000E+00 0.  1.
<mgrwt>
<rscale>  2 0.23547949E+03</rscale>
<asrwt>0</asrwt>
<pdfrwt beam="1">  1       21 0.12051049E-01 0.23556056E+03</pdfrwt>
<pdfrwt beam="2">  1       21 0.29364821E+00 0.23556056E+03</pdfrwt>
<totfact> 0.20590284E+03</totfact>
</mgrwt>
</event>
<event>
12    1  0.1026879E-001  0.3127273E+03  0.7546771E-02  0.1079335E+00
         21   -1    0    0  501  502  0.00000000000E+00  0.00000000000E+00  0.34501046895E+03  0.34501046895E+03  0.00000000000E+00 0.  1.
         21   -1    0    0  502  503 -0.00000000000E+00 -0.00000000000E+00 -0.51469753947E+03  0.51469753947E+03  0.00000000000E+00 0.  1.
         -6    2    1    2    0  503 -0.20801092472E+03  0.15256946403E+03 -0.37414295998E+03  0.48607638817E+03  0.17245670319E+03 0.  0.
        -24    2    3    3    0    0 -0.18813341024E+03  0.61761960421E+02 -0.22655636666E+03  0.31159140078E+03  0.80948711952E+02 0.  0.
          6    2    1    2  501    0  0.20801092472E+03 -0.15256946403E+03  0.20445588946E+03  0.37363162026E+03  0.17678345728E+03 0.  0.
         24    2    5    5    0    0  0.23288429722E+03 -0.14694098346E+03  0.18803837108E+03  0.34293977504E+03  0.80140575239E+02 0.  0.
          5    1    5    5  501    0 -0.24873372501E+02 -0.56284805760E+01  0.16417518377E+02  0.30691845217E+02  0.47000000000E+01 0. -1.
        -11    1    6    6    0    0  0.12036172309E+03 -0.87167154365E+02  0.54291273690E+02  0.15821693836E+03  0.00000000000E+00 0.  1.
         12    1    6    6    0    0  0.11252257413E+03 -0.59773829091E+02  0.13374709739E+03  0.18472283669E+03  0.00000000000E+00 0. -1.
         -5    1    3    3    0  503 -0.19877514477E+02  0.90807503611E+02 -0.14758659332E+03  0.17448498738E+03  0.47000000000E+01 0.  1.
         13    1    4    4    0    0 -0.19599849586E+03  0.62295044319E+02 -0.21430616506E+03  0.29702393053E+03  0.00000000000E+00 0. -1.
        -14    1    4    4    0    0  0.78650856238E+01 -0.53308389848E+00 -0.12250201601E+02  0.14567470253E+02  0.00000000000E+00 0.  1.
<mgrwt>
<rscale>  2 0.31211921E+03</rscale>
<asrwt>0</asrwt>
<pdfrwt beam="1">  1       21 0.53078534E-01 0.31272732E+03</pdfrwt>
<pdfrwt beam="2">  1       21 0.79184237E-01 0.31272732E+03</pdfrwt>
<totfact> 0.43864096E+03</totfact>
</mgrwt>
</event>
<event>
12    1  0.1026879E-001  0.2073513E+03  0.7546771E-02  0.1143946E+00
         21   -1    0    0  501  502  0.00000000000E+00  0.00000000000E+00  0.76903075139E+02  0.76903075139E+02  0.00000000000E+00 0. -1.
         21   -1    0    0  502  503 -0.00000000000E+00 -0.00000000000E+00 -0.65491744734E+03  0.65491744734E+03  0.00000000000E+00 0. -1.
         -6    2    1    2    0  503  0.43192475397E+02 -0.10347053781E+03 -0.14724871324E+03  0.25431623151E+03  0.17442138612E+03 0.  0.
        -24    2    3    3    0    0  0.94381326334E+01 -0.10628970944E+03 -0.36776533223E+02  0.13867239925E+03  0.80566371626E+02 0.  0.
          6    2    1    2  501    0 -0.43192475397E+02  0.10347053781E+03 -0.43076565897E+03  0.47750429097E+03  0.17285703001E+03 0.  0.
         24    2    5    5    0    0 -0.89454690562E+02  0.89628842779E+02 -0.37484212064E+03  0.40346837258E+03  0.79023041841E+02 0.  0.
          5    1    5    5  501    0  0.46262215165E+02  0.13841695035E+02 -0.55923538324E+02  0.74035918391E+02  0.47000000000E+01 0. -1.
        -11    1    6    6    0    0  0.88778577217E+01  0.20125271012E+02 -0.24088589070E+02  0.32620591878E+02  0.00000000000E+00 0.  1.
         12    1    6    6    0    0 -0.98332548283E+02  0.69503571767E+02 -0.35075353157E+03  0.37084778070E+03  0.00000000000E+00 0. -1.
         -5    1    3    3    0  503  0.33754342764E+02  0.28191716237E+01 -0.11047218001E+03  0.11564383227E+03  0.47000000000E+01 0.  1.
         11    1    4    4    0    0  0.34768387637E+02 -0.10173905105E+03 -0.34119162464E+02  0.11279978961E+03  0.00000000000E+00 0. -1.
        -12    1    4    4    0    0 -0.25330255003E+02 -0.45506583851E+01 -0.26573707583E+01  0.25872609641E+02  0.00000000000E+00 0.  1.
<mgrwt>
<rscale>  2 0.20702197E+03</rscale>
<asrwt>0</asrwt>
<pdfrwt beam="1">  1       21 0.11831242E-01 0.20735130E+03</pdfrwt>
<pdfrwt beam="2">  1       21 0.10075653E+00 0.20735130E+03</pdfrwt>
<totfact> 0.48167177E+04</totfact>
</mgrwt>
</event>
<event>
12    1  0.1026879E-001  0.2044797E+03  0.7546771E-02  0.1146028E+00
         21   -1    0    0  501  502  0.00000000000E+00  0.00000000000E+00  0.18659546921E+03  0.18659546921E+03  0.00000000000E+00 0.  1.
         21   -1    0    0  502  503 -0.00000000000E+00 -0.00000000000E+00 -0.24032912868E+03  0.24032912868E+03  0.00000000000E+00 0.  1.
         -6    2    1    2    0  503 -0.10216676236E+03 -0.38796204945E+02  0.28770529938E+02  0.20649383226E+03  0.17282582712E+03 0.  0.
        -24    2    3    3    0    0 -0.83864365633E+02 -0.81776836292E+02 -0.19577679460E+02  0.13909982845E+03  0.72420949775E+02 0.  0.
          6    2    1    2  501    0  0.10216676236E+03  0.38796204945E+02 -0.82504189411E+02  0.22043076563E+03  0.17274139145E+03 0.  0.
         24    2    5    5    0    0  0.12348353295E+03 -0.96168504305E+01 -0.61760211988E+02  0.16341645832E+03  0.86890438736E+02 0.  0.
          5    1    5    5  501    0 -0.21316770589E+02  0.48413055375E+02 -0.20743977423E+02  0.57014307314E+02  0.47000000000E+01 0. -1.
        -13    1    6    6    0    0  0.54232227497E+02 -0.25341837781E+02 -0.69794754594E+02  0.91949176235E+02  0.00000000000E+00 0.  1.
         14    1    6    6    0    0  0.69251305450E+02  0.15724987351E+02  0.80345426061E+01  0.71467282085E+02  0.00000000000E+00 0. -1.
         -5    1    3    3    0  503 -0.18302396725E+02  0.42980631347E+02  0.48348209398E+02  0.67394003805E+02  0.47000000000E+01 0.  1.
         13    1    4    4    0    0 -0.42912296741E+02 -0.60509261928E+02  0.21591024412E+02  0.77259357529E+02  0.00000000000E+00 0. -1.
        -14    1    4    4    0    0 -0.40952068892E+02 -0.21267574364E+02 -0.41168703872E+02  0.61840470926E+02  0.00000000000E+00 0.  1.
<mgrwt>
<rscale>  2 0.20446189E+03</rscale>
<asrwt>0</asrwt>
<pdfrwt beam="1">  1       21 0.28706995E-01 0.20447973E+03</pdfrwt>
<pdfrwt beam="2">  1       21 0.36973712E-01 0.20447973E+03</pdfrwt>
<totfact> 0.81488500E+04</totfact>
</mgrwt>
</event>
<event>
12    1  0.1026879E-001  0.1880492E+03  0.7546771E-02  0.1160260E+00
         21   -1    0    0  503  502  0.00000000000E+00  0.00000000000E+00  0.10216339624E+04  0.10216339624E+04  0.00000000000E+00 0.  1.
         21   -1    0    0  501  503 -0.00000000000E+00 -0.00000000000E+00 -0.53807666992E+02  0.53807666992E+02  0.00000000000E+00 0.  1.
          6    2    1    2  501    0 -0.83520859629E+01  0.71486347108E+02  0.16246866389E+03  0.24842082956E+03  0.17359950072E+03 0.  0.
         24    2    3    3    0    0 -0.89060680681E+01  0.11009743683E+03  0.15789692142E+03  0.20925306252E+03  0.81575993620E+02 0.  0.
         -6    2    1    2    0  502  0.83520859629E+01 -0.71486347108E+02  0.80535763148E+03  0.82702079980E+03  0.17373092283E+03 0.  0.
        -24    2    5    5    0    0  0.35565306336E+02 -0.23848781931E+02  0.22542685614E+03  0.24448179581E+03  0.84382614310E+02 0.  0.
          5    1    3    3  501    0  0.55398210519E+00 -0.38611089722E+02  0.45717424704E+01  0.39167767041E+02  0.47000000000E+01 0. -1.
        -11    1    4    4    0    0  0.85955822973E+01  0.62580261388E+02  0.26618969679E+02  0.68547375567E+02  0.00000000000E+00 0.  1.
         12    1    4    4    0    0 -0.17501650365E+02  0.47517175442E+02  0.13127795174E+03  0.14070568695E+03  0.00000000000E+00 0. -1.
         -5    1    5    5    0  502 -0.27213220373E+02 -0.47637565176E+02  0.57993077534E+03  0.58253900399E+03  0.47000000000E+01 0.  1.
         13    1    6    6    0    0  0.57338176557E+02 -0.36607546502E+02  0.18138583860E+03  0.19372300172E+03  0.00000000000E+00 0. -1.
        -14    1    6    6    0    0 -0.21772870221E+02  0.12758764571E+02  0.44041017541E+02  0.50758794086E+02  0.00000000000E+00 0.  1.
<mgrwt>
<rscale>  2 0.18801881E+03</rscale>
<asrwt>0</asrwt>
<pdfrwt beam="1">  1       21 0.15717444E+00 0.18804917E+03</pdfrwt>
<pdfrwt beam="2">  1       21 0.82781034E-02 0.18804917E+03</pdfrwt>
<totfact> 0.29941837E+04</totfact>
</mgrwt>
</event>
<event>
12    1  0.1026879E-001  0.1801784E+03  0.7546771E-02  0.1170034E+00
         21   -1    0    0  503  502  0.00000000000E+00  0.00000000000E+00  0.84638759755E+02  0.84638759755E+02  0.00000000000E+00 0. -1.
         21   -1    0    0  501  503 -0.00000000000E+00 -0.00000000000E+00 -0.38169277411E+03  0.38169277411E+03  0.00000000000E+00 0. -1.
          6    2    1    2  501    0 -0.21032152395E+02 -0.45440334022E+02 -0.93438298138E+02  0.19444256377E+03  0.16300312774E+03 0.  0.
         24    2    3    3    0    0  0.47750695735E+02 -0.45128109370E+02 -0.47925689040E+02  0.11183103147E+03  0.76763485664E+02 0.  0.
         -6    2    1    2    0  502  0.21032152395E+02  0.45440334022E+02 -0.20361571622E+03  0.27188897010E+03  0.17308112774E+03 0.  0.
        -24    2    5    5    0    0 -0.53895019271E+02  0.39650536112E+02 -0.11354933672E+03  0.15449371667E+03  0.80610287822E+02 0.  0.
          5    1    3    3  501    0 -0.68782848130E+02 -0.31222465201E+00 -0.45512609098E+02  0.82611532295E+02  0.47000000000E+01 0. -1.
        -11    1    4    4    0    0  0.58852939933E+02 -0.19306346211E+02 -0.55014857179E+02  0.82843455101E+02  0.00000000000E+00 0.  1.
         12    1    4    4    0    0 -0.11102244197E+02 -0.25821763159E+02  0.70891681387E+01  0.28987576369E+02  0.00000000000E+00 0. -1.
         -5    1    5    5    0  502  0.74927171666E+02  0.57897979103E+01 -0.90066379493E+02  0.11739525343E+03  0.47000000000E+01 0.  1.
         13    1    6    6    0    0 -0.97021350987E+01  0.32322997070E+02 -0.10311670860E+03  0.10849867814E+03  0.00000000000E+00 0. -1.
        -14    1    6    6    0    0 -0.44192884172E+02  0.73275390420E+01 -0.10432628126E+02  0.45995038531E+02  0.00000000000E+00 0.  1.
<mgrwt>
<rscale>  2 0.17771377E+03</rscale>
<asrwt>0</asrwt>
<pdfrwt beam="1">  1       21 0.13021348E-01 0.18017839E+03</pdfrwt>
<pdfrwt beam="2">  1       21 0.58721965E-01 0.18017839E+03</pdfrwt>
<totfact> 0.13811181E+05</totfact>
</mgrwt>
</event>
<event>
12    1  0.1026879E-001  0.2290513E+03  0.7546771E-02  0.1127420E+00
         21   -1    0    0  503  502  0.00000000000E+00  0.00000000000E+00  0.18942175684E+04  0.18942175684E+04  0.00000000000E+00 0.  1.
         21   -1    0    0  501  503 -0.00000000000E+00 -0.00000000000E+00 -0.42445569492E+02  0.42445569492E+02  0.00000000000E+00 0.  1.
          6    2    1    2  501    0 -0.12810377634E+03  0.79791204655E+02  0.35445276930E+03  0.42202044326E+03  0.17229995652E+03 0.  0.
         24    2    3    3    0    0 -0.48226039809E+00  0.17810664139E+02  0.17342317314E+03  0.19197122370E+03  0.80373511908E+02 0.  0.
         -6    2    1    2    0  502  0.12810377634E+03 -0.79791204655E+02  0.14973192296E+04  0.15146426946E+04  0.17146545767E+03 0.  0.
        -24    2    5    5    0    0  0.22337688889E+02 -0.37388182466E+01  0.85801666179E+03  0.86218557423E+03  0.81599150714E+02 0.  0.
          5    1    3    3  501    0 -0.12762151594E+03  0.61980540517E+02  0.18102959616E+03  0.23004921956E+03  0.47000000000E+01 0. -1.
        -11    1    4    4    0    0 -0.24068071864E+02  0.42578536952E+01  0.10179893960E+02  0.26477002141E+02  0.00000000000E+00 0.  1.
         12    1    4    4    0    0  0.23585811466E+02  0.13552810443E+02  0.16324327918E+03  0.16549422156E+03  0.00000000000E+00 0. -1.
         -5    1    5    5    0  502  0.10576608745E+03 -0.76052386409E+02  0.63930256780E+03  0.65245712038E+03  0.47000000000E+01 0.  1.
         13    1    6    6    0    0  0.21727536386E+02  0.34193627669E+02  0.27883344432E+03  0.28176121039E+03  0.00000000000E+00 0. -1.
        -14    1    6    6    0    0  0.61015250262E+00 -0.37932445915E+02  0.57918321746E+03  0.58042436383E+03  0.00000000000E+00 0.  1.
<mgrwt>
<rscale>  2 0.22889435E+03</rscale>
<asrwt>0</asrwt>
<pdfrwt beam="1">  1       21 0.29141802E+00 0.22905128E+03</pdfrwt>
<pdfrwt beam="2">  1       21 0.65300891E-02 0.22905128E+03</pdfrwt>
<totfact> 0.62804347E+03</totfact>
</mgrwt>
</event>
<event>
12    1  0.1026879E-001  0.2567683E+03  0.7546771E-02  0.1109204E+00
         21   -1    0    0  503  502  0.00000000000E+00  0.00000000000E+00  0.20562518008E+03  0.20562518008E+03  0.00000000000E+00 0. -1.
         21   -1    0    0  501  503 -0.00000000000E+00 -0.00000000000E+00 -0.84354667808E+03  0.84354667808E+03  0.00000000000E+00 0. -1.
          6    2    1    2  501    0  0.18183616985E+03  0.55572538552E+02 -0.73216127881E+03  0.77565571959E+03  0.17154870279E+03 0.  0.
         24    2    3    3    0    0  0.24713301942E+02  0.33559838832E+02 -0.35963538860E+03  0.37072389391E+03  0.79759530508E+02 0.  0.
         -6    2    1    2    0  502 -0.18183616985E+03 -0.55572538552E+02  0.94239780807E+02  0.27351613858E+03  0.17256083585E+03 0.  0.
        -24    2    5    5    0    0 -0.51395092706E+02  0.31222779410E+02  0.28932348855E+02  0.10370609031E+03  0.79382333350E+02 0.  0.
          5    1    3    3  501    0  0.15712286790E+03  0.22012699720E+02 -0.37252589021E+03  0.40493182568E+03  0.47000000000E+01 0. -1.
        -11    1    4    4    0    0 -0.92500458899E+01  0.50874069989E+02 -0.19592764349E+03  0.20263606745E+03  0.00000000000E+00 0.  1.
         12    1    4    4    0    0  0.33963347832E+02 -0.17314231157E+02 -0.16370774511E+03  0.16808782646E+03  0.00000000000E+00 0. -1.
         -5    1    5    5    0  502 -0.13044107714E+03 -0.86795317962E+02  0.65307431952E+02  0.16981004827E+03  0.47000000000E+01 0.  1.
         11    1    6    6    0    0 -0.68495261177E+02  0.59382603735E+01  0.23790021065E+02  0.72751830508E+02  0.00000000000E+00 0. -1.
        -12    1    6    6    0    0  0.17100168470E+02  0.25284519037E+02  0.51423277891E+01  0.30954259800E+02  0.00000000000E+00 0.  1.
<mgrwt>
<rscale>  2 0.25659832E+03</rscale>
<asrwt>0</asrwt>
<pdfrwt beam="1">  1       21 0.31634643E-01 0.25676826E+03</pdfrwt>
<pdfrwt beam="2">  1       21 0.12977641E+00 0.25676826E+03</pdfrwt>
<totfact> 0.39748613E+03</totfact>
</mgrwt>
</event>
<event>
12    1  0.1026879E-001  0.2003166E+03  0.7546771E-02  0.1149647E+00
         21   -1    0    0  503  502  0.00000000000E+00  0.00000000000E+00  0.17238202610E+03  0.17238202610E+03  0.00000000000E+00 0. -1.
         21   -1    0    0  501  503 -0.00000000000E+00 -0.00000000000E+00 -0.23228782186E+03  0.23228782186E+03  0.00000000000E+00 0. -1.
          6    2    1    2  501    0 -0.17185703387E+02  0.96756641716E+02 -0.20902237070E+02  0.20140421659E+03  0.17455531739E+03 0.  0.
         24    2    3    3    0    0 -0.46156191821E+01 -0.54566666825E+01 -0.48650684274E+02  0.94644515614E+02  0.80867892911E+02 0.  0.
         -6    2    1    2    0  502  0.17185703387E+02 -0.96756641716E+02 -0.39003558696E+02  0.20326563136E+03  0.17360427179E+03 0.  0.
        -24    2    5    5    0    0  0.13872585315E+01 -0.20083095839E+02 -0.80067032386E+02  0.11474036735E+03  0.79682915355E+02 0.  0.
          5    1    3    3  501    0 -0.12570084205E+02  0.10221330840E+03  0.27748447205E+02  0.10675970098E+03  0.47000000000E+01 0. -1.
        -13    1    4    4    0    0  0.35563010390E+02  0.74399123665E+01 -0.34591864241E+02  0.50166493556E+02  0.00000000000E+00 0.  1.
         14    1    4    4    0    0 -0.40178629572E+02 -0.12896579049E+02 -0.14058820033E+02  0.44478022058E+02  0.00000000000E+00 0. -1.
         -5    1    5    5    0  502  0.15798444856E+02 -0.76673545877E+02  0.41063473690E+02  0.88525264014E+02  0.47000000000E+01 0.  1.
         11    1    6    6    0    0  0.33983527794E+02 -0.32301479366E+02 -0.39693629880E+02  0.61431669224E+02  0.00000000000E+00 0. -1.
        -12    1    6    6    0    0 -0.32596269263E+02  0.12218383528E+02 -0.40373402505E+02  0.53308698124E+02  0.00000000000E+00 0.  1.
<mgrwt>
<rscale>  2 0.20010927E+03</rscale>
<asrwt>0</asrwt>
<pdfrwt beam="1">  1       21 0.26520312E-01 0.20031664E+03</pdfrwt>
<pdfrwt beam="2">  1       21 0.35736588E-01 0.20031664E+03</pdfrwt>
<totfact> 0.10182488E+05</totfact>
</mgrwt>
</event>
<event>
12    1  0.1026879E-001  0.2168874E+03  0.7546771E-02  0.1136783E+00
         21   -1    0    0  503  502  0.00000000000E+00  0.00000000000E+00  0.40561279306E+02  0.40561279306E+02  0.00000000000E+00 0.  1.
         21   -1    0    0  501  503 -0.00000000000E+00 -0.00000000000E+00 -0.11518707353E+04  0.11518707353E+04  0.00000000000E+00 0.  1.
          6    2    1    2  501    0 -0.12353761448E+02 -0.13007627238E+03 -0.51069569150E+03  0.55484253655E+03  0.17311181068E+03 0.  0.
         24    2    3    3    0    0 -0.26268680135E+01 -0.11180041078E+03 -0.19760969193E+03  0.24103757691E+03  0.80890610400E+02 0.  0.
         -6    2    1    2    0  502  0.12353761448E+02  0.13007627238E+03 -0.60061376445E+03  0.63758947800E+03  0.16944319508E+03 0.  0.
        -24    2    5    5    0    0  0.29284735235E+02  0.41321894764E+02 -0.46424147781E+03  0.47393286194E+03  0.80790551441E+02 0.  0.
          5    1    3    3  501    0 -0.97268934341E+01 -0.18275861594E+02 -0.31308599956E+03  0.31380495964E+03  0.47000000000E+01 0. -1.
        -13    1    4    4    0    0  0.12295681518E+02 -0.98098147743E+00 -0.71233195810E+02  0.72293252063E+02  0.00000000000E+00 0.  1.
         14    1    4    4    0    0 -0.14922549531E+02 -0.11081942931E+03 -0.12637649612E+03  0.16874432485E+03  0.00000000000E+00 0. -1.
         -5    1    5    5    0  502 -0.16930973787E+02  0.88754377612E+02 -0.13637228664E+03  0.16365661606E+03  0.47000000000E+01 0.  1.
         11    1    6    6    0    0  0.31987322000E+00  0.56841866502E+02 -0.36481318651E+03  0.36921506085E+03  0.00000000000E+00 0. -1.
        -12    1    6    6    0    0  0.28964862015E+02 -0.15519971738E+02 -0.99428291296E+02  0.10471780109E+03  0.00000000000E+00 0.  1.
<mgrwt>
<rscale>  2 0.21615452E+03</rscale>
<asrwt>0</asrwt>
<pdfrwt beam="1">  1       21 0.62401967E-02 0.21688742E+03</pdfrwt>
<pdfrwt beam="2">  1       21 0.17721089E+00 0.21688742E+03</pdfrwt>
<totfact> 0.34513074E+04</totfact>
</mgrwt>
</event>
<event>
12    1  0.1026879E-001  0.1760834E+03  0.7546771E-02  0.1171767E+00
         21   -1    0    0  503  502  0.00000000000E+00  0.00000000000E+00  0.19113675854E+03  0.19113675854E+03  0.00000000000E+00 0.  1.
         21   -1    0    0  501  503 -0.00000000000E+00 -0.00000000000E+00 -0.17510098097E+03  0.17510098097E+03  0.00000000000E+00 0.  1.
          6    2    1    2  501    0  0.25891750908E+02 -0.16898198988E+02 -0.42507814559E+02  0.18067719395E+03  0.17286237942E+03 0.  0.
         24    2    3    3    0    0 -0.10498607854E+02 -0.54696524452E+02 -0.68867249254E+02  0.12177149459E+03  0.83568345214E+02 0.  0.
         -6    2    1    2    0  502 -0.25891750908E+02  0.16898198988E+02  0.58543592125E+02  0.18556054557E+03  0.17334771991E+03 0.  0.
        -24    2    5    5    0    0  0.42017033962E+02  0.38007146714E+02  0.98328698035E+01  0.99235490077E+02  0.80876590049E+02 0.  0.
          5    1    3    3  501    0  0.36390358761E+02  0.37798325464E+02  0.26359434695E+02  0.58905699352E+02  0.47000000000E+01 0. -1.
        -13    1    4    4    0    0  0.15139178940E+02 -0.68761674544E+02 -0.41548609279E+02  0.81753590490E+02  0.00000000000E+00 0.  1.
         14    1    4    4    0    0 -0.25637786793E+02  0.14065150092E+02 -0.27318639975E+02  0.40017904104E+02  0.00000000000E+00 0. -1.
         -5    1    5    5    0  502 -0.67908784870E+02 -0.21108947726E+02  0.48710722322E+02  0.86325055492E+02  0.47000000000E+01 0.  1.
         13    1    6    6    0    0  0.45807436442E+02  0.32679061334E+02 -0.26586271133E+02  0.62234010764E+02  0.00000000000E+00 0. -1.
        -14    1    6    6    0    0 -0.37904024796E+01  0.53280853798E+01  0.36419140937E+02  0.37001479313E+02  0.00000000000E+00 0.  1.
<mgrwt>
<rscale>  2 0.17596383E+03</rscale>
<asrwt>0</asrwt>
<pdfrwt beam="1">  1       21 0.29405655E-01 0.17608340E+03</pdfrwt>
<pdfrwt beam="2">  1       21 0.26938613E-01 0.17608340E+03</pdfrwt>
<totfact> 0.14622498E+05</totfact>
</mgrwt>
</event>
<event>
12    1  0.1026879E-001  0.2514471E+03  0.7546771E-02  0.1112454E+00
         21   -1    0    0  501  502  0.00000000000E+00  0.00000000000E+00  0.10531915191E+03  0.10531915191E+03  0.00000000000E+00 0.  1.
         21   -1    0    0  502  503 -0.00000000000E+00 -0.00000000000E+00 -0.60670871626E+03  0.60670871626E+03  0.00000000000E+00 0. -1.
         -6    2    1    2    0  503  0.42176959921E+02  0.17831081814E+03 -0.21146396659E+03  0.32825387963E+03  0.17163902968E+03 0.  0.
        -24    2    3    3    0    0  0.51682658354E+02  0.19018975765E+03 -0.13933339693E+03  0.25438658926E+03  0.80346127528E+02 0.  0.
          6    2    1    2  501    0 -0.42176959921E+02 -0.17831081814E+03 -0.28992559777E+03  0.38377398855E+03  0.17219749775E+03 0.  0.
         24    2    5    5    0    0  0.22580981728E+02 -0.96617282897E+02 -0.23500936151E+03  0.26585321976E+03  0.74858094866E+02 0.  0.
          5    1    5    5  501    0 -0.64757941649E+02 -0.81693535244E+02 -0.54916236252E+02  0.11792076879E+03  0.47000000000E+01 0. -1.
        -11    1    6    6    0    0  0.47917644012E+02 -0.40576553113E+02 -0.11898029124E+03  0.13453202955E+03  0.00000000000E+00 0.  1.
         12    1    6    6    0    0 -0.25336662284E+02 -0.56040729784E+02 -0.11602907027E+03  0.13132119021E+03  0.00000000000E+00 0. -1.
         -5    1    3    3    0  503 -0.95056984331E+01 -0.11878939504E+02 -0.72130569658E+02  0.73867290363E+02  0.47000000000E+01 0.  1.
         13    1    4    4    0    0  0.56456085039E+01  0.26393178459E+01 -0.33689641501E+02  0.34261214785E+02  0.00000000000E+00 0. -1.
        -14    1    4    4    0    0  0.46037049850E+02  0.18755043980E+03 -0.10564375543E+03  0.22012537448E+03  0.00000000000E+00 0.  1.
<mgrwt>
<rscale>  2 0.25135147E+03</rscale>
<asrwt>0</asrwt>
<pdfrwt beam="1">  1       21 0.16202947E-01 0.25144706E+03</pdfrwt>
<pdfrwt beam="2">  1       21 0.93339801E-01 0.25144706E+03</pdfrwt>
<totfact> 0.31921597E+04</totfact>
</mgrwt>
</event>
<event>
12    1  0.1026879E-001  0.2317907E+03  0.7546771E-02  0.1125777E+00
         21   -1    0    0  503  502  0.00000000000E+00  0.00000000000E+00  0.24731116043E+04  0.24731116043E+04  0.00000000000E+00 0. -1.
         21   -1    0    0  501  503 -0.00000000000E+00 -0.00000000000E+00 -0.23834639335E+02  0.23834639335E+02  0.00000000000E+00 0.  1.
          6    2    1    2  501    0 -0.11561014654E+03  0.10149569918E+03  0.84057044052E+03  0.87194356405E+03  0.17337771043E+03 0.  0.
         24    2    3    3    0    0 -0.63868165527E+02 -0.98161639485E+01  0.48528299824E+03  0.49601960882E+03  0.79751892212E+02 0.  0.
         -6    2    1    2    0  502  0.11561014654E+03 -0.10149569918E+03  0.16087065244E+04  0.16250026795E+04  0.17038175941E+03 0.  0.
        -24    2    5    5    0    0  0.11705253529E+03 -0.10615336756E+03  0.16085834126E+04  0.16182292375E+04  0.78456590496E+02 0.  0.
          5    1    3    3  501    0 -0.51741981014E+02  0.11131186312E+03  0.35528744229E+03  0.37592395523E+03  0.47000000000E+01 0. -1.
        -11    1    4    4    0    0 -0.23912876824E+02  0.13294025544E+01  0.27942645895E+02  0.36801962567E+02  0.00000000000E+00 0.  1.
         12    1    4    4    0    0 -0.39955288703E+02 -0.11145566503E+02  0.45734035234E+03  0.45921764625E+03  0.00000000000E+00 0. -1.
         -5    1    5    5    0  502 -0.14423887488E+01  0.46576683808E+01  0.12311183637E+00  0.67734420034E+01  0.47000000000E+01 0.  1.
         13    1    6    6    0    0  0.10486640246E+03 -0.10649771796E+03  0.11741091076E+04  0.11835839315E+04  0.00000000000E+00 0. -1.
        -14    1    6    6    0    0  0.12186132826E+02  0.34435040711E+00  0.43447430493E+03  0.43464530603E+03  0.00000000000E+00 0.  1.
<mgrwt>
<rscale>  2 0.23123056E+03</rscale>
<asrwt>0</asrwt>
<pdfrwt beam="1">  1       21 0.38047850E+00 0.23179067E+03</pdfrwt>
<pdfrwt beam="2">  1       21 0.36668696E-02 0.23179067E+03</pdfrwt>
<totfact> 0.49618061E+03</totfact>
</mgrwt>
</event>
<event>
12    1  0.1026879E-001  0.1771859E+03  0.7546771E-02  0.1170579E+00
         21   -1    0    0  503  502  0.00000000000E+00  0.00000000000E+00  0.20623455016E+04  0.20623455016E+04  0.00000000000E+00 0.  1.
         21   -1    0    0  501  503 -0.00000000000E+00 -0.00000000000E+00 -0.17308121663E+02  0.17308121663E+02  0.00000000000E+00 0.  1.
          6    2    1    2  501    0  0.32559656620E+02  0.18598852579E+02  0.13844145856E+04  0.13957071965E+04  0.17317270247E+03 0.  0.
         24    2    3    3    0    0  0.40973695474E+02 -0.42645688726E+02  0.11052873827E+04  0.11097775280E+04  0.80302334251E+02 0.  0.
         -6    2    1    2    0  502 -0.32559656620E+02 -0.18598852579E+02  0.66062279433E+03  0.68394642679E+03  0.17307278751E+03 0.  0.
        -24    2    5    5    0    0  0.21493729591E+02 -0.25250283840E+02  0.17604029725E+03  0.19629050652E+03  0.80250977866E+02 0.  0.
          5    1    3    3  501    0 -0.84140388543E+01  0.61244541305E+02  0.27912720292E+03  0.28592966845E+03  0.47000000000E+01 0. -1.
        -11    1    4    4    0    0  0.58705388352E+02 -0.96657379288E+01  0.54433410998E+03  0.54757590561E+03  0.00000000000E+00 0.  1.
         12    1    4    4    0    0 -0.17731692878E+02 -0.32979950797E+02  0.56095327273E+03  0.56220162244E+03  0.00000000000E+00 0. -1.
         -5    1    5    5    0  502 -0.54053386211E+02  0.66514312614E+01  0.48458249709E+03  0.48765592028E+03  0.47000000000E+01 0.  1.
         11    1    6    6    0    0  0.18506994595E+02 -0.48770472483E+02  0.68131198373E+02  0.85807505656E+02  0.00000000000E+00 0. -1.
        -12    1    6    6    0    0  0.29867349959E+01  0.23520188643E+02  0.10790909887E+03  0.11048300086E+03  0.00000000000E+00 0.  1.
<mgrwt>
<rscale>  2 0.17716145E+03</rscale>
<asrwt>0</asrwt>
<pdfrwt beam="1">  1       21 0.31728373E+00 0.17718587E+03</pdfrwt>
<pdfrwt beam="2">  1       21 0.26627896E-02 0.17718587E+03</pdfrwt>
<totfact> 0.21255923E+04</totfact>
</mgrwt>
</event>
<event>
12    1  0.1026879E-001  0.1750192E+03  0.7546771E-02  0.1172776E+00
         21   -1    0    0  501  502  0.00000000000E+00  0.00000000000E+00  0.17578980324E+03  0.17578980324E+03  0.00000000000E+00 0. -1.
         21   -1    0    0  502  503 -0.00000000000E+00 -0.00000000000E+00 -0.19229690349E+03  0.19229690349E+03  0.00000000000E+00 0. -1.
         -6    2    1    2    0  503  0.13558198115E+02 -0.21459253641E+02 -0.65026388536E+02  0.18670870319E+03  0.17316865865E+03 0.  0.
        -24    2    3    3    0    0  0.54856932462E+02  0.34352560229E+02 -0.31071412433E+02  0.10927760848E+03  0.82381925268E+02 0.  0.
          6    2    1    2  501    0 -0.13558198115E+02  0.21459253641E+02  0.48519288288E+02  0.18137800355E+03  0.17291481872E+03 0.  0.
         24    2    5    5    0    0 -0.32376926320E+02  0.26506844645E+02  0.93770648095E+02  0.13188660762E+03  0.82766325609E+02 0.  0.
          5    1    5    5  501    0  0.18818728205E+02 -0.50475910041E+01 -0.45251359807E+02  0.49491395925E+02  0.47000000000E+01 0. -1.
        -11    1    6    6    0    0 -0.14761715168E+02  0.10009632109E+02 -0.13224510112E+02  0.22203347435E+02  0.00000000000E+00 0.  1.
         12    1    6    6    0    0 -0.17615211152E+02  0.16497212536E+02  0.10699515821E+03  0.10968326019E+03  0.00000000000E+00 0. -1.
         -5    1    3    3    0  503 -0.41298734346E+02 -0.55811813869E+02 -0.33954976102E+02  0.77431094711E+02  0.47000000000E+01 0.  1.
         13    1    4    4    0    0  0.97663262939E+01  0.54498578180E+02 -0.15531953600E+02  0.57504067121E+02  0.00000000000E+00 0. -1.
        -14    1    4    4    0    0  0.45090606168E+02 -0.20146017951E+02 -0.15539458834E+02  0.51773541357E+02  0.00000000000E+00 0.  1.
<mgrwt>
<rscale>  2 0.17495634E+03</rscale>
<asrwt>0</asrwt>
<pdfrwt beam="1">  1       21 0.27044585E-01 0.17501917E+03</pdfrwt>
<pdfrwt beam="2">  1       21 0.29584139E-01 0.17501917E+03</pdfrwt>
<totfact> 0.14348417E+05</totfact>
</mgrwt>
</event>
<event>
12    1  0.1026879E-001  0.1752383E+03  0.7546771E-02  0.1172598E+00
         21   -1    0    0  503  502  0.00000000000E+00  0.00000000000E+00  0.28353194820E+02  0.28353194820E+02  0.00000000000E+00 0. -1.
         21   -1    0    0  501  503 -0.00000000000E+00 -0.00000000000E+00 -0.10815158812E+04  0.10815158812E+04  0.00000000000E+00 0. -1.
          6    2    1    2  501    0 -0.23141177563E+02  0.14506457430E+02 -0.50999760107E+03  0.53926433384E+03  0.17309684355E+03 0.  0.
         24    2    3    3    0    0 -0.68710894974E+02 -0.24017834049E+01 -0.44666396602E+03  0.45929104404E+03  0.81930512875E+02 0.  0.
         -6    2    1    2    0  502  0.23141177563E+02 -0.14506457430E+02 -0.54316508529E+03  0.57060474216E+03  0.17267168411E+03 0.  0.
        -24    2    5    5    0    0 -0.48647809312E+02 -0.23529725487E+02 -0.34611590221E+03  0.36063915318E+03  0.85697862941E+02 0.  0.
          5    1    3    3  501    0  0.45569717412E+02  0.16908240835E+02 -0.63333635053E+02  0.79973289804E+02  0.47000000000E+01 0. -1.
        -11    1    4    4    0    0 -0.59310032861E+02 -0.33972083647E+02 -0.22376573967E+03  0.23397198276E+03  0.00000000000E+00 0.  1.
         12    1    4    4    0    0 -0.94008621128E+01  0.31570300242E+02 -0.22289822635E+03  0.22531906128E+03  0.00000000000E+00 0. -1.
         -5    1    5    5    0  502  0.71788986874E+02  0.90232680566E+01 -0.19704918308E+03  0.20996558898E+03  0.47000000000E+01 0.  1.
         11    1    6    6    0    0 -0.39902706108E+02 -0.53793218561E+02 -0.27163315609E+03  0.27976866837E+03  0.00000000000E+00 0. -1.
        -12    1    6    6    0    0 -0.87451032032E+01  0.30263493074E+02 -0.74482746124E+02  0.80870484809E+02  0.00000000000E+00 0.  1.
<mgrwt>
<rscale>  2 0.17513324E+03</rscale>
<asrwt>0</asrwt>
<pdfrwt beam="1">  1       21 0.43620305E-02 0.17523832E+03</pdfrwt>
<pdfrwt beam="2">  1       21 0.16638704E+00 0.17523832E+03</pdfrwt>
<totfact> 0.77398898E+04</totfact>
</mgrwt>
</event>
<event>
12    1  0.1026879E-001  0.1948655E+03  0.7546771E-02  0.1154801E+00
         21   -1    0    0  503  502  0.00000000000E+00  0.00000000000E+00  0.19948072124E+03  0.19948072124E+03  0.00000000000E+00 0.  1.
         21   -1    0    0  501  503 -0.00000000000E+00 -0.00000000000E+00 -0.19305137318E+03  0.19305137318E+03  0.00000000000E+00 0.  1.
          6    2    1    2  501    0  0.53556304239E+02 -0.65562236217E+02  0.36662808494E+02  0.19828448237E+03  0.17551606730E+03 0.  0.
         24    2    3    3    0    0  0.38426304330E+02 -0.35100728325E+02 -0.47832324946E+02  0.10707955961E+03  0.80432945884E+02 0.  0.
         -6    2    1    2    0  502 -0.53556304239E+02  0.65562236217E+02 -0.30233460437E+02  0.19424761205E+03  0.17219578426E+03 0.  0.
        -24    2    5    5    0    0  0.13164366776E+02  0.63287719143E+02 -0.63141286961E+02  0.11966989142E+03  0.78456515639E+02 0.  0.
          5    1    3    3  501    0  0.15129999909E+02 -0.30461507892E+02  0.84495133439E+02  0.91204922758E+02  0.47000000000E+01 0. -1.
        -13    1    4    4    0    0  0.77830397234E+01 -0.87518013781E+01  0.22840081913E+02  0.25667860770E+02  0.00000000000E+00 0.  1.
         14    1    4    4    0    0  0.30643264607E+02 -0.26348926947E+02 -0.70672406859E+02  0.81411698842E+02  0.00000000000E+00 0. -1.
         -5    1    5    5    0  502 -0.66720671015E+02  0.22745170739E+01  0.32907826524E+02  0.74577720635E+02  0.47000000000E+01 0.  1.
         13    1    6    6    0    0 -0.92072201021E+01 -0.14526807860E+00  0.14354962989E+02  0.17054587865E+02  0.00000000000E+00 0. -1.
        -14    1    6    6    0    0  0.22371586878E+02  0.63432987222E+02 -0.77496249950E+02  0.10261530355E+03  0.00000000000E+00 0.  1.
<mgrwt>
<rscale>  2 0.19411491E+03</rscale>
<asrwt>0</asrwt>
<pdfrwt beam="1">  1       21 0.30689342E-01 0.19486553E+03</pdfrwt>
<pdfrwt beam="2">  1       21 0.29700211E-01 0.19486553E+03</pdfrwt>
<totfact> 0.11068658E+05</totfact>
</mgrwt>
</event>
<event>
12    1  0.1026879E-001  0.1974443E+03  0.7546771E-02  0.1153582E+00
         21   -1    0    0  501  502  0.00000000000E+00  0.00000000000E+00  0.16900949278E+03  0.16900949278E+03  0.00000000000E+00 0. -1.
         21   -1    0    0  502  503 -0.00000000000E+00 -0.00000000000E+00 -0.56372620976E+03  0.56372620976E+03  0.00000000000E+00 0. -1.
         -6    2    1    2    0  503 -0.30163034894E+02  0.83992646579E+02 -0.48111929174E+03  0.51721390919E+03  0.16754068647E+03 0.  0.
        -24    2    3    3    0    0 -0.36943484648E+01  0.89604212610E+02 -0.19798864984E+03  0.23275454229E+03  0.83262286558E+02 0.  0.
          6    2    1    2  501    0  0.30163034894E+02 -0.83992646579E+02  0.86402574763E+02  0.21552179334E+03  0.17612400497E+03 0.  0.
         24    2    5    5    0    0 -0.48907264638E+02 -0.64552828587E+02  0.63055372506E+02  0.13068547656E+03  0.80893297429E+02 0.  0.
          5    1    5    5  501    0  0.79070299532E+02 -0.19439817992E+02  0.23347202257E+02  0.84836316780E+02  0.47000000000E+01 0. -1.
        -13    1    6    6    0    0  0.15816770140E+01 -0.34785834956E+02 -0.10745749477E+02  0.36442106794E+02  0.00000000000E+00 0.  1.
         14    1    6    6    0    0 -0.50488941652E+02 -0.29766993630E+02  0.73801121983E+02  0.94243369766E+02  0.00000000000E+00 0. -1.
         -5    1    3    3    0  503 -0.26468686429E+02 -0.56115660316E+01 -0.28313064191E+03  0.28445936691E+03  0.47000000000E+01 0.  1.
         13    1    4    4    0    0 -0.41462946266E+02  0.65167949086E+02 -0.11952656020E+03  0.14231175670E+03  0.00000000000E+00 0. -1.
        -14    1    4    4    0    0  0.37768597802E+02  0.24436263525E+02 -0.78462089638E+02  0.90442785590E+02  0.00000000000E+00 0.  1.
<mgrwt>
<rscale>  2 0.19551187E+03</rscale>
<asrwt>0</asrwt>
<pdfrwt beam="1">  1       21 0.26001460E-01 0.19744427E+03</pdfrwt>
<pdfrwt beam="2">  1       21 0.86727110E-01 0.19744427E+03</pdfrwt>
<totfact> 0.16028080E+04</totfact>
</mgrwt>
</event>
<event>
12    1  0.1026879E-001  0.2906376E+03  0.7546771E-02  0.1091010E+00
         21   -1    0    0  501  502  0.00000000000E+00  0.00000000000E+00  0.59216668268E+03  0.59216668268E+03  0.00000000000E+00 0.  1.
         21   -1    0    0  502  503 -0.00000000000E+00 -0.00000000000E+00 -0.57034263712E+03  0.57034263712E+03  0.00000000000E+00 0. -1.
         -6    2    1    2    0  503  0.19369980538E+03  0.11260126868E+03 -0.49454275927E+03  0.57362246226E+03  0.18512570905E+03 0.  0.
        -24    2    3    3    0    0  0.20776548200E+03  0.12386843181E+03 -0.49290358080E+03  0.55492569436E+03  0.80490386934E+02 0.  0.
          6    2    1    2  501    0 -0.19369980538E+03 -0.11260126868E+03  0.51636680483E+03  0.58888685754E+03  0.17307337616E+03 0.  0.
         24    2    5    5    0    0 -0.74674254349E+02  0.11316418518E+02  0.21904164334E+03  0.24545270569E+03  0.81015329553E+02 0.  0.
          5    1    5    5  501    0 -0.11902555103E+03 -0.12391768720E+03  0.29732516149E+03  0.34343415184E+03  0.47000000000E+01 0.  1.
        -13    1    6    6    0    0 -0.52343985373E+02 -0.24684689961E+02  0.17509638696E+03  0.18441250351E+03  0.00000000000E+00 0.  1.
         14    1    6    6    0    0 -0.22330268976E+02  0.36001108479E+02  0.43945256383E+02  0.61040202186E+02  0.00000000000E+00 0. -1.
         -5    1    3    3    0  503 -0.14065676622E+02 -0.11267163128E+02 -0.16391784711E+01  0.18696767898E+02  0.47000000000E+01 0.  1.
         13    1    4    4    0    0  0.97084641844E+02  0.10317080556E+03 -0.25463131513E+03  0.29138762748E+03  0.00000000000E+00 0. -1.
        -14    1    4    4    0    0  0.11068084015E+03  0.20697626247E+02 -0.23827226567E+03  0.26353806688E+03  0.00000000000E+00 0.  1.
<mgrwt>
<rscale>  2 0.28873791E+03</rscale>
<asrwt>0</asrwt>
<pdfrwt beam="1">  1       21 0.91102566E-01 0.29063756E+03</pdfrwt>
<pdfrwt beam="2">  1       21 0.87745021E-01 0.29063756E+03</pdfrwt>
<totfact> 0.10502163E+03</totfact>
</mgrwt>
</event>
<event>
12    1  0.1026879E-001  0.1899016E+03  0.7546771E-02  0.1158617E+00
         21   -1    0    0  501  502  0.00000000000E+00  0.00000000000E+00  0.11724871111E+03  0.11724871111E+03  0.00000000000E+00 0.  1.
         21   -1    0    0  502  503 -0.00000000000E+00 -0.00000000000E+00 -0.47730651923E+03  0.47730651923E+03  0.00000000000E+00 0.  1.
         -6    2    1    2    0  503 -0.69240617377E+02  0.33046172858E+02 -0.35764583357E+03  0.40493599523E+03  0.17371328482E+03 0.  0.
        -24    2    3    3    0    0 -0.77010167244E+02 -0.42170787162E+02 -0.19890264554E+03  0.22903987041E+03  0.72028179796E+02 0.  0.
          6    2    1    2  501    0  0.69240617377E+02 -0.33046172858E+02 -0.24119745387E+01  0.18961923511E+03  0.17338778523E+03 0.  0.
         24    2    5    5    0    0 -0.27737804495E+02  0.30985938723E+01  0.10213589210E+02  0.85250881045E+02  0.79902492027E+02 0.  0.
          5    1    5    5  501    0  0.96978421871E+02 -0.36144766730E+02 -0.12625563749E+02  0.10436835407E+03  0.47000000000E+01 0. -1.
        -11    1    6    6    0    0 -0.23032658125E+02 -0.37175318801E+02  0.13911247466E+01  0.43754347170E+02  0.00000000000E+00 0.  1.
         12    1    6    6    0    0 -0.47051463700E+01  0.40273912673E+02  0.88224644634E+01  0.41496533874E+02  0.00000000000E+00 0. -1.
         -5    1    3    3    0  503  0.77695498676E+01  0.75216960020E+02 -0.15874318803E+03  0.17589612482E+03  0.47000000000E+01 0.  1.
         13    1    4    4    0    0 -0.17677582844E+02 -0.47000848331E+02 -0.12092595508E+03  0.13093763130E+03  0.00000000000E+00 0. -1.
        -14    1    4    4    0    0 -0.59332584400E+02  0.48300611694E+01 -0.77976690465E+02  0.98102239109E+02  0.00000000000E+00 0.  1.
<mgrwt>
<rscale>  2 0.18982713E+03</rscale>
<asrwt>0</asrwt>
<pdfrwt beam="1">  1       21 0.18038263E-01 0.18990160E+03</pdfrwt>
<pdfrwt beam="2">  1       21 0.73431774E-01 0.18990160E+03</pdfrwt>
<totfact> 0.46670515E+04</totfact>
</mgrwt>
</event>
<event>
12    1  0.1026879E-001  0.1851731E+03  0.7546771E-02  0.1163525E+00
         21   -1    0    0  501  502  0.00000000000E+00  0.00000000000E+00  0.40244521788E+03  0.40244521788E+03  0.00000000000E+00 0.  1.
         21   -1    0    0  502  503 -0.00000000000E+00 -0.00000000000E+00 -0.86314442578E+02  0.86314442578E+02  0.00000000000E+00 0.  1.
         -6    2    1    2    0  503  0.32907594925E+02  0.51986917745E+02  0.11884335084E+03  0.22002912042E+03  0.17465257620E+03 0.  0.
        -24    2    3    3    0    0  0.80471713549E+02  0.54914663574E+00  0.59499712989E+02  0.12809464903E+03  0.79950140838E+02 0.  0.
          6    2    1    2  501    0 -0.32907594925E+02 -0.51986917745E+02  0.19728742446E+03  0.26873054004E+03  0.17177958516E+03 0.  0.
         24    2    5    5    0    0 -0.74072867694E+02  0.12251034932E+01  0.13556804569E+03  0.17731133744E+03  0.87019105764E+02 0.  0.
          5    1    5    5  501    0  0.41165272769E+02 -0.53212021238E+02  0.61719378778E+02  0.91419202595E+02  0.47000000000E+01 0. -1.
        -11    1    6    6    0    0  0.12863800381E+01  0.20436383026E+02 -0.61590671149E+00  0.20486089570E+02  0.00000000000E+00 0.  1.
         12    1    6    6    0    0 -0.75359247732E+02 -0.19211279533E+02  0.13618395240E+03  0.15682524787E+03  0.00000000000E+00 0. -1.
         -5    1    3    3    0  503 -0.47564118624E+02  0.51437771109E+02  0.59343637848E+02  0.91934471392E+02  0.47000000000E+01 0.  1.
         13    1    4    4    0    0  0.10523152249E+02  0.25409725289E+02 -0.70551878502E+01  0.28393072186E+02  0.00000000000E+00 0. -1.
        -14    1    4    4    0    0  0.69948561300E+02 -0.24860578654E+02  0.66554900839E+02  0.99701576841E+02  0.00000000000E+00 0.  1.
<mgrwt>
<rscale>  2 0.18449253E+03</rscale>
<asrwt>0</asrwt>
<pdfrwt beam="1">  1       21 0.61914648E-01 0.18517309E+03</pdfrwt>
<pdfrwt beam="2">  1       21 0.13279145E-01 0.18517309E+03</pdfrwt>
<totfact> 0.11879569E+05</totfact>
</mgrwt>
</event>
<event>
12    1  0.1026879E-001  0.2167708E+03  0.7546771E-02  0.1136571E+00
         21   -1    0    0  501  502  0.00000000000E+00  0.00000000000E+00  0.22712915949E+03  0.22712915949E+03  0.00000000000E+00 0. -1.
         21   -1    0    0  502  503 -0.00000000000E+00 -0.00000000000E+00 -0.31813671189E+03  0.31813671189E+03  0.00000000000E+00 0. -1.
         -6    2    1    2    0  503 -0.64588546005E+02  0.11157833588E+03 -0.20774813774E+03  0.30024801984E+03  0.17426468194E+03 0.  0.
        -24    2    3    3    0    0 -0.46029238928E+02  0.12960523461E+03 -0.22011933550E+03  0.27118681733E+03  0.78572007480E+02 0.  0.
          6    2    1    2  501    0  0.64588546005E+02 -0.11157833588E+03  0.11674058534E+03  0.24501785154E+03  0.17258035228E+03 0.  0.
         24    2    5    5    0    0  0.71451022120E+02 -0.10693618905E+02  0.30671776096E+02  0.11214667475E+03  0.80103163235E+02 0.  0.
          5    1    5    5  501    0 -0.68624761140E+01 -0.10088471697E+03  0.86068809247E+02  0.13287117679E+03  0.47000000000E+01 0. -1.
        -13    1    6    6    0    0 -0.50365878959E+01  0.34445354835E-01 -0.19437450404E+02  0.20079414391E+02  0.00000000000E+00 0.  1.
         14    1    6    6    0    0  0.76487610015E+02 -0.10728064260E+02  0.50109226500E+02  0.92067260354E+02  0.00000000000E+00 0. -1.
         -5    1    3    3    0  503 -0.18559307077E+02 -0.18026898736E+02  0.12371197757E+02  0.29061202507E+02  0.47000000000E+01 0.  1.
         13    1    4    4    0    0  0.52569986400E+01  0.22748456211E+02 -0.99021019689E+02  0.10173637813E+03  0.00000000000E+00 0. -1.
        -14    1    4    4    0    0 -0.51286237568E+02  0.10685677840E+03 -0.12109831581E+03  0.16945043920E+03  0.00000000000E+00 0.  1.
<mgrwt>
<rscale>  2 0.21643209E+03</rscale>
<asrwt>0</asrwt>
<pdfrwt beam="1">  1       21 0.34942948E-01 0.21677081E+03</pdfrwt>
<pdfrwt beam="2">  1       21 0.48944109E-01 0.21677081E+03</pdfrwt>
<totfact> 0.31047616E+04</totfact>
</mgrwt>
</event>
<event>
12    1  0.1026879E-001  0.2745057E+03  0.7546771E-02  0.1098748E+00
         21   -1    0    0  501  502  0.00000000000E+00  0.00000000000E+00  0.45137286210E+03  0.45137286210E+03  0.00000000000E+00 0. -1.
         21   -1    0    0  502  503 -0.00000000000E+00 -0.00000000000E+00 -0.22470126049E+03  0.22470126049E+03  0.00000000000E+00 0. -1.
         -6    2    1    2    0  503  0.11399730455E+03 -0.18002247908E+03 -0.58154518303E+02  0.28059819945E+03  0.17306046087E+03 0.  0.
        -24    2    3    3    0    0  0.39722247197E+02 -0.62192312108E+02 -0.86224701969E+02  0.13843365533E+03  0.79268134141E+02 0.  0.
          6    2    1    2  501    0 -0.11399730455E+03  0.18002247908E+03  0.28482611991E+03  0.39547592314E+03  0.17283462843E+03 0.  0.
         24    2    5    5    0    0 -0.19122018514E+02  0.14408246846E+03  0.22753095915E+03  0.27886619066E+03  0.69789724260E+02 0.  0.
          5    1    5    5  501    0 -0.94875286036E+02  0.35940010617E+02  0.57295160763E+02  0.11660973249E+03  0.47000000000E+01 0. -1.
        -13    1    6    6    0    0 -0.33062218351E+01  0.11633697224E+03  0.12200458010E+03  0.16861298817E+03  0.00000000000E+00 0.  1.
         14    1    6    6    0    0 -0.15815796679E+02  0.27745496220E+02  0.10552637905E+03  0.11025320249E+03  0.00000000000E+00 0. -1.
         -5    1    3    3    0  503  0.74275057353E+02 -0.11783016697E+03  0.28070183666E+02  0.14216454412E+03  0.47000000000E+01 0.  1.
         13    1    4    4    0    0  0.54404099818E+02 -0.68841483134E+02 -0.55742613135E+02  0.10395284891E+03  0.00000000000E+00 0. -1.
        -14    1    4    4    0    0 -0.14681852621E+02  0.66491710259E+01 -0.30482088833E+02  0.34480806420E+02  0.00000000000E+00 0.  1.
<mgrwt>
<rscale>  2 0.27447015E+03</rscale>
<asrwt>0</asrwt>
<pdfrwt beam="1">  1       21 0.69441979E-01 0.27450574E+03</pdfrwt>
<pdfrwt beam="2">  1       21 0.34569425E-01 0.27450574E+03</pdfrwt>
<totfact> 0.14534708E+04</totfact>
</mgrwt>
</event>
<event>
12    1  0.1026879E-001  0.2158020E+03  0.7546771E-02  0.1137060E+00
         21   -1    0    0  501  502  0.00000000000E+00  0.00000000000E+00  0.73534929517E+02  0.73534929517E+02  0.00000000000E+00 0. -1.
         21   -1    0    0  502  503 -0.00000000000E+00 -0.00000000000E+00 -0.85030873411E+03  0.85030873411E+03  0.00000000000E+00 0. -1.
         -6    2    1    2    0  503  0.12340825051E+03  0.37102786257E+02 -0.62183146957E+03  0.65821340230E+03  0.17310197396E+03 0.  0.
        -24    2    3    3    0    0  0.15608562965E+03  0.36951777209E+02 -0.47758095409E+03  0.51023321740E+03  0.80784966444E+02 0.  0.
          6    2    1    2  501    0 -0.12340825051E+03 -0.37102786257E+02 -0.15494233503E+03  0.26563026132E+03  0.17304940192E+03 0.  0.
         24    2    5    5    0    0 -0.10469211651E+03 -0.12892799260E+01 -0.17675800166E+03  0.21946843490E+03  0.77206873200E+02 0.  0.
          5    1    5    5  501    0 -0.18716134006E+02 -0.35813506331E+02  0.21815666627E+02  0.46161826418E+02  0.47000000000E+01 0. -1.
        -11    1    6    6    0    0 -0.94118457399E+02  0.25054348533E+02 -0.10997591190E+03  0.14690372903E+03  0.00000000000E+00 0.  1.
         12    1    6    6    0    0 -0.10573659106E+02 -0.26343628459E+02 -0.66782089752E+02  0.72564705876E+02  0.00000000000E+00 0. -1.
         -5    1    3    3    0  503 -0.32677379134E+02  0.15100904760E+00 -0.14425051547E+03  0.14798018491E+03  0.47000000000E+01 0.  1.
         13    1    4    4    0    0  0.78613131643E+02  0.44592385308E+02 -0.34349913573E+03  0.35519031735E+03  0.00000000000E+00 0. -1.
        -14    1    4    4    0    0  0.77472498002E+02 -0.76406080989E+01 -0.13408181836E+03  0.15504290004E+03  0.00000000000E+00 0.  1.
<mgrwt>
<rscale>  2 0.21579146E+03</rscale>
<asrwt>0</asrwt>
<pdfrwt beam="1">  1       21 0.11313066E-01 0.21580201E+03</pdfrwt>
<pdfrwt beam="2">  1       21 0.13081673E+00 0.21580201E+03</pdfrwt>
<totfact> 0.27355985E+04</totfact>
</mgrwt>
</event>
<event>
12    1  0.1026879E-001  0.2070076E+03  0.7546771E-02  0.1143991E+00
         21   -1    0    0  503  502  0.00000000000E+00  0.00000000000E+00  0.51737181510E+03  0.51737181510E+03  0.00000000000E+00 0. -1.
         21   -1    0    0  501  503 -0.00000000000E+00 -0.00000000000E+00 -0.88343597177E+02  0.88343597177E+02  0.00000000000E+00 0. -1.
          6    2    1    2  501    0 -0.11294518499E+03  0.14517478311E+02  0.13830527115E+03  0.24882330958E+03  0.17267692195E+03 0.  0.
         24    2    3    3    0    0 -0.11325512203E+03  0.13872076169E+02  0.34357321380E+02  0.14476669583E+03  0.82205921476E+02 0.  0.
         -6    2    1    2    0  502  0.11294518499E+03 -0.14517478311E+02  0.29072294677E+03  0.35689210270E+03  0.17287211804E+03 0.  0.
        -24    2    5    5    0    0  0.45465738787E+02  0.48254212480E+02  0.20974424924E+03  0.23411832586E+03  0.80144481956E+02 0.  0.
          5    1    3    3  501    0  0.30993703698E+00  0.64540214183E+00  0.10394794977E+03  0.10405661376E+03  0.47000000000E+01 0. -1.
        -13    1    4    4    0    0 -0.13127547115E+02 -0.26755647073E+02  0.19689837152E+02  0.35719558097E+02  0.00000000000E+00 0.  1.
         14    1    4    4    0    0 -0.10012757491E+03  0.40627723242E+02  0.14667484228E+02  0.10904713773E+03  0.00000000000E+00 0. -1.
         -5    1    5    5    0  502  0.67479446202E+02 -0.62771690791E+02  0.80978697529E+02  0.12277377683E+03  0.47000000000E+01 0.  1.
         13    1    6    6    0    0  0.32464318747E+02 -0.12521738485E+02  0.12008242593E+03  0.12502205783E+03  0.00000000000E+00 0. -1.
        -14    1    6    6    0    0  0.13001420039E+02  0.60775950965E+02  0.89661823311E+02  0.10909626803E+03  0.00000000000E+00 0.  1.
<mgrwt>
<rscale>  2 0.20696683E+03</rscale>
<asrwt>0</asrwt>
<pdfrwt beam="1">  1       21 0.79595662E-01 0.20700759E+03</pdfrwt>
<pdfrwt beam="2">  1       21 0.13591323E-01 0.20700759E+03</pdfrwt>
<totfact> 0.64827536E+04</totfact>
</mgrwt>
</event>
<event>
12    1  0.1026879E-001  0.4063832E+03  0.7546771E-02  0.1041646E+00
         21   -1    0    0  501  502  0.00000000000E+00  0.00000000000E+00  0.19121169057E+04  0.19121169057E+04  0.00000000000E+00 0. -1.
         21   -1    0    0  502  503 -0.00000000000E+00 -0.00000000000E+00 -0.86966065044E+02  0.86966065044E+02  0.00000000000E+00 0.  1.
         -6    2    1    2    0  503  0.39855861167E+02 -0.36538165206E+03  0.10050673585E+04  0.10841160945E+04  0.17336398098E+03 0.  0.
        -24    2    3    3    0    0  0.61592881250E+02 -0.14371181585E+03  0.58492683773E+03  0.60856361420E+03  0.61347355265E+02 0.  0.
          6    2    1    2  501    0 -0.39855861167E+02  0.36538165206E+03  0.82008348213E+03  0.91496687622E+03  0.17185815542E+03 0.  0.
         24    2    5    5    0    0 -0.88193125191E+02  0.22903693442E+03  0.46589245180E+03  0.53234467471E+03  0.78096935844E+02 0.  0.
          5    1    5    5  501    0  0.48337264024E+02  0.13634471764E+03  0.35419103033E+03  0.38262220151E+03  0.47000000000E+01 0. -1.
        -11    1    6    6    0    0 -0.39936411243E+02  0.46360076646E+02  0.65641849801E+02  0.89738654408E+02  0.00000000000E+00 0.  1.
         12    1    6    6    0    0 -0.48256713948E+02  0.18267685777E+03  0.40025060200E+03  0.44260602030E+03  0.00000000000E+00 0. -1.
         -5    1    3    3    0  503 -0.21737020083E+02 -0.22166983621E+03  0.42014052081E+03  0.47555248033E+03  0.47000000000E+01 0.  1.
         13    1    4    4    0    0  0.12831071058E+02 -0.10403670895E+03  0.38212978861E+03  0.39624670161E+03  0.00000000000E+00 0. -1.
        -14    1    4    4    0    0  0.48761810192E+02 -0.39675106899E+02  0.20279704912E+03  0.21231691259E+03  0.00000000000E+00 0.  1.
<mgrwt>
<rscale>  2 0.40622309E+03</rscale>
<asrwt>0</asrwt>
<pdfrwt beam="1">  1       21 0.29417180E+00 0.40638321E+03</pdfrwt>
<pdfrwt beam="2">  1       21 0.13379396E-01 0.40638321E+03</pdfrwt>
<totfact> 0.14845304E+03</totfact>
</mgrwt>
</event>
<event>
12    1  0.1026879E-001  0.2082226E+03  0.7546771E-02  0.1143231E+00
         21   -1    0    0  501  502  0.00000000000E+00  0.00000000000E+00  0.39377531566E+03  0.39377531566E+03  0.00000000000E+00 0.  1.
         21   -1    0    0  502  503 -0.00000000000E+00 -0.00000000000E+00 -0.10955406395E+03  0.10955406395E+03  0.00000000000E+00 0.  1.
         -6    2    1    2    0  503  0.10662869482E+03 -0.40527279034E+02  0.15030923548E+03  0.25680637237E+03  0.17419675002E+03 0.  0.
        -24    2    3    3    0    0  0.39830912155E+01 -0.29857490202E+02  0.14904051578E+02  0.86493078237E+02  0.79696844936E+02 0.  0.
          6    2    1    2  501    0 -0.10662869482E+03  0.40527279034E+02  0.13391201624E+03  0.24652300723E+03  0.17271081639E+03 0.  0.
         24    2    5    5    0    0 -0.50250047632E+02  0.41978265385E+01 -0.35042282435E+01  0.93540344084E+02  0.78707225343E+02 0.  0.
          5    1    5    5  501    0 -0.56378647186E+02  0.36329452495E+02  0.13741624448E+03  0.15298266315E+03  0.47000000000E+01 0. -1.
        -13    1    6    6    0    0 -0.58066070867E+02  0.48176509240E+01  0.25422183404E+02  0.63570164034E+02  0.00000000000E+00 0.  1.
         14    1    6    6    0    0  0.78160232347E+01 -0.61982438551E+00 -0.28926411647E+02  0.29970180050E+02  0.00000000000E+00 0. -1.
         -5    1    3    3    0  503  0.10264560360E+03 -0.10669788832E+02  0.13540518390E+03  0.17031329414E+03  0.47000000000E+01 0.  1.
         13    1    4    4    0    0  0.30978175844E+02 -0.42474360744E+02 -0.12741624267E+01  0.52586520984E+02  0.00000000000E+00 0. -1.
        -14    1    4    4    0    0 -0.26995084629E+02  0.12616870542E+02  0.16178214005E+02  0.33906557253E+02  0.00000000000E+00 0.  1.
<mgrwt>
<rscale>  2 0.20791151E+03</rscale>
<asrwt>0</asrwt>
<pdfrwt beam="1">  1       21 0.60580817E-01 0.20822259E+03</pdfrwt>
<pdfrwt beam="2">  1       21 0.16854472E-01 0.20822259E+03</pdfrwt>
<totfact> 0.79902878E+04</totfact>
</mgrwt>
</event>
<event>
12    1  0.1026879E-001  0.2862452E+03  0.7546771E-02  0.1092462E+00
         21   -1    0    0  501  502  0.00000000000E+00  0.00000000000E+00  0.10777795841E+03  0.10777795841E+03  0.00000000000E+00 0.  1.
         21   -1    0    0  502  503 -0.00000000000E+00 -0.00000000000E+00 -0.81552254412E+03  0.81552254412E+03  0.00000000000E+00 0. -1.
         -6    2    1    2    0  503  0.12450818058E+03 -0.18964180897E+03 -0.47640034430E+03  0.55525642136E+03  0.17287597481E+03 0.  0.
        -24    2    3    3    0    0  0.12517739955E+03 -0.20188391062E+03 -0.35856356183E+03  0.43669034607E+03  0.75525729061E+02 0.  0.
          6    2    1    2  501    0 -0.12450818058E+03  0.18964180897E+03 -0.23134424141E+03  0.36804408117E+03  0.17455653786E+03 0.  0.
         24    2    5    5    0    0 -0.13440406406E+03  0.17859491961E+03 -0.14096471176E+03  0.27633523943E+03  0.80805425817E+02 0.  0.
          5    1    5    5  501    0  0.98958834787E+01  0.11046889354E+02 -0.90379529644E+02  0.91708841738E+02  0.47000000000E+01 0. -1.
        -13    1    6    6    0    0 -0.50368186428E+02  0.13074445837E+02 -0.31777114974E+02  0.60972783880E+02  0.00000000000E+00 0.  1.
         14    1    6    6    0    0 -0.84035877632E+02  0.16552047377E+03 -0.10918759679E+03  0.21536245555E+03  0.00000000000E+00 0. -1.
         -5    1    3    3    0  503 -0.66921896570E+00  0.12242101651E+02 -0.11783678247E+03  0.11856607529E+03  0.47000000000E+01 0.  1.
         11    1    4    4    0    0  0.88191661590E+02 -0.95657612952E+02 -0.14156998235E+03  0.19227638438E+03  0.00000000000E+00 0. -1.
        -12    1    4    4    0    0  0.36985737958E+02 -0.10622629766E+03 -0.21699357949E+03  0.24441396168E+03  0.00000000000E+00 0.  1.
<mgrwt>
<rscale>  2 0.28598938E+03</rscale>
<asrwt>0</asrwt>
<pdfrwt beam="1">  1       21 0.16581225E-01 0.28624515E+03</pdfrwt>
<pdfrwt beam="2">  1       21 0.12546500E+00 0.28624515E+03</pdfrwt>
<totfact> 0.14629439E+04</totfact>
</mgrwt>
</event>
<event>
12    1  0.1026879E-001  0.1934364E+03  0.7546771E-02  0.1157412E+00
         21   -1    0    0  501  502  0.00000000000E+00  0.00000000000E+00  0.85657419835E+02  0.85657419835E+02  0.00000000000E+00 0. -1.
         21   -1    0    0  502  503 -0.00000000000E+00 -0.00000000000E+00 -0.59340766022E+03  0.59340766022E+03  0.00000000000E+00 0. -1.
         -6    2    1    2    0  503 -0.96320864278E+01 -0.67233417505E+02 -0.44320903801E+03  0.48358235362E+03  0.18112021380E+03 0.  0.
        -24    2    3    3    0    0  0.67357472430E+02 -0.36534117127E+02 -0.26076670289E+03  0.28314000565E+03  0.79355016600E+02 0.  0.
          6    2    1    2  501    0  0.96320864278E+01  0.67233417505E+02 -0.64541202374E+02  0.19548272643E+03  0.17156578916E+03 0.  0.
         24    2    5    5    0    0 -0.23745841489E+02  0.46276822395E+02 -0.10247430413E+03  0.14058031154E+03  0.80971795751E+02 0.  0.
          5    1    5    5  501    0  0.33377927917E+02  0.20956595109E+02  0.37933101760E+02  0.54902414881E+02  0.47000000000E+01 0. -1.
        -11    1    6    6    0    0  0.14723207208E+02 -0.56529902110E+00 -0.70552203851E+02  0.72074307917E+02  0.00000000000E+00 0.  1.
         12    1    6    6    0    0 -0.38469048698E+02  0.46842121417E+02 -0.31922100283E+02  0.68506003628E+02  0.00000000000E+00 0. -1.
         -5    1    3    3    0  503 -0.76989558858E+02 -0.30699300377E+02 -0.18244233512E+03  0.20044234797E+03  0.47000000000E+01 0.  1.
         11    1    4    4    0    0  0.60682932713E+02 -0.59884975711E+02 -0.18801964750E+03  0.20644615880E+03  0.00000000000E+00 0. -1.
        -12    1    4    4    0    0  0.66745397173E+01  0.23350858583E+02 -0.72747055386E+02  0.76693846848E+02  0.00000000000E+00 0.  1.
<mgrwt>
<rscale>  2 0.19116791E+03</rscale>
<asrwt>0</asrwt>
<pdfrwt beam="1">  1       21 0.13178064E-01 0.19343640E+03</pdfrwt>
<pdfrwt beam="2">  1       21 0.91293489E-01 0.19343640E+03</pdfrwt>
<totfact> 0.50397203E+04</totfact>
</mgrwt>
</event>
<event>
12    1  0.1026879E-001  0.3178481E+03  0.7546771E-02  0.1076832E+00
         21   -1    0    0  503  502  0.00000000000E+00  0.00000000000E+00  0.31649190087E+03  0.31649190087E+03  0.00000000000E+00 0.  1.
         21   -1    0    0  501  503 -0.00000000000E+00 -0.00000000000E+00 -0.38431132727E+03  0.38431132727E+03  0.00000000000E+00 0.  1.
          6    2    1    2  501    0 -0.25880303554E+03 -0.63622372865E+02  0.11216557973E+03  0.33553345649E+03  0.17021975683E+03 0.  0.
         24    2    3    3    0    0 -0.61256486504E+02  0.12012725017E+02  0.42411552304E+02  0.11274875906E+03  0.83766820395E+02 0.  0.
         -6    2    1    2    0  502  0.25880303554E+03  0.63622372865E+02 -0.17998500613E+03  0.36526977166E+03  0.17320677273E+03 0.  0.
        -24    2    5    5    0    0  0.16013067258E+03 -0.22337709001E+02 -0.71990247188E+02  0.19553371524E+03  0.83126605630E+02 0.  0.
          5    1    3    3  501    0 -0.19754654903E+03 -0.75635097882E+02  0.69754027428E+02  0.22278469743E+03  0.47000000000E+01 0. -1.
        -11    1    4    4    0    0 -0.62870745794E+02  0.38816933906E+02  0.43737989797E+02  0.85863244675E+02  0.00000000000E+00 0.  1.
         12    1    4    4    0    0  0.16142592896E+01 -0.26804208890E+02 -0.13264374930E+01  0.26885514384E+02  0.00000000000E+00 0. -1.
         -5    1    5    5    0  502  0.98672362961E+02  0.85960081866E+02 -0.10799475895E+03  0.16973605641E+03  0.47000000000E+01 0.  1.
         13    1    6    6    0    0 -0.78179032675E+01 -0.57950325859E+00  0.52127695385E+01  0.94142658656E+01  0.00000000000E+00 0. -1.
        -14    1    6    6    0    0  0.16794857584E+03 -0.21758205742E+02 -0.77203016726E+02  0.18611944938E+03  0.00000000000E+00 0.  1.
<mgrwt>
<rscale>  2 0.31744286E+03</rscale>
<asrwt>0</asrwt>
<pdfrwt beam="1">  1       21 0.48691062E-01 0.31784808E+03</pdfrwt>
<pdfrwt beam="2">  1       21 0.59124819E-01 0.31784808E+03</pdfrwt>
<totfact> 0.10060224E+04</totfact>
</mgrwt>
</event>
<event>
12    1  0.1026879E-001  0.2383519E+03  0.7546771E-02  0.1121053E+00
         21   -1    0    0  501  502  0.00000000000E+00  0.00000000000E+00  0.32228793321E+03  0.32228793321E+03  0.00000000000E+00 0. -1.
         21   -1    0    0  502  503 -0.00000000000E+00 -0.00000000000E+00 -0.20846446519E+03  0.20846446519E+03  0.00000000000E+00 0.  1.
         -6    2    1    2    0  503  0.93837297596E+02  0.13440955056E+03 -0.48382545765E+02  0.24321285398E+03  0.17303252846E+03 0.  0.
        -24    2    3    3    0    0  0.11726569878E+03  0.11857192999E+03  0.20347537615E+01  0.18521531697E+03  0.80560702118E+02 0.  0.
          6    2    1    2  501    0 -0.93837297596E+02 -0.13440955056E+03  0.16220601378E+03  0.28753954442E+03  0.17174642062E+03 0.  0.
         24    2    5    5    0    0 -0.40721320154E+02 -0.21824885248E+02  0.26652489204E+02  0.10343777379E+03  0.88625427136E+02 0.  0.
          5    1    5    5  501    0 -0.53115977442E+02 -0.11258466531E+03  0.13555352458E+03  0.18410177063E+03  0.47000000000E+01 0. -1.
        -13    1    6    6    0    0 -0.57207656030E+02 -0.19571715228E+02  0.47410082793E+02  0.76834132362E+02  0.00000000000E+00 0.  1.
         14    1    6    6    0    0  0.16486335876E+02 -0.22531700201E+01 -0.20757593589E+02  0.26603641430E+02  0.00000000000E+00 0. -1.
         -5    1    3    3    0  503 -0.23428401186E+02  0.15837620570E+02 -0.50417299527E+02  0.57997537008E+02  0.47000000000E+01 0.  1.
         13    1    4    4    0    0  0.67342400002E+02  0.15355991204E+02 -0.10547001502E+02  0.69871629039E+02  0.00000000000E+00 0. -1.
        -14    1    4    4    0    0  0.49923298780E+02  0.10321593878E+03  0.12581755263E+02  0.11534368793E+03  0.00000000000E+00 0.  1.
<mgrwt>
<rscale>  2 0.23811854E+03</rscale>
<asrwt>0</asrwt>
<pdfrwt beam="1">  1       21 0.49582759E-01 0.23835189E+03</pdfrwt>
<pdfrwt beam="2">  1       21 0.32071456E-01 0.23835189E+03</pdfrwt>
<totfact> 0.35449393E+04</totfact>
</mgrwt>
</event>
<event>
12    1  0.1026879E-001  0.1807589E+03  0.7546771E-02  0.1167918E+00
         21   -1    0    0  503  502  0.00000000000E+00  0.00000000000E+00  0.34658845691E+03  0.34658845691E+03  0.00000000000E+00 0.  1.
         21   -1    0    0  501  503 -0.00000000000E+00 -0.00000000000E+00 -0.10851663898E+03  0.10851663898E+03  0.00000000000E+00 0.  1.
          6    2    1    2  501    0 -0.12187256160E+02 -0.36932806771E+02  0.32507107571E+02  0.18365860245E+03  0.17652537717E+03 0.  0.
         24    2    3    3    0    0 -0.64379816960E+02 -0.30832888720E+02 -0.19165575500E+02  0.10981126954E+03  0.81214332322E+02 0.  0.
         -6    2    1    2    0  502  0.12187256160E+02  0.36932806771E+02  0.20556471036E+03  0.27144649344E+03  0.17295602685E+03 0.  0.
        -24    2    5    5    0    0 -0.51919026395E+01  0.65318746887E+02  0.50016014573E+02  0.11230729802E+03  0.76274720102E+02 0.  0.
          5    1    3    3  501    0  0.52192560800E+02 -0.60999180507E+01  0.51672683071E+02  0.73847332916E+02  0.47000000000E+01 0. -1.
        -13    1    4    4    0    0 -0.78434066032E+01 -0.21741737491E+02  0.27513389732E+02  0.35933393811E+02  0.00000000000E+00 0.  1.
         14    1    4    4    0    0 -0.56536410357E+02 -0.90911512299E+01 -0.46678965231E+02  0.73877875726E+02  0.00000000000E+00 0. -1.
         -5    1    5    5    0  502  0.17379158800E+02 -0.28385940116E+02  0.15554869579E+03  0.15913919542E+03  0.47000000000E+01 0.  1.
         11    1    6    6    0    0 -0.46294850665E+01 -0.71566297187E+01 -0.13480848524E+02  0.15949381111E+02  0.00000000000E+00 0. -1.
        -12    1    6    6    0    0 -0.56241757301E+00  0.72475376606E+02  0.63496863097E+02  0.96357916908E+02  0.00000000000E+00 0.  1.
<mgrwt>
<rscale>  2 0.17988148E+03</rscale>
<asrwt>0</asrwt>
<pdfrwt beam="1">  1       21 0.53321301E-01 0.18075887E+03</pdfrwt>
<pdfrwt beam="2">  1       21 0.16694868E-01 0.18075887E+03</pdfrwt>
<totfact> 0.10787851E+05</totfact>
</mgrwt>
</event>
<event>
12    1  0.1026879E-001  0.2029892E+03  0.7546771E-02  0.1147282E+00
         21   -1    0    0  501  502  0.00000000000E+00  0.00000000000E+00  0.37399754156E+02  0.37399754156E+02  0.00000000000E+00 0.  1.
         21   -1    0    0  502  503 -0.00000000000E+00 -0.00000000000E+00 -0.12883975497E+04  0.12883975497E+04  0.00000000000E+00 0. -1.
         -6    2    1    2    0  503  0.10484230598E+03  0.27209808027E+00 -0.87878736893E+03  0.90192674751E+03  0.17381782109E+03 0.  0.
        -24    2    3    3    0    0  0.12702804322E+02 -0.38816009019E+02 -0.58057433037E+03  0.58733069819E+03  0.78884422785E+02 0.  0.
          6    2    1    2  501    0 -0.10484230598E+03 -0.27209808027E+00 -0.37221042658E+03  0.42387055631E+03  0.17359050575E+03 0.  0.
         24    2    5    5    0    0 -0.69883505077E+02  0.48449323080E+02 -0.10235723572E+03  0.14739500719E+03  0.63381726482E+02 0.  0.
          5    1    5    5  501    0 -0.34958800907E+02 -0.48721421160E+02 -0.26985319087E+03  0.27647554912E+03  0.47000000000E+01 0. -1.
        -13    1    6    6    0    0 -0.49741761140E+02  0.35208483208E+01 -0.25214414688E+02  0.55878492126E+02  0.00000000000E+00 0.  1.
         14    1    6    6    0    0 -0.20141743937E+02  0.44928474759E+02 -0.77142821027E+02  0.91516515062E+02  0.00000000000E+00 0. -1.
         -5    1    3    3    0  503  0.92139501661E+02  0.39088107099E+02 -0.29821303855E+03  0.31459604932E+03  0.47000000000E+01 0.  1.
         13    1    4    4    0    0  0.13109488815E+02  0.23148426692E+02 -0.15440597137E+03  0.15668092529E+03  0.00000000000E+00 0. -1.
        -14    1    4    4    0    0 -0.40668449347E+00 -0.61964435711E+02 -0.42616835901E+03  0.43064977291E+03  0.00000000000E+00 0.  1.
<mgrwt>
<rscale>  2 0.20294054E+03</rscale>
<asrwt>0</asrwt>
<pdfrwt beam="1">  1       21 0.57538088E-02 0.20298921E+03</pdfrwt>
<pdfrwt beam="2">  1       21 0.19821499E+00 0.20298921E+03</pdfrwt>
<totfact> 0.28989281E+04</totfact>
</mgrwt>
</event>
<event>
12    1  0.1026879E-001  0.2001816E+03  0.7546771E-02  0.1149629E+00
         21   -1    0    0  503  502  0.00000000000E+00  0.00000000000E+00  0.15326799998E+04  0.15326799998E+04  0.00000000000E+00 0. -1.
         21   -1    0    0  501  503 -0.00000000000E+00 -0.00000000000E+00 -0.75273437567E+02  0.75273437567E+02  0.00000000000E+00 0. -1.
          6    2    1    2  501    0  0.81717855988E+02 -0.59299174933E+02  0.78888492645E+02  0.21497650932E+03  0.17261895943E+03 0.  0.
         24    2    3    3    0    0  0.49219997460E+02  0.33708374549E+02  0.55297926847E+02  0.11356092933E+03  0.79242421043E+02 0.  0.
         -6    2    1    2    0  502 -0.81717855988E+02  0.59299174933E+02  0.13785180696E+04  0.13929769281E+04  0.17285385084E+03 0.  0.
        -24    2    5    5    0    0 -0.42849495916E+02  0.98299373323E+02  0.11509351508E+04  0.11587807714E+04  0.81377568128E+02 0.  0.
          5    1    3    3  501    0  0.32497858528E+02 -0.93007549482E+02  0.23590565798E+02  0.10141557999E+03  0.47000000000E+01 0. -1.
        -13    1    4    4    0    0 -0.56852773133E+01  0.35543970707E+02  0.45071361038E+02  0.57681225868E+02  0.00000000000E+00 0.  1.
         14    1    4    4    0    0  0.54905274773E+02 -0.18355961584E+01  0.10226565809E+02  0.55879703466E+02  0.00000000000E+00 0. -1.
         -5    1    5    5    0  502 -0.38868360072E+02 -0.39000198390E+02  0.22758291875E+03  0.23419615666E+03  0.47000000000E+01 0.  1.
         13    1    6    6    0    0 -0.26249208913E+02 -0.40828456973E+01  0.37570932604E+03  0.37664729957E+03  0.00000000000E+00 0. -1.
        -14    1    6    6    0    0 -0.16600287003E+02  0.10238221902E+03  0.77522582480E+03  0.78213347182E+03  0.00000000000E+00 0.  1.
<mgrwt>
<rscale>  2 0.20013084E+03</rscale>
<asrwt>0</asrwt>
<pdfrwt beam="1">  1       21 0.23579690E+00 0.20018155E+03</pdfrwt>
<pdfrwt beam="2">  1       21 0.11580530E-01 0.20018155E+03</pdfrwt>
<totfact> 0.50097130E+03</totfact>
</mgrwt>
</event>
<event>
12    1  0.1026879E-001  0.1831258E+03  0.7546771E-02  0.1164915E+00
         21   -1    0    0  501  502  0.00000000000E+00  0.00000000000E+00  0.52852021858E+02  0.52852021858E+02  0.00000000000E+00 0.  1.
         21   -1    0    0  502  503 -0.00000000000E+00 -0.00000000000E+00 -0.74356594415E+03  0.74356594415E+03  0.00000000000E+00 0. -1.
         -6    2    1    2    0  503 -0.34696588590E+02  0.50598537100E+02 -0.19144940947E+03  0.26462842958E+03  0.17207923796E+03 0.  0.
        -24    2    3    3    0    0  0.11773299098E+00  0.95696219938E+02 -0.12139273807E+03  0.17420793858E+03  0.80339458777E+02 0.  0.
          6    2    1    2  501    0  0.34696588590E+02 -0.50598537100E+02 -0.49926451282E+03  0.53178953643E+03  0.17254272537E+03 0.  0.
         24    2    5    5    0    0  0.69462029871E+02 -0.67200978904E+02 -0.25155091291E+03  0.28105382983E+03  0.79827616266E+02 0.  0.
          5    1    5    5  501    0 -0.34765441280E+02  0.16602441804E+02 -0.24771359991E+03  0.25073570660E+03  0.47000000000E+01 0. -1.
        -11    1    6    6    0    0  0.71256245201E+01  0.69509925721E+01  0.15252810037E+01  0.10070615904E+02  0.00000000000E+00 0.  1.
         12    1    6    6    0    0  0.62336405351E+02 -0.74151971476E+02 -0.25307619391E+03  0.27098321393E+03  0.00000000000E+00 0. -1.
         -5    1    3    3    0  503 -0.34814321581E+02 -0.45097682838E+02 -0.70056671401E+02  0.90420490998E+02  0.47000000000E+01 0.  1.
         13    1    4    4    0    0  0.60190649616E+01  0.86375625889E+01 -0.74320443178E+02  0.75062406734E+02  0.00000000000E+00 0. -1.
        -14    1    4    4    0    0 -0.59013319706E+01  0.87058657349E+02 -0.47072294889E+02  0.99145531844E+02  0.00000000000E+00 0.  1.
<mgrwt>
<rscale>  2 0.18301654E+03</rscale>
<asrwt>0</asrwt>
<pdfrwt beam="1">  1       21 0.81310808E-02 0.18312580E+03</pdfrwt>
<pdfrwt beam="2">  1       21 0.11439475E+00 0.18312580E+03</pdfrwt>
<totfact> 0.69584948E+04</totfact>
</mgrwt>
</event>
<event>
12    1  0.1026879E-001  0.2589497E+03  0.7546771E-02  0.1109343E+00
         21   -1    0    0  501  502  0.00000000000E+00  0.00000000000E+00  0.32003580830E+03  0.32003580830E+03  0.00000000000E+00 0. -1.
         21   -1    0    0  502  503 -0.00000000000E+00 -0.00000000000E+00 -0.26532558538E+03  0.26532558538E+03  0.00000000000E+00 0.  1.
         -6    2    1    2    0  503  0.12887084325E+03  0.14352671860E+03 -0.11588718234E+03  0.28369838792E+03  0.17276377829E+03 0.  0.
        -24    2    3    3    0    0  0.47500344443E+02  0.98355455083E+02 -0.21801794287E+01  0.13668487278E+03  0.82145742420E+02 0.  0.
          6    2    1    2  501    0 -0.12887084325E+03 -0.14352671860E+03  0.17059740526E+03  0.30166300577E+03  0.15712886806E+03 0.  0.
         24    2    5    5    0    0 -0.14802490098E+03 -0.14641342936E+03  0.17156742902E+03  0.28170700484E+03  0.81087546952E+02 0.  0.
          5    1    5    5  501    0  0.19154057733E+02  0.28867107608E+01 -0.97002376514E+00  0.19956000921E+02  0.47000000000E+01 0. -1.
        -13    1    6    6    0    0 -0.40367038252E+02 -0.73445768980E+01  0.85630779559E+01  0.41913803109E+02  0.00000000000E+00 0.  1.
         14    1    6    6    0    0 -0.10765786273E+03 -0.13906885246E+03  0.16300435107E+03  0.23979320174E+03  0.00000000000E+00 0. -1.
         -5    1    3    3    0  503  0.81370498805E+02  0.45171263514E+02 -0.11370700291E+03  0.14701351514E+03  0.47000000000E+01 0.  1.
         13    1    4    4    0    0 -0.16476847368E+02  0.50971133833E+02  0.14167684580E+02  0.55409983485E+02  0.00000000000E+00 0. -1.
        -14    1    4    4    0    0  0.63977191811E+02  0.47384321250E+02 -0.16347864009E+02  0.81274889296E+02  0.00000000000E+00 0.  1.
<mgrwt>
<rscale>  2 0.25637184E+03</rscale>
<asrwt>0</asrwt>
<pdfrwt beam="1">  1       21 0.49236278E-01 0.25894968E+03</pdfrwt>
<pdfrwt beam="2">  1       21 0.40819321E-01 0.25894968E+03</pdfrwt>
<totfact> 0.21970144E+04</totfact>
</mgrwt>
</event>
<event>
12    1  0.1026879E-001  0.2086476E+03  0.7546771E-02  0.1143761E+00
         21   -1    0    0  503  502  0.00000000000E+00  0.00000000000E+00  0.96627281449E+02  0.96627281449E+02  0.00000000000E+00 0.  1.
         21   -1    0    0  501  503 -0.00000000000E+00 -0.00000000000E+00 -0.44813501359E+03  0.44813501359E+03  0.00000000000E+00 0. -1.
          6    2    1    2  501    0  0.11082852925E+03 -0.37837934569E+02 -0.21300757218E+03  0.29433044454E+03  0.16596238305E+03 0.  0.
         24    2    3    3    0    0  0.22350337080E+02 -0.10411748972E+02 -0.26423764542E+02  0.85964916152E+02  0.77998778145E+02 0.  0.
         -6    2    1    2    0  502 -0.11082852925E+03  0.37837934569E+02 -0.13850015996E+03  0.25043185050E+03  0.17268220884E+03 0.  0.
        -24    2    5    5    0    0 -0.10892188184E+03 -0.19206168219E+01 -0.34526565289E+02  0.13900036437E+03  0.79128708267E+02 0.  0.
          5    1    3    3  501    0  0.88478192167E+02 -0.27426185596E+02 -0.18658380764E+03  0.20836552839E+03  0.47000000000E+01 0. -1.
        -13    1    4    4    0    0 -0.17189300470E+02 -0.45714942178E+01 -0.39981463871E+02  0.43759433992E+02  0.00000000000E+00 0.  1.
         14    1    4    4    0    0  0.39539637551E+02 -0.58402547546E+01  0.13557699329E+02  0.42205482160E+02  0.00000000000E+00 0. -1.
         -5    1    5    5    0  502 -0.19066474073E+01  0.39758551391E+02 -0.10397359467E+03  0.11143148613E+03  0.47000000000E+01 0.  1.
         13    1    6    6    0    0  0.75096117386E+01 -0.26566412702E+01 -0.20168542607E+02  0.21684605650E+02  0.00000000000E+00 0. -1.
        -14    1    6    6    0    0 -0.11643149358E+03  0.73602444827E+00 -0.14358022682E+02  0.11731575872E+03  0.00000000000E+00 0.  1.
<mgrwt>
<rscale>  2 0.20725203E+03</rscale>
<asrwt>0</asrwt>
<pdfrwt beam="1">  1       21 0.14865735E-01 0.20864759E+03</pdfrwt>
<pdfrwt beam="2">  1       21 0.68943850E-01 0.20864759E+03</pdfrwt>
<totfact> 0.75862730E+04</totfact>
</mgrwt>
</event>
<event>
12    1  0.1026879E-001  0.3795013E+03  0.7546771E-02  0.1051134E+00
         21   -1    0    0  501  502  0.00000000000E+00  0.00000000000E+00  0.71029058715E+03  0.71029058715E+03  0.00000000000E+00 0.  1.
         21   -1    0    0  502  503 -0.00000000000E+00 -0.00000000000E+00 -0.40586860246E+03  0.40586860246E+03  0.00000000000E+00 0. -1.
         -6    2    1    2    0  503  0.29132843485E+03 -0.17044255410E+03 -0.24264740846E+03  0.45044309218E+03  0.17348859693E+03 0.  0.
        -24    2    3    3    0    0  0.87370226736E+02 -0.10129641799E+02 -0.45184472389E+02  0.12438653018E+03  0.75459964096E+02 0.  0.
          6    2    1    2  501    0 -0.29132843485E+03  0.17044255410E+03  0.54706939314E+03  0.66571609742E+03  0.17311868836E+03 0.  0.
         24    2    5    5    0    0 -0.24542778627E+03  0.10139284253E+03  0.31668949420E+03  0.42082485616E+03  0.79284406039E+02 0.  0.
          5    1    5    5  501    0 -0.45900648576E+02  0.69049711570E+02  0.23037989895E+03  0.24489124126E+03  0.47000000000E+01 0. -1.
        -13    1    6    6    0    0 -0.86896603344E+02 -0.35411801615E+01  0.95789139201E+02  0.12937974656E+03  0.00000000000E+00 0.  1.
         14    1    6    6    0    0 -0.15853118293E+03  0.10493402269E+03  0.22090035500E+03  0.29144510961E+03  0.00000000000E+00 0. -1.
         -5    1    3    3    0  503  0.20395820811E+03 -0.16031291230E+03 -0.19746293607E+03  0.32605656200E+03  0.47000000000E+01 0.  1.
         11    1    4    4    0    0  0.60988566308E+02 -0.29624753400E+02 -0.57943793240E+02  0.89189205677E+02  0.00000000000E+00 0. -1.
        -12    1    4    4    0    0  0.26381660428E+02  0.19495111601E+02  0.12759320851E+02  0.35197324499E+02  0.00000000000E+00 0.  1.
<mgrwt>
<rscale>  2 0.37945902E+03</rscale>
<asrwt>0</asrwt>
<pdfrwt beam="1">  1       21 0.10927547E+00 0.37950127E+03</pdfrwt>
<pdfrwt beam="2">  1       21 0.62441323E-01 0.37950127E+03</pdfrwt>
<totfact> 0.13912184E+03</totfact>
</mgrwt>
</event>
