<event>
11    1  0.4404304E-002  0.2580085E+03  0.7546771E-02  0.1108346E+00
          1   -1    0    0  502    0  0.00000000000E+00  0.00000000000E+00  0.66121497298E+02  0.66121497298E+02  0.00000000000E+00 0.  1.
         -1   -1    0    0    0  501 -0.00000000000E+00 -0.00000000000E+00 -0.11798859108E+04  0.11798859108E+04  0.00000000000E+00 0. -1.
          6    2    1    2  502    0  0.10819242734E+01 -0.19134298510E+03 -0.31819661376E+03  0.40964167653E+03  0.17304308606E+03 0.  0.
         -6    2    1    2    0  501 -0.10819242734E+01  0.19134298510E+03 -0.79556779970E+03  0.83636573153E+03  0.17310749391E+03 0.  0.
        -24    2    4    4    0    0  0.42930947402E+02  0.18026870040E+03 -0.53528758492E+03  0.57211650663E+03  0.80278440425E+02 0.  0.
          5    1    3    3  502    0 -0.30813625820E+02  0.20302516364E+02 -0.61596444595E+02  0.71957513115E+02  0.47000000000E+01 0. -1.
        -13    1    3    3    0    0  0.17293173596E+02 -0.19301021128E+02 -0.39776020598E+02  0.47473309177E+02  0.00000000000E+00 0.  1.
         14    1    3    3    0    0  0.14602376497E+02 -0.19234448034E+03 -0.21682414856E+03  0.29021085423E+03  0.00000000000E+00 0. -1.
         -5    1    4    4    0  501 -0.44012871675E+02  0.11074284703E+02 -0.26028021478E+03  0.26424922490E+03  0.47000000000E+01 0.  1.
         13    1    5    5    0    0  0.23703710094E+01  0.49258071313E+02 -0.25910988938E+03  0.26376108702E+03  0.00000000000E+00 0. -1.
        -14    1    5    5    0    0  0.40560576392E+02  0.13101062908E+03 -0.27617769554E+03  0.30835541961E+03  0.00000000000E+00 0.  1.
<mgrwt>
<rscale>  2 0.25800846E+03</rscale>
<asrwt>0</asrwt>
<pdfrwt beam="1">  1        1 0.10172538E-01 0.25800846E+03</pdfrwt>
<pdfrwt beam="2">  1       -1 0.18152091E+00 0.25800846E+03</pdfrwt>
<totfact> 0.14035845E+02</totfact>
</mgrwt>
</event>
<event>
12    1  0.4404304E-002  0.1962426E+03  0.7546771E-02  0.1152948E+00
          3   -1    0    0  502    0  0.00000000000E+00  0.00000000000E+00  0.15507441916E+04  0.15507441916E+04  0.00000000000E+00 0.  1.
         -3   -1    0    0    0  501 -0.00000000000E+00 -0.00000000000E+00 -0.34293463795E+02  0.34293463795E+02  0.00000000000E+00 0. -1.
          6    2    1    2  502    0 -0.80319447138E+02 -0.46003302608E+02  0.11742290698E+04  0.11905010534E+04  0.17294892958E+03 0.  0.
         24    2    3    3    0    0 -0.10781492785E+03 -0.45279466972E+02  0.11254871946E+04  0.11343371344E+04  0.79529996925E+02 0.  0.
         -6    2    1    2    0  501  0.80319447138E+02  0.46003302608E+02  0.34222165799E+03  0.39453660202E+03  0.17313563960E+03 0.  0.
        -24    2    5    5    0    0  0.98041491213E+02  0.85070440494E+02  0.27685037408E+03  0.31620521069E+03  0.80563588494E+02 0.  0.
          5    1    3    3  502    0  0.27495480714E+02 -0.72383563584E+00  0.48741875198E+02  0.56163918984E+02  0.47000000000E+01 0. -1.
        -13    1    4    4    0    0 -0.89130039870E+02 -0.66184101206E+02  0.80376688447E+03  0.81139737726E+03  0.00000000000E+00 0.  1.
         14    1    4    4    0    0 -0.18684887983E+02  0.20904634234E+02  0.32172031016E+03  0.32293975713E+03  0.00000000000E+00 0. -1.
         -5    1    5    5    0  501 -0.17722044075E+02 -0.39067137887E+02  0.65371283906E+02  0.78331391334E+02  0.47000000000E+01 0.  1.
         11    1    6    6    0    0  0.90601617087E+02  0.44296858738E+02  0.13555059439E+03  0.16895214812E+03  0.00000000000E+00 0. -1.
        -12    1    6    6    0    0  0.74398741265E+01  0.40773581756E+02  0.14129977969E+03  0.14725306257E+03  0.00000000000E+00 0.  1.
<mgrwt>
<rscale>  2 0.19624257E+03</rscale>
<asrwt>0</asrwt>
<pdfrwt beam="1">  1        3 0.23857598E+00 0.19624257E+03</pdfrwt>
<pdfrwt beam="2">  1       -3 0.52759187E-02 0.19624257E+03</pdfrwt>
<totfact> 0.49276583E+01</totfact>
</mgrwt>
</event>
<event>
12    1  0.4404304E-002  0.2157184E+03  0.7546771E-02  0.1137116E+00
         -2   -1    0    0    0  501 -0.00000000000E+00  0.00000000000E+00  0.11427882101E+03  0.11427882101E+03  0.00000000000E+00 0. -1.
          2   -1    0    0  502    0  0.00000000000E+00 -0.00000000000E+00 -0.58406408800E+03  0.58406408800E+03  0.00000000000E+00 0.  1.
          6    2    1    2  502    0  0.23915439652E+02  0.12676526849E+03 -0.42605840294E+03  0.47698328100E+03  0.17130646832E+03 0.  0.
         24    2    3    3    0    0  0.65781076766E+02  0.39232969862E+02 -0.28111200834E+03  0.30249493703E+03  0.81319430092E+02 0.  0.
         -6    2    1    2    0  501 -0.23915439652E+02 -0.12676526849E+03 -0.43726864039E+02  0.22135962801E+03  0.17448972670E+03 0.  0.
        -24    2    5    5    0    0 -0.33783274443E+02 -0.12422543712E+03 -0.88239410300E+02  0.17545449015E+03  0.80154948225E+02 0.  0.
          5    1    3    3  502    0 -0.41865637114E+02  0.87532298625E+02 -0.14494639461E+03  0.17448834398E+03  0.47000000000E+01 0. -1.
        -13    1    4    4    0    0  0.12819921356E+02  0.34353605595E+02 -0.21271832889E+03  0.21585552586E+03  0.00000000000E+00 0.  1.
         14    1    4    4    0    0  0.52961155410E+02  0.48793642667E+01 -0.68393679450E+02  0.86639411163E+02  0.00000000000E+00 0. -1.
         -5    1    5    5    0  501  0.98678347914E+01 -0.25398313650E+01  0.44512546261E+02  0.45905137855E+02  0.47000000000E+01 0.  1.
         13    1    6    6    0    0 -0.11910514617E+02 -0.72203903498E+02 -0.30175544534E+01  0.73241857389E+02  0.00000000000E+00 0. -1.
        -14    1    6    6    0    0 -0.21872759827E+02 -0.52021533623E+02 -0.85221855847E+02  0.10221263277E+03  0.00000000000E+00 0.  1.
<mgrwt>
<rscale>  2 0.21571836E+03</rscale>
<asrwt>0</asrwt>
<pdfrwt beam="2">  1        2 0.89856012E-01 0.21571836E+03</pdfrwt>
<pdfrwt beam="1">  1       -2 0.17581357E-01 0.21571836E+03</pdfrwt>
<totfact> 0.13621423E+03</totfact>
</mgrwt>
</event>
<event>
12    1  0.4404304E-002  0.2520106E+03  0.7546771E-02  0.1112041E+00
          1   -1    0    0  502    0  0.00000000000E+00  0.00000000000E+00  0.19299472083E+04  0.19299472083E+04  0.00000000000E+00 0. -1.
         -1   -1    0    0    0  501 -0.00000000000E+00 -0.00000000000E+00 -0.32973066735E+02  0.32973066735E+02  0.00000000000E+00 0.  1.
          6    2    1    2  502    0  0.10499250508E+03  0.15121196422E+03  0.90483116383E+03  0.93928319521E+03  0.17217723869E+03 0.  0.
         24    2    3    3    0    0  0.90740390262E+02  0.80141459751E+02  0.78381056047E+03  0.79813711549E+03  0.89484012143E+02 0.  0.
         -6    2    1    2    0  501 -0.10499250508E+03 -0.15121196422E+03  0.99214297777E+03  0.10236370799E+04  0.17203691080E+03 0.  0.
        -24    2    5    5    0    0 -0.10818194452E+03 -0.39542376637E+02  0.54361153818E+03  0.56137869799E+03  0.79784744382E+02 0.  0.
          5    1    3    3  502    0  0.14252114819E+02  0.71070504466E+02  0.12102060336E+03  0.14114607972E+03  0.47000000000E+01 0. -1.
        -13    1    4    4    0    0  0.75362734113E+02  0.87980569893E+02  0.47791182753E+03  0.49175180454E+03  0.00000000000E+00 0.  1.
         14    1    4    4    0    0  0.15377656149E+02 -0.78391101422E+01  0.30589873294E+03  0.30638531096E+03  0.00000000000E+00 0. -1.
         -5    1    5    5    0  501  0.31894394408E+01 -0.11166958758E+03  0.44853143958E+03  0.46225838187E+03  0.47000000000E+01 0.  1.
         13    1    6    6    0    0 -0.29793733202E+02  0.24254110374E+02  0.17461214736E+03  0.17878850750E+03  0.00000000000E+00 0. -1.
        -14    1    6    6    0    0 -0.78388211319E+02 -0.63796487011E+02  0.36899939083E+03  0.38259019049E+03  0.00000000000E+00 0.  1.
<mgrwt>
<rscale>  2 0.25201057E+03</rscale>
<asrwt>0</asrwt>
<pdfrwt beam="1">  1        1 0.29691487E+00 0.25201057E+03</pdfrwt>
<pdfrwt beam="2">  1       -1 0.50727810E-02 0.25201057E+03</pdfrwt>
<totfact> 0.64659722E+02</totfact>
</mgrwt>
</event>
<event>
12    1  0.4404304E-002  0.2205297E+03  0.7546771E-02  0.1133489E+00
          1   -1    0    0  502    0  0.00000000000E+00  0.00000000000E+00  0.49942232503E+02  0.49942232503E+02  0.00000000000E+00 0. -1.
         -1   -1    0    0    0  501 -0.00000000000E+00 -0.00000000000E+00 -0.97582421662E+03  0.97582421662E+03  0.00000000000E+00 0.  1.
          6    2    1    2  502    0  0.11499724928E+03  0.34433338275E+02 -0.46290144259E+03  0.51606147864E+03  0.19398887094E+03 0.  0.
         24    2    3    3    0    0  0.33150625750E+02 -0.36353671465E+01 -0.39060155122E+03  0.40031407949E+03  0.81053134076E+02 0.  0.
         -6    2    1    2    0  501 -0.11499724928E+03 -0.34433338275E+02 -0.46298054152E+03  0.50970497048E+03  0.17617648249E+03 0.  0.
        -24    2    5    5    0    0 -0.10146863475E+03  0.37659839428E+02 -0.20366892665E+03  0.24017750753E+03  0.67007880845E+02 0.  0.
          5    1    3    3  502    0  0.81846623531E+02  0.38068705421E+02 -0.72299891376E+02  0.11574739914E+03  0.47000000000E+01 0. -1.
        -13    1    4    4    0    0  0.31411120457E+00 -0.38788314352E+02 -0.20074888086E+03  0.20446208734E+03  0.00000000000E+00 0.  1.
         14    1    4    4    0    0  0.32836514546E+02  0.35152947205E+02 -0.18985267036E+03  0.19585199215E+03  0.00000000000E+00 0. -1.
         -5    1    5    5    0  501 -0.13528614534E+02 -0.72093177703E+02 -0.25931161486E+03  0.26952746295E+03  0.47000000000E+01 0.  1.
         11    1    6    6    0    0  0.55028290723E+01  0.47369916512E+01 -0.47452099711E+02  0.48004395472E+02  0.00000000000E+00 0. -1.
        -12    1    6    6    0    0 -0.10697146382E+03  0.32922847777E+02 -0.15621682694E+03  0.19217311206E+03  0.00000000000E+00 0.  1.
<mgrwt>
<rscale>  2 0.22052965E+03</rscale>
<asrwt>0</asrwt>
<pdfrwt beam="1">  1        1 0.76834201E-02 0.22052965E+03</pdfrwt>
<pdfrwt beam="2">  1       -1 0.15012681E+00 0.22052965E+03</pdfrwt>
<totfact> 0.34725745E+02</totfact>
</mgrwt>
</event>
<event>
12    1  0.4404304E-002  0.1976197E+03  0.7546771E-02  0.1151763E+00
          1   -1    0    0  502    0  0.00000000000E+00  0.00000000000E+00  0.26714294799E+03  0.26714294799E+03  0.00000000000E+00 0.  1.
         -1   -1    0    0    0  501 -0.00000000000E+00 -0.00000000000E+00 -0.16343200940E+03  0.16343200940E+03  0.00000000000E+00 0. -1.
          6    2    1    2  502    0 -0.55679727201E+02 -0.78879925881E+02  0.12206192717E+03  0.23333988340E+03  0.17385658571E+03 0.  0.
         24    2    3    3    0    0  0.27456601089E+02 -0.46128323323E+02  0.10415332194E+03  0.14208680295E+03  0.80368264530E+02 0.  0.
         -6    2    1    2    0  501  0.55679727201E+02  0.78879925881E+02 -0.18350988584E+02  0.19723507399E+03  0.17100479789E+03 0.  0.
        -24    2    5    5    0    0  0.69513432277E+02  0.62205424916E+02 -0.69640074658E+02  0.14135958089E+03  0.80194507015E+02 0.  0.
          5    1    3    3  502    0 -0.83136328291E+02 -0.32751602558E+02  0.17908605227E+02  0.91253080457E+02  0.47000000000E+01 0. -1.
        -11    1    4    4    0    0  0.20186277457E+02  0.17432748586E+02  0.55956740658E+02  0.61988251676E+02  0.00000000000E+00 0.  1.
         12    1    4    4    0    0  0.72703236324E+01 -0.63561071909E+02  0.48196581287E+02  0.80098551271E+02  0.00000000000E+00 0. -1.
         -5    1    5    5    0  501 -0.13833705076E+02  0.16674500965E+02  0.51289086074E+02  0.55875493097E+02  0.47000000000E+01 0.  1.
         13    1    6    6    0    0  0.75691970429E+02  0.33297490283E+02 -0.22467482890E+02  0.85690052130E+02  0.00000000000E+00 0. -1.
        -14    1    6    6    0    0 -0.61785381517E+01  0.28907934632E+02 -0.47172591767E+02  0.55669528761E+02  0.00000000000E+00 0.  1.
<mgrwt>
<rscale>  2 0.19761972E+03</rscale>
<asrwt>0</asrwt>
<pdfrwt beam="1">  1        1 0.41098915E-01 0.19761972E+03</pdfrwt>
<pdfrwt beam="2">  1       -1 0.25143386E-01 0.19761972E+03</pdfrwt>
<totfact> 0.13915101E+03</totfact>
</mgrwt>
</event>
<event>
12    1  0.4404304E-002  0.1755840E+03  0.7546771E-02  0.1172147E+00
          4   -1    0    0  502    0  0.00000000000E+00  0.00000000000E+00  0.45644480657E+03  0.45644480657E+03  0.00000000000E+00 0.  1.
         -4   -1    0    0    0  501 -0.00000000000E+00 -0.00000000000E+00 -0.67543370053E+02  0.67543370053E+02  0.00000000000E+00 0. -1.
          6    2    1    2  502    0 -0.20133541486E+02  0.11177047231E+02  0.19464287152E+03  0.26232034910E+03  0.17434400545E+03 0.  0.
         24    2    3    3    0    0  0.14707374571E+02  0.33503967159E+01  0.20783783077E+03  0.22396226208E+03  0.82067039119E+02 0.  0.
         -6    2    1    2    0  501  0.20133541486E+02 -0.11177047231E+02  0.19425856499E+03  0.26166782752E+03  0.17379118508E+03 0.  0.
        -24    2    5    5    0    0  0.43101617419E+02  0.54347713001E+01  0.31339849240E+02  0.96234810959E+02  0.79947898827E+02 0.  0.
          5    1    3    3  502    0 -0.34840916058E+02  0.78266505149E+01 -0.13194959252E+02  0.38358087018E+02  0.47000000000E+01 0. -1.
        -11    1    4    4    0    0  0.59829221462E+01  0.41887419289E+02  0.12926496993E+03  0.13601390996E+03  0.00000000000E+00 0.  1.
         12    1    4    4    0    0  0.87244524249E+01 -0.38537022573E+02  0.78572860844E+02  0.87948352117E+02  0.00000000000E+00 0. -1.
         -5    1    5    5    0  501 -0.22968075932E+02 -0.16611818531E+02  0.16291871575E+03  0.16543301656E+03  0.47000000000E+01 0.  1.
         11    1    6    6    0    0  0.68405045300E+01  0.10828030995E+02 -0.25535958873E+02  0.28567883243E+02  0.00000000000E+00 0. -1.
        -12    1    6    6    0    0  0.36261112889E+02 -0.53932596947E+01  0.56875808112E+02  0.67666927716E+02  0.00000000000E+00 0.  1.
<mgrwt>
<rscale>  2 0.17558400E+03</rscale>
<asrwt>0</asrwt>
<pdfrwt beam="1">  1        4 0.70222276E-01 0.17558400E+03</pdfrwt>
<pdfrwt beam="2">  1       -4 0.10391288E-01 0.17558400E+03</pdfrwt>
<totfact> 0.23460554E+02</totfact>
</mgrwt>
</event>
<event>
12    1  0.4404304E-002  0.2813580E+03  0.7546771E-02  0.1094950E+00
          1   -1    0    0  502    0  0.00000000000E+00  0.00000000000E+00  0.19809956198E+03  0.19809956198E+03  0.00000000000E+00 0. -1.
         -1   -1    0    0    0  501 -0.00000000000E+00 -0.00000000000E+00 -0.45311466890E+03  0.45311466890E+03  0.00000000000E+00 0.  1.
          6    2    1    2  502    0 -0.17463418123E+03 -0.13680489535E+03 -0.23947830120E+03  0.36963013442E+03  0.17338945436E+03 0.  0.
         24    2    3    3    0    0 -0.15203594754E+03 -0.34994157295E+02 -0.16744590957E+03  0.24279614058E+03  0.81069802409E+02 0.  0.
         -6    2    1    2    0  501  0.17463418123E+03  0.13680489535E+03 -0.15536805714E+02  0.28158409646E+03  0.17272965698E+03 0.  0.
        -24    2    5    5    0    0  0.20984347597E+02  0.33079410611E+02  0.77020856727E+01  0.94690052591E+02  0.85862061969E+02 0.  0.
          5    1    3    3  502    0 -0.22598233691E+02 -0.10181073805E+03 -0.72032391636E+02  0.12683399384E+03  0.47000000000E+01 0. -1.
        -11    1    4    4    0    0 -0.78890896671E+02 -0.27781607059E+02 -0.14239948570E+03  0.16514601054E+03  0.00000000000E+00 0.  1.
         12    1    4    4    0    0 -0.73145050867E+02 -0.72125502363E+01 -0.25046423860E+02  0.77650130041E+02  0.00000000000E+00 0. -1.
         -5    1    5    5    0  501  0.15364983363E+03  0.10372548474E+03 -0.23238891387E+02  0.18689404386E+03  0.47000000000E+01 0.  1.
         13    1    6    6    0    0 -0.92332681225E+01  0.52686805383E+02  0.19272540494E+02  0.56855813412E+02  0.00000000000E+00 0. -1.
        -14    1    6    6    0    0  0.30217615719E+02 -0.19607394772E+02 -0.11570454821E+02  0.37834239179E+02  0.00000000000E+00 0.  1.
<mgrwt>
<rscale>  2 0.28135798E+03</rscale>
<asrwt>0</asrwt>
<pdfrwt beam="1">  1        1 0.30476856E-01 0.28135798E+03</pdfrwt>
<pdfrwt beam="2">  1       -1 0.69709948E-01 0.28135798E+03</pdfrwt>
<totfact> 0.32248943E+02</totfact>
</mgrwt>
</event>
<event>
12    1  0.4404304E-002  0.2207429E+03  0.7546771E-02  0.1133330E+00
         -3   -1    0    0    0  501 -0.00000000000E+00  0.00000000000E+00  0.34973234338E+02  0.34973234338E+02  0.00000000000E+00 0.  1.
          3   -1    0    0  502    0  0.00000000000E+00 -0.00000000000E+00 -0.14042261484E+04  0.14042261484E+04  0.00000000000E+00 0. -1.
          6    2    1    2  502    0  0.10047927776E+03  0.91943987154E+02 -0.74788694975E+03  0.77975772261E+03  0.17360136619E+03 0.  0.
         24    2    3    3    0    0 -0.80147177709E+01  0.29673375547E+02 -0.19684635375E+03  0.21467683940E+03  0.79955696943E+02 0.  0.
         -6    2    1    2    0  501 -0.10047927776E+03 -0.91943987154E+02 -0.62136596430E+03  0.65944166011E+03  0.17383284921E+03 0.  0.
        -24    2    5    5    0    0 -0.13224567034E+02  0.65230085041E+01 -0.15092754773E+03  0.17093011719E+03  0.78870409451E+02 0.  0.
          5    1    3    3  502    0  0.10849399553E+03  0.62270611607E+02 -0.55104059599E+03  0.56508088321E+03  0.47000000000E+01 0. -1.
        -13    1    4    4    0    0 -0.23556627969E+01 -0.26879979143E+02 -0.85608121928E+02  0.89759862778E+02  0.00000000000E+00 0.  1.
         14    1    4    4    0    0 -0.56590549740E+01  0.56553354690E+02 -0.11123823182E+03  0.12491697663E+03  0.00000000000E+00 0. -1.
         -5    1    5    5    0  501 -0.87254710722E+02 -0.98466995658E+02 -0.47043841657E+03  0.48851154291E+03  0.47000000000E+01 0.  1.
         11    1    6    6    0    0  0.26075743068E+02 -0.27036480782E+01 -0.11135842948E+03  0.11440259571E+03  0.00000000000E+00 0. -1.
        -12    1    6    6    0    0 -0.39300310102E+02  0.92266565822E+01 -0.39569118251E+02  0.56527521483E+02  0.00000000000E+00 0.  1.
<mgrwt>
<rscale>  2 0.22074286E+03</rscale>
<asrwt>0</asrwt>
<pdfrwt beam="2">  1        3 0.21603483E+00 0.22074286E+03</pdfrwt>
<pdfrwt beam="1">  1       -3 0.53804967E-02 0.22074286E+03</pdfrwt>
<totfact> 0.64579056E+01</totfact>
</mgrwt>
</event>
<event>
12    1  0.4404304E-002  0.2446868E+03  0.7546771E-02  0.1116709E+00
          2   -1    0    0  502    0  0.00000000000E+00  0.00000000000E+00  0.46018335805E+03  0.46018335805E+03  0.00000000000E+00 0. -1.
         -2   -1    0    0    0  501 -0.00000000000E+00 -0.00000000000E+00 -0.13020746802E+03  0.13020746802E+03  0.00000000000E+00 0.  1.
          6    2    1    2  502    0 -0.14954570318E+03  0.90894197923E+02  0.15626656825E+03  0.28978932392E+03  0.17009685284E+03 0.  0.
         24    2    3    3    0    0 -0.92187730318E+02  0.32137604418E+02  0.17658249502E+02  0.12861665143E+03  0.81847577913E+02 0.  0.
         -6    2    1    2    0  501  0.14954570318E+03 -0.90894197923E+02  0.17370932179E+03  0.30060150216E+03  0.17193214378E+03 0.  0.
        -24    2    5    5    0    0  0.16304391187E+03 -0.44998394009E+02  0.16892912907E+03  0.25229449752E+03  0.80667776514E+02 0.  0.
          5    1    3    3  502    0 -0.57357972865E+02  0.58756593505E+02  0.13860831875E+03  0.16117267249E+03  0.47000000000E+01 0. -1.
        -13    1    4    4    0    0 -0.94701823302E+02  0.51413854164E+02  0.17542925547E+02  0.10917680144E+03  0.00000000000E+00 0.  1.
         14    1    4    4    0    0  0.25140929835E+01 -0.19276249746E+02  0.11532395501E+00  0.19439849985E+02  0.00000000000E+00 0. -1.
         -5    1    5    5    0  501 -0.13498208690E+02 -0.45895803914E+02  0.47801927193E+01  0.48307004639E+02  0.47000000000E+01 0.  1.
         13    1    6    6    0    0  0.63175379623E+02 -0.51964981402E+02  0.46318235600E+02  0.94004610694E+02  0.00000000000E+00 0. -1.
        -14    1    6    6    0    0  0.99868532250E+02  0.69665873930E+01  0.12261089347E+03  0.15828988682E+03  0.00000000000E+00 0.  1.
<mgrwt>
<rscale>  2 0.24468684E+03</rscale>
<asrwt>0</asrwt>
<pdfrwt beam="1">  1        2 0.70797439E-01 0.24468684E+03</pdfrwt>
<pdfrwt beam="2">  1       -2 0.20031918E-01 0.24468684E+03</pdfrwt>
<totfact> 0.14302540E+03</totfact>
</mgrwt>
</event>
<event>
12    1  0.4404304E-002  0.2462133E+03  0.7546771E-02  0.1115722E+00
          2   -1    0    0  502    0  0.00000000000E+00  0.00000000000E+00  0.26602672354E+03  0.26602672354E+03  0.00000000000E+00 0.  1.
         -2   -1    0    0    0  501 -0.00000000000E+00 -0.00000000000E+00 -0.26407083193E+03  0.26407083193E+03  0.00000000000E+00 0. -1.
          6    2    1    2  502    0  0.67960801541E+02  0.16140741243E+03  0.99104322582E+02  0.26517329557E+03  0.17269680541E+03 0.  0.
         24    2    3    3    0    0 -0.30604275622E+01  0.15122033608E+03  0.88848156801E+02  0.19254361538E+03  0.79385720366E+02 0.  0.
         -6    2    1    2    0  501 -0.67960801541E+02 -0.16140741243E+03 -0.97148430978E+02  0.26492425990E+03  0.17342439997E+03 0.  0.
        -24    2    5    5    0    0 -0.77348828949E+02 -0.13753189411E+03 -0.15510584714E+02  0.17922126475E+03  0.83557287324E+02 0.  0.
          5    1    3    3  502    0  0.71021229104E+02  0.10187076352E+02  0.10256165781E+02  0.72629680190E+02  0.47000000000E+01 0. -1.
        -13    1    4    4    0    0  0.10204866281E+02  0.10039459486E+03  0.96301629611E+02  0.13948913162E+03  0.00000000000E+00 0.  1.
         14    1    4    4    0    0 -0.13265293843E+02  0.50825741217E+02 -0.74534728106E+01  0.53054483769E+02  0.00000000000E+00 0. -1.
         -5    1    5    5    0  501  0.93880274079E+01 -0.23875518321E+02 -0.81637846263E+02  0.85702995142E+02  0.47000000000E+01 0.  1.
         13    1    6    6    0    0 -0.36098432037E+02 -0.12541939208E+03 -0.29886893352E+02  0.13388930913E+03  0.00000000000E+00 0. -1.
        -14    1    6    6    0    0 -0.41250396912E+02 -0.12112502032E+02  0.14376308637E+02  0.45331955626E+02  0.00000000000E+00 0.  1.
<mgrwt>
<rscale>  2 0.24621332E+03</rscale>
<asrwt>0</asrwt>
<pdfrwt beam="1">  1        2 0.40927189E-01 0.24621332E+03</pdfrwt>
<pdfrwt beam="2">  1       -2 0.40626281E-01 0.24621332E+03</pdfrwt>
<totfact> 0.72194645E+02</totfact>
</mgrwt>
</event>
<event>
12    1  0.4404304E-002  0.2303867E+03  0.7546771E-02  0.1126368E+00
         -1   -1    0    0    0  501 -0.00000000000E+00  0.00000000000E+00  0.22760589705E+03  0.22760589705E+03  0.00000000000E+00 0.  1.
          1   -1    0    0  502    0  0.00000000000E+00 -0.00000000000E+00 -0.24349551495E+03  0.24349551495E+03  0.00000000000E+00 0. -1.
          6    2    1    2  502    0 -0.14402007417E+03 -0.46682223567E+02 -0.56357200731E+02  0.23668947797E+03  0.17298775433E+03 0.  0.
         24    2    3    3    0    0 -0.68041885761E+02 -0.19185041024E+02 -0.99501032352E+02  0.14497110267E+03  0.78220209359E+02 0.  0.
         -6    2    1    2    0  501  0.14402007417E+03  0.46682223567E+02  0.40467582837E+02  0.23441193403E+03  0.17432818990E+03 0.  0.
        -24    2    5    5    0    0  0.50002112066E+02 -0.26694840003E+02 -0.20631219002E+02  0.10032716889E+03  0.80168996043E+02 0.  0.
          5    1    3    3  502    0 -0.75978188408E+02 -0.27497182543E+02  0.43143831621E+02  0.91718375305E+02  0.47000000000E+01 0. -1.
        -11    1    4    4    0    0 -0.25897976365E+01  0.13676438047E+02  0.71078732744E+01  0.15629263320E+02  0.00000000000E+00 0.  1.
         12    1    4    4    0    0 -0.65452088125E+02 -0.32861479071E+02 -0.10660890563E+03  0.12934183935E+03  0.00000000000E+00 0. -1.
         -5    1    5    5    0  501  0.94017962104E+02  0.73377063570E+02  0.61098801840E+02  0.13408476514E+03  0.47000000000E+01 0.  1.
         11    1    6    6    0    0  0.60364972280E+02 -0.44333795077E+02 -0.59210108853E+01  0.75129712060E+02  0.00000000000E+00 0. -1.
        -12    1    6    6    0    0 -0.10362860214E+02  0.17638955074E+02 -0.14710208117E+02  0.25197456832E+02  0.00000000000E+00 0.  1.
<mgrwt>
<rscale>  2 0.23038672E+03</rscale>
<asrwt>0</asrwt>
<pdfrwt beam="2">  1        1 0.37460848E-01 0.23038672E+03</pdfrwt>
<pdfrwt beam="1">  1       -1 0.35016292E-01 0.23038672E+03</pdfrwt>
<totfact> 0.89283863E+02</totfact>
</mgrwt>
</event>
<event>
12    1  0.4404304E-002  0.2012843E+03  0.7546771E-02  0.1148660E+00
         -1   -1    0    0    0  501 -0.00000000000E+00  0.00000000000E+00  0.48991022670E+02  0.48991022670E+02  0.00000000000E+00 0. -1.
          1   -1    0    0  502    0  0.00000000000E+00 -0.00000000000E+00 -0.83484673880E+03  0.83484673880E+03  0.00000000000E+00 0.  1.
          6    2    1    2  502    0  0.41273631398E+02  0.72951441713E+02 -0.44817888560E+03  0.49503229845E+03  0.19278806372E+03 0.  0.
         24    2    3    3    0    0  0.22763479232E+02  0.35809638448E+01 -0.68321906073E+02  0.10842098999E+03  0.80970543609E+02 0.  0.
         -6    2    1    2    0  501 -0.41273631398E+02 -0.72951441713E+02 -0.33767683053E+03  0.38880546302E+03  0.17354717140E+03 0.  0.
        -24    2    5    5    0    0 -0.19806001866E+02  0.29728266237E+02 -0.11882007672E+03  0.14606207952E+03  0.77070571037E+02 0.  0.
          5    1    3    3  502    0  0.18510152166E+02  0.69370477869E+02 -0.37985697953E+03  0.38661130846E+03  0.47000000000E+01 0. -1.
        -11    1    4    4    0    0 -0.18201321184E+02  0.44799330337E+01 -0.64615054346E+02  0.67278994798E+02  0.00000000000E+00 0.  1.
         12    1    4    4    0    0  0.40964800416E+02 -0.89896918887E+00 -0.37068517270E+01  0.41141995193E+02  0.00000000000E+00 0. -1.
         -5    1    5    5    0  501 -0.21467629533E+02 -0.10267970795E+03 -0.21885675382E+03  0.24274338350E+03  0.47000000000E+01 0.  1.
         11    1    6    6    0    0 -0.13740967597E+02  0.10268291878E+02 -0.12387854693E+03  0.12506057092E+03  0.00000000000E+00 0. -1.
        -12    1    6    6    0    0 -0.60650342689E+01  0.19459974359E+02  0.50584702143E+01  0.21001508604E+02  0.00000000000E+00 0.  1.
<mgrwt>
<rscale>  2 0.20128427E+03</rscale>
<asrwt>0</asrwt>
<pdfrwt beam="2">  1        1 0.12843796E+00 0.20128427E+03</pdfrwt>
<pdfrwt beam="1">  1       -1 0.75370805E-02 0.20128427E+03</pdfrwt>
<totfact> 0.20245636E+03</totfact>
</mgrwt>
</event>
<event>
12    1  0.4404304E-002  0.1731934E+03  0.7546771E-02  0.1174558E+00
          1   -1    0    0  502    0  0.00000000000E+00  0.00000000000E+00  0.80524624025E+03  0.80524624025E+03  0.00000000000E+00 0.  1.
         -1   -1    0    0    0  501 -0.00000000000E+00 -0.00000000000E+00 -0.59550307966E+02  0.59550307966E+02  0.00000000000E+00 0. -1.
          6    2    1    2  502    0  0.14116482969E+02  0.25264585280E+01  0.63920541542E+03  0.66260048378E+03  0.17392578855E+03 0.  0.
         24    2    3    3    0    0 -0.38367548635E+02  0.40061909424E+02  0.25745063954E+03  0.27540249495E+03  0.80552324927E+02 0.  0.
         -6    2    1    2    0  501 -0.14116482969E+02 -0.25264585280E+01  0.10649051687E+03  0.20219606444E+03  0.17128152325E+03 0.  0.
        -24    2    5    5    0    0 -0.33980800329E+02 -0.56525352134E+02  0.29690166621E+02  0.10611872365E+03  0.77652220124E+02 0.  0.
          5    1    3    3  502    0  0.52484031604E+02 -0.37535450896E+02  0.38175477588E+03  0.38719798883E+03  0.47000000000E+01 0. -1.
        -11    1    4    4    0    0 -0.56057125851E+02  0.66409621982E+01  0.18841127543E+03  0.19668582167E+03  0.00000000000E+00 0.  1.
         12    1    4    4    0    0  0.17689577216E+02  0.33420947225E+02  0.69039364110E+02  0.78716673280E+02  0.00000000000E+00 0. -1.
         -5    1    5    5    0  501  0.19864317360E+02  0.53998893606E+02  0.76800350244E+02  0.96077340786E+02  0.47000000000E+01 0.  1.
         13    1    6    6    0    0 -0.30519483895E+02 -0.66277171636E+02 -0.17828576895E+01  0.72988224795E+02  0.00000000000E+00 0. -1.
        -14    1    6    6    0    0 -0.34613164340E+01  0.97518195016E+01  0.31473024311E+02  0.33130498854E+02  0.00000000000E+00 0.  1.
<mgrwt>
<rscale>  2 0.17319341E+03</rscale>
<asrwt>0</asrwt>
<pdfrwt beam="1">  1        1 0.12388403E+00 0.17319341E+03</pdfrwt>
<pdfrwt beam="2">  1       -1 0.91615864E-02 0.17319341E+03</pdfrwt>
<totfact> 0.15868508E+03</totfact>
</mgrwt>
</event>
<event>
12    1  0.4404304E-002  0.2030895E+03  0.7546771E-02  0.1147158E+00
         -2   -1    0    0    0  501 -0.00000000000E+00  0.00000000000E+00  0.33744118284E+02  0.33744118284E+02  0.00000000000E+00 0.  1.
          2   -1    0    0  502    0  0.00000000000E+00 -0.00000000000E+00 -0.25631221089E+04  0.25631221089E+04  0.00000000000E+00 0. -1.
          6    2    1    2  502    0  0.10638805352E+03  0.11017862783E+01 -0.32637034747E+03  0.38454194376E+03  0.17330686928E+03 0.  0.
         24    2    3    3    0    0  0.12647897369E+03  0.22269442130E+02 -0.32224932643E+03  0.35469587967E+03  0.73970803906E+02 0.  0.
         -6    2    1    2    0  501 -0.10638805352E+03 -0.11017862783E+01 -0.22030076432E+04  0.22123242834E+04  0.17267433911E+03 0.  0.
        -24    2    5    5    0    0 -0.10865069796E+03 -0.32757732032E+02 -0.10694614016E+04  0.10783241114E+04  0.78467550609E+02 0.  0.
          5    1    3    3  502    0 -0.20090920171E+02 -0.21167655852E+02 -0.41210210391E+01  0.29846064095E+02  0.47000000000E+01 0. -1.
        -13    1    4    4    0    0  0.10593837718E+03  0.17491827850E+02 -0.17052868683E+03  0.20151659196E+03  0.00000000000E+00 0.  1.
         14    1    4    4    0    0  0.20540596504E+02  0.47776142797E+01 -0.15172063960E+03  0.15317928771E+03  0.00000000000E+00 0. -1.
         -5    1    5    5    0  501  0.22626444442E+01  0.31655945753E+02 -0.11335462416E+04  0.11340001720E+04  0.47000000000E+01 0.  1.
         11    1    6    6    0    0  0.10098337695E+02  0.61791309568E+01 -0.13987735779E+03  0.14037746723E+03  0.00000000000E+00 0. -1.
        -12    1    6    6    0    0 -0.11874903566E+03 -0.38936862988E+02 -0.92958404383E+03  0.93794664417E+03  0.00000000000E+00 0.  1.
<mgrwt>
<rscale>  2 0.20308948E+03</rscale>
<asrwt>0</asrwt>
<pdfrwt beam="2">  1        2 0.39432658E+00 0.20308948E+03</pdfrwt>
<pdfrwt beam="1">  1       -2 0.51914015E-02 0.20308948E+03</pdfrwt>
<totfact> 0.69459323E+02</totfact>
</mgrwt>
</event>
<event>
12    1  0.4404304E-002  0.1860593E+03  0.7546771E-02  0.1162064E+00
          1   -1    0    0  502    0  0.00000000000E+00  0.00000000000E+00  0.56230778917E+03  0.56230778917E+03  0.00000000000E+00 0.  1.
         -1   -1    0    0    0  501 -0.00000000000E+00 -0.00000000000E+00 -0.83335089481E+02  0.83335089481E+02  0.00000000000E+00 0. -1.
          6    2    1    2  502    0  0.17260950684E+02 -0.72382014314E+02  0.77003482331E+02  0.20377445934E+03  0.17337069411E+03 0.  0.
         24    2    3    3    0    0  0.21386182167E+02 -0.88021291594E+02  0.11155320847E+03  0.16533778279E+03  0.81776203978E+02 0.  0.
         -6    2    1    2    0  501 -0.17260950684E+02  0.72382014314E+02  0.40196921736E+03  0.44186841931E+03  0.16772403484E+03 0.  0.
        -24    2    5    5    0    0 -0.35848358921E+01  0.90663203171E+02  0.40037754641E+03  0.41850474241E+03  0.81310345531E+02 0.  0.
          5    1    3    3  502    0 -0.41252314833E+01  0.15639277280E+02 -0.34549726135E+02  0.38436676555E+02  0.47000000000E+01 0. -1.
        -11    1    4    4    0    0 -0.88575746302E+01  0.73716024370E+01  0.41786703611E+02  0.43346577137E+02  0.00000000000E+00 0.  1.
         12    1    4    4    0    0  0.30243756798E+02 -0.95392894031E+02  0.69766504856E+02  0.12199120565E+03  0.00000000000E+00 0. -1.
         -5    1    5    5    0  501 -0.13676114792E+02 -0.18281188857E+02  0.15916709464E+01  0.23363676899E+02  0.47000000000E+01 0.  1.
         13    1    6    6    0    0  0.23286567332E+02  0.15598094600E+02  0.21347100826E+03  0.21530312618E+03  0.00000000000E+00 0. -1.
        -14    1    6    6    0    0 -0.26871403224E+02  0.75065108571E+02  0.18690653815E+03  0.20320161623E+03  0.00000000000E+00 0.  1.
<mgrwt>
<rscale>  2 0.18605934E+03</rscale>
<asrwt>0</asrwt>
<pdfrwt beam="1">  1        1 0.86508888E-01 0.18605934E+03</pdfrwt>
<pdfrwt beam="2">  1       -1 0.12820783E-01 0.18605934E+03</pdfrwt>
<totfact> 0.15794505E+03</totfact>
</mgrwt>
</event>
<event>
12    1  0.4404304E-002  0.1962710E+03  0.7546771E-02  0.1152924E+00
          2   -1    0    0  502    0  0.00000000000E+00  0.00000000000E+00  0.92136491198E+03  0.92136491198E+03  0.00000000000E+00 0. -1.
         -2   -1    0    0    0  501 -0.00000000000E+00 -0.00000000000E+00 -0.48436903345E+02  0.48436903345E+02  0.00000000000E+00 0.  1.
          6    2    1    2  502    0  0.29067867470E+01  0.97640113898E+02  0.62032196330E+03  0.65136243030E+03  0.17300761894E+03 0.  0.
         24    2    3    3    0    0 -0.21887907778E+02  0.11640408390E+03  0.32810766152E+03  0.35746082839E+03  0.78068015396E+02 0.  0.
         -6    2    1    2    0  501 -0.29067867470E+01 -0.97640113898E+02  0.25260604533E+03  0.31843938502E+03  0.16748667571E+03 0.  0.
        -24    2    5    5    0    0  0.40275092539E+02 -0.28098184813E+01  0.93274813514E+02  0.12800306742E+03  0.77811414803E+02 0.  0.
          5    1    3    3  502    0  0.24794694525E+02 -0.18763969999E+02  0.29221430178E+03  0.29390160192E+03  0.47000000000E+01 0. -1.
        -13    1    4    4    0    0 -0.28911151779E+02  0.10245917973E+03  0.32438722969E+03  0.34141003646E+03  0.00000000000E+00 0.  1.
         14    1    4    4    0    0  0.70232440019E+01  0.13944904162E+02  0.37204318266E+01  0.16050791924E+02  0.00000000000E+00 0. -1.
         -5    1    5    5    0  501 -0.43181879286E+02 -0.94830295417E+02  0.15933123182E+03  0.19043631760E+03  0.47000000000E+01 0.  1.
         11    1    6    6    0    0  0.11474848978E+02 -0.12137337177E+02  0.96153515074E+02  0.97593470959E+02  0.00000000000E+00 0. -1.
        -12    1    6    6    0    0  0.28800243561E+02  0.93275186953E+01 -0.28787015596E+01  0.30409596460E+02  0.00000000000E+00 0.  1.
<mgrwt>
<rscale>  2 0.19627095E+03</rscale>
<asrwt>0</asrwt>
<pdfrwt beam="1">  1        2 0.14174843E+00 0.19627095E+03</pdfrwt>
<pdfrwt beam="2">  1       -2 0.74518320E-02 0.19627095E+03</pdfrwt>
<totfact> 0.30851572E+03</totfact>
</mgrwt>
</event>
<event>
12    1  0.4404304E-002  0.2134366E+03  0.7546771E-02  0.1138873E+00
          1   -1    0    0  502    0  0.00000000000E+00  0.00000000000E+00  0.53603484345E+03  0.53603484345E+03  0.00000000000E+00 0.  1.
         -1   -1    0    0    0  501 -0.00000000000E+00 -0.00000000000E+00 -0.90053898144E+02  0.90053898144E+02  0.00000000000E+00 0. -1.
          6    2    1    2  502    0 -0.30007272649E+02 -0.12245093697E+03  0.14843327858E+03  0.25973281662E+03  0.17185467542E+03 0.  0.
         24    2    3    3    0    0 -0.17114209736E+02 -0.19853199528E+02  0.11145234624E+02  0.87794967927E+02  0.83046339065E+02 0.  0.
         -6    2    1    2    0  501  0.30007272649E+02  0.12245093697E+03  0.29754766673E+03  0.36635592498E+03  0.17259021239E+03 0.  0.
        -24    2    5    5    0    0  0.26931965816E+02  0.70634571985E+02  0.65376000797E+02  0.12840600240E+03  0.80619516430E+02 0.  0.
          5    1    3    3  502    0 -0.12893062913E+02 -0.10259773745E+03  0.13728804395E+03  0.17193784869E+03  0.47000000000E+01 0. -1.
        -13    1    4    4    0    0  0.24598885973E+02  0.37209014395E+01  0.27578093764E+02  0.37141641782E+02  0.00000000000E+00 0.  1.
         14    1    4    4    0    0 -0.41713095708E+02 -0.23574100968E+02 -0.16432859140E+02  0.50653326145E+02  0.00000000000E+00 0. -1.
         -5    1    5    5    0  501  0.30753068326E+01  0.51816364989E+02  0.23217166594E+03  0.23794992258E+03  0.47000000000E+01 0.  1.
         13    1    6    6    0    0  0.36286981311E+02  0.66268386852E+02  0.80302228099E+02  0.11025738953E+03  0.00000000000E+00 0. -1.
        -14    1    6    6    0    0 -0.93550154946E+01  0.43661851335E+01 -0.14926227302E+02  0.18148612867E+02  0.00000000000E+00 0.  1.
<mgrwt>
<rscale>  2 0.21343664E+03</rscale>
<asrwt>0</asrwt>
<pdfrwt beam="1">  1        1 0.82466897E-01 0.21343664E+03</pdfrwt>
<pdfrwt beam="2">  1       -1 0.13854446E-01 0.21343664E+03</pdfrwt>
<totfact> 0.14948096E+03</totfact>
</mgrwt>
</event>
<event>
12    1  0.4404304E-002  0.2937074E+03  0.7546771E-02  0.1088429E+00
          2   -1    0    0  502    0  0.00000000000E+00  0.00000000000E+00  0.22595638797E+04  0.22595638797E+04  0.00000000000E+00 0.  1.
         -2   -1    0    0    0  501 -0.00000000000E+00 -0.00000000000E+00 -0.46927757768E+02  0.46927757768E+02  0.00000000000E+00 0. -1.
          6    2    1    2  502    0  0.11664818649E+03  0.20777851106E+03  0.60738098899E+03  0.67453276411E+03  0.17118433049E+03 0.  0.
         24    2    3    3    0    0  0.28623474614E+02  0.17569102036E+03  0.46174984227E+03  0.50130321162E+03  0.80033463091E+02 0.  0.
         -6    2    1    2    0  501 -0.11664818649E+03 -0.20777851106E+03  0.16052551330E+04  0.16319588734E+04  0.17224114900E+03 0.  0.
        -24    2    5    5    0    0 -0.12577431166E+03 -0.20436203603E+03  0.15998100560E+04  0.16198470063E+04  0.83241150323E+02 0.  0.
          5    1    3    3  502    0  0.88024711880E+02  0.32087490700E+02  0.14563114672E+03  0.17322955249E+03  0.47000000000E+01 0. -1.
        -13    1    4    4    0    0 -0.27201730403E+02  0.43680776411E+02  0.10853460195E+03  0.12011537863E+03  0.00000000000E+00 0.  1.
         14    1    4    4    0    0  0.55825205017E+02  0.13201024395E+03  0.35321524032E+03  0.38118783299E+03  0.00000000000E+00 0. -1.
         -5    1    5    5    0  501  0.91261251652E+01 -0.34164750277E+01  0.54450769510E+01  0.12111867121E+02  0.47000000000E+01 0.  1.
         13    1    6    6    0    0  0.11092946179E+02 -0.12772896009E+02  0.69507717606E+02  0.71536865560E+02  0.00000000000E+00 0. -1.
        -14    1    6    6    0    0 -0.13686725784E+03 -0.19158914002E+03  0.15303023384E+04  0.15483101407E+04  0.00000000000E+00 0.  1.
<mgrwt>
<rscale>  2 0.29370744E+03</rscale>
<asrwt>0</asrwt>
<pdfrwt beam="1">  1        2 0.34762513E+00 0.29370744E+03</pdfrwt>
<pdfrwt beam="2">  1       -2 0.72196568E-02 0.29370744E+03</pdfrwt>
<totfact> 0.59905229E+02</totfact>
</mgrwt>
</event>
<event>
12    1  0.4404304E-002  0.1815718E+03  0.7546771E-02  0.1166291E+00
         -2   -1    0    0    0  501 -0.00000000000E+00  0.00000000000E+00  0.16874202623E+03  0.16874202623E+03  0.00000000000E+00 0.  1.
          2   -1    0    0  502    0  0.00000000000E+00 -0.00000000000E+00 -0.20205568718E+03  0.20205568718E+03  0.00000000000E+00 0. -1.
          6    2    1    2  502    0  0.33514911779E+02  0.47805836758E+02  0.17094307593E+02  0.18182550037E+03  0.17134657830E+03 0.  0.
         24    2    3    3    0    0  0.56125288030E+01  0.91208666798E+02 -0.11172213996E+02  0.12280486946E+03  0.81275434283E+02 0.  0.
         -6    2    1    2    0  501 -0.33514911779E+02 -0.47805836758E+02 -0.50407968546E+02  0.18897221304E+03  0.17251343910E+03 0.  0.
        -24    2    5    5    0    0  0.18666035301E+02 -0.18298012797E+01 -0.85420178328E+02  0.11096841884E+03  0.68305300433E+02 0.  0.
          5    1    3    3  502    0  0.27902382976E+02 -0.43402830040E+02  0.28266521590E+02  0.59020630918E+02  0.47000000000E+01 0. -1.
        -13    1    4    4    0    0  0.40342819853E+02  0.47071617813E+02 -0.21663847491E+02  0.65670408902E+02  0.00000000000E+00 0.  1.
         14    1    4    4    0    0 -0.34730291049E+02  0.44137048985E+02  0.10491633494E+02  0.57134460555E+02  0.00000000000E+00 0. -1.
         -5    1    5    5    0  501 -0.52180947080E+02 -0.45976035478E+02  0.35012209782E+02  0.78003794204E+02  0.47000000000E+01 0.  1.
         11    1    6    6    0    0 -0.13819381492E+02 -0.24940074898E+02 -0.50390400304E+02  0.57897971324E+02  0.00000000000E+00 0. -1.
        -12    1    6    6    0    0  0.32485416793E+02  0.23110273618E+02 -0.35029778024E+02  0.53070447514E+02  0.00000000000E+00 0.  1.
<mgrwt>
<rscale>  2 0.18157176E+03</rscale>
<asrwt>0</asrwt>
<pdfrwt beam="2">  1        2 0.31085490E-01 0.18157176E+03</pdfrwt>
<pdfrwt beam="1">  1       -2 0.25960312E-01 0.18157176E+03</pdfrwt>
<totfact> 0.22034189E+03</totfact>
</mgrwt>
</event>
<event>
12    1  0.4404304E-002  0.2023606E+03  0.7546771E-02  0.1147763E+00
         -3   -1    0    0    0  501 -0.00000000000E+00  0.00000000000E+00  0.22968322849E+04  0.22968322849E+04  0.00000000000E+00 0.  1.
          3   -1    0    0  502    0  0.00000000000E+00 -0.00000000000E+00 -0.26145990249E+02  0.26145990249E+02  0.00000000000E+00 0. -1.
          6    2    1    2  502    0 -0.90785865466E+02 -0.65069452307E+02  0.18016797010E+04  0.18133473856E+04  0.17234526064E+03 0.  0.
         24    2    3    3    0    0  0.13022396051E+02 -0.55731227762E+02  0.71890003428E+03  0.72555271092E+03  0.79585956592E+02 0.  0.
         -6    2    1    2    0  501  0.90785865466E+02  0.65069452307E+02  0.46900659367E+03  0.50963088957E+03  0.16516764728E+03 0.  0.
        -24    2    5    5    0    0  0.10035924421E+03  0.42256588404E+02  0.46413281135E+03  0.48398093646E+03  0.83430708519E+02 0.  0.
          5    1    3    3  502    0 -0.10380826152E+03 -0.93382245450E+01  0.10827796667E+04  0.10877946747E+04  0.47000000000E+01 0. -1.
        -11    1    4    4    0    0 -0.27429841449E+02 -0.25574945920E+02  0.47557906174E+03  0.47705546641E+03  0.00000000000E+00 0.  1.
         12    1    4    4    0    0  0.40452237501E+02 -0.30156281842E+02  0.24332097254E+03  0.24849724451E+03  0.00000000000E+00 0. -1.
         -5    1    5    5    0  501 -0.95733787485E+01  0.22812863903E+02  0.48737823129E+01  0.25649953103E+02  0.47000000000E+01 0.  1.
         11    1    6    6    0    0  0.39347338404E+02 -0.24763368311E+02  0.15084069037E+03  0.15784280573E+03  0.00000000000E+00 0. -1.
        -12    1    6    6    0    0  0.61011905811E+02  0.67019956715E+02  0.31329212098E+03  0.32613813073E+03  0.00000000000E+00 0.  1.
<mgrwt>
<rscale>  2 0.20236061E+03</rscale>
<asrwt>0</asrwt>
<pdfrwt beam="2">  1        3 0.40224618E-02 0.20236061E+03</pdfrwt>
<pdfrwt beam="1">  1       -3 0.35335865E+00 0.20236061E+03</pdfrwt>
<totfact> 0.18262928E+01</totfact>
</mgrwt>
</event>
<event>
12    1  0.4404304E-002  0.2580247E+03  0.7546771E-02  0.1108336E+00
         -1   -1    0    0    0  501 -0.00000000000E+00  0.00000000000E+00  0.75537480286E+03  0.75537480286E+03  0.00000000000E+00 0. -1.
          1   -1    0    0  502    0  0.00000000000E+00 -0.00000000000E+00 -0.90268073006E+02  0.90268073006E+02  0.00000000000E+00 0.  1.
          6    2    1    2  502    0 -0.76429954870E+02  0.17522556473E+03  0.39800191758E+03  0.47453555412E+03  0.17387618925E+03 0.  0.
         24    2    3    3    0    0 -0.29405492612E+02  0.16533260340E+02  0.96623182964E+02  0.13066671400E+03  0.81238654402E+02 0.  0.
         -6    2    1    2    0  501  0.76429954870E+02 -0.17522556473E+03  0.26710481227E+03  0.37110732174E+03  0.17271400342E+03 0.  0.
        -24    2    5    5    0    0  0.90141177132E+02 -0.59263050470E+02  0.18408042165E+03  0.22775306904E+03  0.79676331852E+02 0.  0.
          5    1    3    3  502    0 -0.47024462258E+02  0.15869230439E+03  0.30137873462E+03  0.34386884012E+03  0.47000000000E+01 0. -1.
        -11    1    4    4    0    0 -0.56557962548E+02  0.14355356494E+02  0.50837597707E+02  0.77390831035E+02  0.00000000000E+00 0.  1.
         12    1    4    4    0    0  0.27152469935E+02  0.21779038458E+01  0.45785585257E+02  0.53275882969E+02  0.00000000000E+00 0. -1.
         -5    1    5    5    0  501 -0.13711222262E+02 -0.11596251426E+03  0.83024390621E+02  0.14335425270E+03  0.47000000000E+01 0.  1.
         13    1    6    6    0    0  0.65945988947E+02 -0.68491557276E+02  0.92760282684E+02  0.13283236398E+03  0.00000000000E+00 0. -1.
        -14    1    6    6    0    0  0.24195188185E+02  0.92285068064E+01  0.91320138963E+02  0.94920705061E+02  0.00000000000E+00 0.  1.
<mgrwt>
<rscale>  2 0.25802473E+03</rscale>
<asrwt>0</asrwt>
<pdfrwt beam="2">  1        1 0.13887396E-01 0.25802473E+03</pdfrwt>
<pdfrwt beam="1">  1       -1 0.11621150E+00 0.25802473E+03</pdfrwt>
<totfact> 0.29549636E+02</totfact>
</mgrwt>
</event>
<event>
12    1  0.4404304E-002  0.1843972E+03  0.7546771E-02  0.1163614E+00
          1   -1    0    0  502    0  0.00000000000E+00  0.00000000000E+00  0.12729871016E+04  0.12729871016E+04  0.00000000000E+00 0.  1.
         -1   -1    0    0    0  501 -0.00000000000E+00 -0.00000000000E+00 -0.27017241114E+02  0.27017241114E+02  0.00000000000E+00 0. -1.
          6    2    1    2  502    0  0.42735096535E+02 -0.47864601767E+02  0.55502235632E+03  0.58497209532E+03  0.17327789156E+03 0.  0.
         24    2    3    3    0    0  0.61594509994E+02  0.25214632378E+00  0.49891097448E+03  0.50854254544E+03  0.76872705304E+02 0.  0.
         -6    2    1    2    0  501 -0.42735096535E+02  0.47864601767E+02  0.69094750414E+03  0.71503224737E+03  0.17246841081E+03 0.  0.
        -24    2    5    5    0    0  0.23466415521E+02  0.74971628308E+02  0.44005132049E+03  0.45409467619E+03  0.79908651396E+02 0.  0.
          5    1    3    3  502    0 -0.18859413460E+02 -0.48116748091E+02  0.56111381839E+02  0.76429549880E+02  0.47000000000E+01 0. -1.
        -13    1    4    4    0    0  0.25837121870E+02  0.24778649338E+02  0.38495440702E+03  0.38661535641E+03  0.00000000000E+00 0.  1.
         14    1    4    4    0    0  0.35757388125E+02 -0.24526503014E+02  0.11395656747E+03  0.12192718903E+03  0.00000000000E+00 0. -1.
         -5    1    5    5    0  501 -0.66201512056E+02 -0.27107026541E+02  0.25089618365E+03  0.26093757118E+03  0.47000000000E+01 0.  1.
         13    1    6    6    0    0 -0.54774659395E+01  0.56619582760E+02  0.12680884762E+03  0.13898296162E+03  0.00000000000E+00 0. -1.
        -14    1    6    6    0    0  0.28943881460E+02  0.18352045548E+02  0.31324247287E+03  0.31511171457E+03  0.00000000000E+00 0.  1.
<mgrwt>
<rscale>  2 0.18439716E+03</rscale>
<asrwt>0</asrwt>
<pdfrwt beam="1">  1        1 0.19584412E+00 0.18439716E+03</pdfrwt>
<pdfrwt beam="2">  1       -1 0.41564996E-02 0.18439716E+03</pdfrwt>
<totfact> 0.23583794E+03</totfact>
</mgrwt>
</event>
<event>
12    1  0.4404304E-002  0.1732627E+03  0.7546771E-02  0.1174487E+00
         -3   -1    0    0    0  501 -0.00000000000E+00  0.00000000000E+00  0.99448459162E+02  0.99448459162E+02  0.00000000000E+00 0. -1.
          3   -1    0    0  502    0  0.00000000000E+00 -0.00000000000E+00 -0.46257180714E+03  0.46257180714E+03  0.00000000000E+00 0.  1.
          6    2    1    2  502    0  0.36548167683E+02 -0.27988703118E+02 -0.19706215313E+02  0.17966878470E+03  0.17254970649E+03 0.  0.
         24    2    3    3    0    0 -0.29770078120E+02  0.72674889066E+00  0.32166558714E+02  0.90587015546E+02  0.79275053900E+02 0.  0.
         -6    2    1    2    0  501 -0.36548167683E+02  0.27988703118E+02 -0.34341713266E+03  0.38235148160E+03  0.16167310355E+03 0.  0.
        -24    2    5    5    0    0  0.24389270244E+02  0.27050024426E+02 -0.28480373850E+03  0.29766457332E+03  0.78514256172E+02 0.  0.
          5    1    3    3  502    0  0.66318245802E+02 -0.28715452009E+02 -0.51872774027E+02  0.89081769154E+02  0.47000000000E+01 0. -1.
        -11    1    4    4    0    0 -0.15935623228E+02 -0.39020709147E+02  0.11441662328E+02  0.43674608948E+02  0.00000000000E+00 0.  1.
         12    1    4    4    0    0 -0.13834454892E+02  0.39747458037E+02  0.20724896385E+02  0.46912406597E+02  0.00000000000E+00 0. -1.
         -5    1    5    5    0  501 -0.60937437927E+02  0.93867869161E+00 -0.58613394165E+02  0.84686908282E+02  0.47000000000E+01 0.  1.
         11    1    6    6    0    0  0.98445840974E+01 -0.96691924208E+00  0.11636238913E+01  0.99601601107E+01  0.00000000000E+00 0. -1.
        -12    1    6    6    0    0  0.14544686147E+02  0.28016943668E+02 -0.28596736239E+03  0.28770441321E+03  0.00000000000E+00 0.  1.
<mgrwt>
<rscale>  2 0.17326269E+03</rscale>
<asrwt>0</asrwt>
<pdfrwt beam="2">  1        3 0.71164892E-01 0.17326269E+03</pdfrwt>
<pdfrwt beam="1">  1       -3 0.15299763E-01 0.17326269E+03</pdfrwt>
<totfact> 0.16597038E+02</totfact>
</mgrwt>
</event>
<event>
12    1  0.4404304E-002  0.3300911E+03  0.7546771E-02  0.1071097E+00
          2   -1    0    0  502    0  0.00000000000E+00  0.00000000000E+00  0.28084594249E+03  0.28084594249E+03  0.00000000000E+00 0. -1.
         -2   -1    0    0    0  501 -0.00000000000E+00 -0.00000000000E+00 -0.39355140862E+03  0.39355140862E+03  0.00000000000E+00 0.  1.
          6    2    1    2  502    0  0.25176970830E+03  0.12629851319E+03 -0.16027830998E+02  0.32936299145E+03  0.16995231189E+03 0.  0.
         24    2    3    3    0    0  0.19436911415E+03  0.14969277864E+03 -0.42757414460E+02  0.26169704361E+03  0.80435474955E+02 0.  0.
         -6    2    1    2    0  501 -0.25176970830E+03 -0.12629851319E+03 -0.96677635130E+02  0.34503435966E+03  0.17424937234E+03 0.  0.
        -24    2    5    5    0    0 -0.65605071394E+02 -0.97569499226E+02 -0.50639367932E+02  0.15106467047E+03  0.80201973217E+02 0.  0.
          5    1    3    3  502    0  0.57400594151E+02 -0.23394265447E+02  0.26729583462E+02  0.67665947837E+02  0.47000000000E+01 0. -1.
        -13    1    4    4    0    0  0.69007064146E+02  0.10488623292E+02 -0.22174466426E+02  0.73237238355E+02  0.00000000000E+00 0.  1.
         14    1    4    4    0    0  0.12536205000E+03  0.13920415535E+03 -0.20582948034E+02  0.18845980525E+03  0.00000000000E+00 0. -1.
         -5    1    5    5    0  501 -0.18616463690E+03 -0.28729013968E+02 -0.46038267198E+02  0.19396968919E+03  0.47000000000E+01 0.  1.
         11    1    6    6    0    0 -0.37845619842E+02 -0.22301380597E+02  0.16022905307E+02  0.46758699856E+02  0.00000000000E+00 0. -1.
        -12    1    6    6    0    0 -0.27759451552E+02 -0.75268118630E+02 -0.66662273239E+02  0.10430597061E+03  0.00000000000E+00 0.  1.
<mgrwt>
<rscale>  2 0.33009106E+03</rscale>
<asrwt>0</asrwt>
<pdfrwt beam="1">  1        2 0.43207068E-01 0.33009106E+03</pdfrwt>
<pdfrwt beam="2">  1       -2 0.60546371E-01 0.33009106E+03</pdfrwt>
<totfact> 0.30607040E+02</totfact>
</mgrwt>
</event>
<event>
12    1  0.4404304E-002  0.2153106E+03  0.7546771E-02  0.1137428E+00
         -2   -1    0    0    0  501 -0.00000000000E+00  0.00000000000E+00  0.64100252939E+03  0.64100252939E+03  0.00000000000E+00 0.  1.
          2   -1    0    0  502    0  0.00000000000E+00 -0.00000000000E+00 -0.15029518617E+03  0.15029518617E+03  0.00000000000E+00 0. -1.
          6    2    1    2  502    0  0.75727096010E+02  0.10952648447E+03 -0.39015868992E+02  0.21990043855E+03  0.17059695475E+03 0.  0.
         24    2    3    3    0    0  0.60759314556E+02  0.30703864046E+02 -0.75403105921E+02  0.13167821355E+03  0.83780080980E+02 0.  0.
         -6    2    1    2    0  501 -0.75727096010E+02 -0.10952648447E+03  0.52972321221E+03  0.57139727701E+03  0.16780203439E+03 0.  0.
        -24    2    5    5    0    0 -0.79989824799E+02 -0.13890104370E+03  0.41064635360E+03  0.44858675693E+03  0.83113048030E+02 0.  0.
          5    1    3    3  502    0  0.14967781454E+02  0.78822620428E+02  0.36387236929E+02  0.88222225001E+02  0.47000000000E+01 0. -1.
        -11    1    4    4    0    0  0.67167940412E+02  0.68893954328E+01 -0.19036373203E+02  0.70152544454E+02  0.00000000000E+00 0.  1.
         12    1    4    4    0    0 -0.64086258558E+01  0.23814468613E+02 -0.56366732718E+02  0.61525669098E+02  0.00000000000E+00 0. -1.
         -5    1    5    5    0  501  0.42627287884E+01  0.29374559222E+02  0.11907685861E+03  0.12281052008E+03  0.47000000000E+01 0.  1.
         13    1    6    6    0    0  0.94281511711E+01 -0.39822570112E+01  0.41382642767E+01  0.11039639334E+02  0.00000000000E+00 0. -1.
        -14    1    6    6    0    0 -0.89417975970E+02 -0.13491878668E+03  0.40650808933E+03  0.43754711759E+03  0.00000000000E+00 0.  1.
<mgrwt>
<rscale>  2 0.21531060E+03</rscale>
<asrwt>0</asrwt>
<pdfrwt beam="2">  1        2 0.23122337E-01 0.21531060E+03</pdfrwt>
<pdfrwt beam="1">  1       -2 0.98615772E-01 0.21531060E+03</pdfrwt>
<totfact> 0.20949859E+02</totfact>
</mgrwt>
</event>
<event>
12    1  0.4404304E-002  0.1842360E+03  0.7546771E-02  0.1163765E+00
          2   -1    0    0  502    0  0.00000000000E+00  0.00000000000E+00  0.37721753969E+04  0.37721753969E+04  0.00000000000E+00 0. -1.
         -2   -1    0    0    0  501 -0.00000000000E+00 -0.00000000000E+00 -0.92563180563E+01  0.92563180563E+01  0.00000000000E+00 0.  1.
          6    2    1    2  502    0 -0.62741745576E+02  0.12386888599E+02  0.21970250766E+04  0.22047350726E+04  0.17276455517E+03 0.  0.
         24    2    3    3    0    0 -0.43711176649E+02 -0.54100480366E+02  0.95835802078E+03  0.96413001943E+03  0.79114280871E+02 0.  0.
         -6    2    1    2    0  501  0.62741745576E+02 -0.12386888599E+02  0.15658940023E+04  0.15766966424E+04  0.17279558469E+03 0.  0.
        -24    2    5    5    0    0  0.14727266329E+02 -0.42293842809E+02  0.13517467635E+04  0.13551544432E+04  0.84962290916E+02 0.  0.
          5    1    3    3  502    0 -0.19030568927E+02  0.66487368966E+02  0.12386670558E+04  0.12406050532E+04  0.47000000000E+01 0. -1.
        -11    1    4    4    0    0 -0.65288334580E+02 -0.45308743109E+02  0.81800428347E+03  0.82185549619E+03  0.00000000000E+00 0.  1.
         12    1    4    4    0    0  0.21577157931E+02 -0.87917372575E+01  0.14035373730E+03  0.14227452324E+03  0.00000000000E+00 0. -1.
         -5    1    5    5    0  501  0.48014479247E+02  0.29906954210E+02  0.21414723880E+03  0.22154219917E+03  0.47000000000E+01 0.  1.
         11    1    6    6    0    0  0.19397223529E+02  0.17912721414E+02  0.18836109226E+03  0.19020257345E+03  0.00000000000E+00 0. -1.
        -12    1    6    6    0    0 -0.46699571995E+01 -0.60206564224E+02  0.11633856712E+04  0.11649518698E+04  0.00000000000E+00 0.  1.
<mgrwt>
<rscale>  2 0.18423603E+03</rscale>
<asrwt>0</asrwt>
<pdfrwt beam="1">  1        2 0.58033345E+00 0.18423603E+03</pdfrwt>
<pdfrwt beam="2">  1       -2 0.14240519E-02 0.18423603E+03</pdfrwt>
<totfact> 0.86080130E+02</totfact>
</mgrwt>
</event>
<event>
12    1  0.4404304E-002  0.2324504E+03  0.7546771E-02  0.1124927E+00
          2   -1    0    0  502    0  0.00000000000E+00  0.00000000000E+00  0.14724951232E+04  0.14724951232E+04  0.00000000000E+00 0.  1.
         -2   -1    0    0    0  501 -0.00000000000E+00 -0.00000000000E+00 -0.36894600660E+02  0.36894600660E+02  0.00000000000E+00 0. -1.
          6    2    1    2  502    0  0.52120855102E+02 -0.14700266828E+03  0.76994811915E+03  0.80396685840E+03  0.17092757301E+03 0.  0.
         24    2    3    3    0    0  0.50658731050E+01 -0.16270324569E+02  0.40919862280E+03  0.41735671092E+03  0.80328853573E+02 0.  0.
         -6    2    1    2    0  501 -0.52120855102E+02  0.14700266828E+03  0.66565240343E+03  0.70542286550E+03  0.17378702183E+03 0.  0.
        -24    2    5    5    0    0 -0.10025653881E+02  0.14845903753E+03  0.37151096358E+03  0.40824378882E+03  0.80634952043E+02 0.  0.
          5    1    3    3  502    0  0.47054981997E+02 -0.13073234371E+03  0.36074949635E+03  0.38661014748E+03  0.47000000000E+01 0. -1.
        -11    1    4    4    0    0  0.23061756410E+01 -0.38147201095E+02  0.95194664358E+02  0.10257948879E+03  0.00000000000E+00 0.  1.
         12    1    4    4    0    0  0.27596974640E+01  0.21876876526E+02  0.31400395844E+03  0.31477722214E+03  0.00000000000E+00 0. -1.
         -5    1    5    5    0  501 -0.42095201221E+02 -0.14563692508E+01  0.29414143985E+03  0.29717907668E+03  0.47000000000E+01 0.  1.
         11    1    6    6    0    0  0.22527023387E+00  0.57124809514E+02  0.57475082905E+02  0.81035052685E+02  0.00000000000E+00 0. -1.
        -12    1    6    6    0    0 -0.10250924115E+02  0.91334228012E+02  0.31403588068E+03  0.32720873614E+03  0.00000000000E+00 0.  1.
<mgrwt>
<rscale>  2 0.23245043E+03</rscale>
<asrwt>0</asrwt>
<pdfrwt beam="1">  1        2 0.22653767E+00 0.23245043E+03</pdfrwt>
<pdfrwt beam="2">  1       -2 0.56760936E-02 0.23245043E+03</pdfrwt>
<totfact> 0.22768108E+03</totfact>
</mgrwt>
</event>
<event>
12    1  0.4404304E-002  0.2078515E+03  0.7546771E-02  0.1143279E+00
         -2   -1    0    0    0  501 -0.00000000000E+00  0.00000000000E+00  0.25441470164E+03  0.25441470164E+03  0.00000000000E+00 0. -1.
          2   -1    0    0  502    0  0.00000000000E+00 -0.00000000000E+00 -0.16989661903E+03  0.16989661903E+03  0.00000000000E+00 0.  1.
          6    2    1    2  502    0 -0.30029475525E+02  0.11014356561E+03  0.47057523670E+02  0.21320811942E+03  0.17381000319E+03 0.  0.
         24    2    3    3    0    0 -0.52969368127E+02  0.85122955126E+01  0.54372125835E+02  0.10865790594E+03  0.77278711953E+02 0.  0.
         -6    2    1    2    0  501  0.30029475525E+02 -0.11014356561E+03  0.37460558933E+02  0.21110320125E+03  0.17357388529E+03 0.  0.
        -24    2    5    5    0    0  0.10346940788E+02 -0.13569669267E+03  0.62162708406E+02  0.17020514916E+03  0.81147636432E+02 0.  0.
          5    1    3    3  502    0  0.22939892602E+02  0.10163127010E+03 -0.73146021652E+01  0.10455021348E+03  0.47000000000E+01 0. -1.
        -11    1    4    4    0    0  0.15143532979E+02  0.69536310033E+01 -0.59161619091E+01  0.17682775432E+02  0.00000000000E+00 0.  1.
         12    1    4    4    0    0 -0.68112901107E+02  0.15586645093E+01  0.60288287744E+02  0.90975130510E+02  0.00000000000E+00 0. -1.
         -5    1    5    5    0  501  0.19682534737E+02  0.25553127057E+02 -0.24702149473E+02  0.40898052089E+02  0.47000000000E+01 0.  1.
         11    1    6    6    0    0  0.39630060662E+02 -0.56543587453E+02  0.49281737146E+02  0.84831648612E+02  0.00000000000E+00 0. -1.
        -12    1    6    6    0    0 -0.29283119874E+02 -0.79153105214E+02  0.12880971260E+02  0.85373500545E+02  0.00000000000E+00 0.  1.
<mgrwt>
<rscale>  2 0.20785153E+03</rscale>
<asrwt>0</asrwt>
<pdfrwt beam="2">  1        2 0.26137941E-01 0.20785153E+03</pdfrwt>
<pdfrwt beam="1">  1       -2 0.39140724E-01 0.20785153E+03</pdfrwt>
<totfact> 0.12623070E+03</totfact>
</mgrwt>
</event>
<event>
12    1  0.4404304E-002  0.2162301E+03  0.7546771E-02  0.1136725E+00
          1   -1    0    0  502    0  0.00000000000E+00  0.00000000000E+00  0.29304385183E+03  0.29304385183E+03  0.00000000000E+00 0.  1.
         -1   -1    0    0    0  501 -0.00000000000E+00 -0.00000000000E+00 -0.16434662668E+03  0.16434662668E+03  0.00000000000E+00 0. -1.
          6    2    1    2  502    0  0.11924621403E+03  0.54912443893E+02  0.25129761714E+02  0.21714621631E+03  0.17113134803E+03 0.  0.
         24    2    3    3    0    0  0.53697340935E+02  0.42605397464E+02  0.78840117690E+02  0.13138485849E+03  0.79671780239E+02 0.  0.
         -6    2    1    2    0  501 -0.11924621403E+03 -0.54912443893E+02  0.10356746343E+03  0.24024426220E+03  0.17249942024E+03 0.  0.
        -24    2    5    5    0    0 -0.94247321693E+02 -0.65206329387E+02  0.59457617385E+01  0.13883915711E+03  0.78144330727E+02 0.  0.
          5    1    3    3  502    0  0.65548873091E+02  0.12307046429E+02 -0.53710355976E+02  0.85761357816E+02  0.47000000000E+01 0. -1.
        -11    1    4    4    0    0 -0.11542902206E+02 -0.67986591875E+00 -0.83037031643E+01  0.14235599575E+02  0.00000000000E+00 0.  1.
         12    1    4    4    0    0  0.65240243142E+02  0.43285263383E+02  0.87143820855E+02  0.11714925892E+03  0.00000000000E+00 0. -1.
         -5    1    5    5    0  501 -0.24998892334E+02  0.10293885494E+02  0.97621701696E+02  0.10140510509E+03  0.47000000000E+01 0.  1.
         13    1    6    6    0    0 -0.95441527963E+02 -0.49253414225E+02  0.28564662916E+02  0.11113471123E+03  0.00000000000E+00 0. -1.
        -14    1    6    6    0    0  0.11942062704E+01 -0.15952915162E+02 -0.22618901178E+02  0.27704445875E+02  0.00000000000E+00 0.  1.
<mgrwt>
<rscale>  2 0.21623006E+03</rscale>
<asrwt>0</asrwt>
<pdfrwt beam="1">  1        1 0.45083669E-01 0.21623006E+03</pdfrwt>
<pdfrwt beam="2">  1       -1 0.25284096E-01 0.21623006E+03</pdfrwt>
<totfact> 0.12297231E+03</totfact>
</mgrwt>
</event>
<event>
12    1  0.4404304E-002  0.1750571E+03  0.7546771E-02  0.1172674E+00
          2   -1    0    0  502    0  0.00000000000E+00  0.00000000000E+00  0.51324571892E+03  0.51324571892E+03  0.00000000000E+00 0. -1.
         -2   -1    0    0    0  501 -0.00000000000E+00 -0.00000000000E+00 -0.68983972501E+02  0.68983972501E+02  0.00000000000E+00 0.  1.
          6    2    1    2  502    0  0.31121173278E+02  0.11211010701E+02  0.11653685091E+03  0.21116798107E+03  0.17296492252E+03 0.  0.
         24    2    3    3    0    0  0.18045132800E+02 -0.56221552542E+02  0.10008352739E+03  0.14038002111E+03  0.78761336231E+02 0.  0.
         -6    2    1    2    0  501 -0.31121173278E+02 -0.11211010701E+02  0.32772489551E+03  0.37106171035E+03  0.17084780234E+03 0.  0.
        -24    2    5    5    0    0  0.17429264155E+02 -0.39086483414E+02  0.95789100479E+02  0.13241869250E+03  0.80793724490E+02 0.  0.
          5    1    3    3  502    0  0.13076040478E+02  0.67432563243E+02  0.16453323520E+02  0.70787959958E+02  0.47000000000E+01 0. -1.
        -13    1    4    4    0    0  0.35981217044E+02 -0.22502288179E+01  0.17415660573E+02  0.40037691528E+02  0.00000000000E+00 0.  1.
         14    1    4    4    0    0 -0.17936084244E+02 -0.53971323724E+02  0.82667866812E+02  0.10034232958E+03  0.00000000000E+00 0. -1.
         -5    1    5    5    0  501 -0.48550437433E+02  0.27875472713E+02  0.23193579503E+03  0.23864301785E+03  0.47000000000E+01 0.  1.
         11    1    6    6    0    0 -0.28359453012E+02 -0.53930783794E+01  0.56080972120E+02  0.63074712076E+02  0.00000000000E+00 0. -1.
        -12    1    6    6    0    0  0.45788717167E+02 -0.33693405034E+02  0.39708128359E+02  0.69343980420E+02  0.00000000000E+00 0.  1.
<mgrwt>
<rscale>  2 0.17505705E+03</rscale>
<asrwt>0</asrwt>
<pdfrwt beam="1">  1        2 0.78960877E-01 0.17505705E+03</pdfrwt>
<pdfrwt beam="2">  1       -2 0.10612919E-01 0.17505705E+03</pdfrwt>
<totfact> 0.35755014E+03</totfact>
</mgrwt>
</event>
<event>
12    1  0.4404304E-002  0.1741631E+03  0.7546771E-02  0.1173575E+00
         -4   -1    0    0    0  501 -0.00000000000E+00  0.00000000000E+00  0.19507863779E+03  0.19507863779E+03  0.00000000000E+00 0. -1.
          4   -1    0    0  502    0  0.00000000000E+00 -0.00000000000E+00 -0.15551214388E+03  0.15551214388E+03  0.00000000000E+00 0.  1.
          6    2    1    2  502    0 -0.35296189847E+02 -0.14730922381E+02  0.18257252564E+02  0.17354596623E+03  0.16829157445E+03 0.  0.
         24    2    3    3    0    0 -0.39267439966E+02 -0.72457042426E+02  0.18592162089E+02  0.11549187139E+03  0.78744834926E+02 0.  0.
         -6    2    1    2    0  501  0.35296189847E+02  0.14730922381E+02  0.21309241346E+02  0.17704481544E+03  0.17154580092E+03 0.  0.
        -24    2    5    5    0    0  0.21840707507E+02  0.60368327582E+02 -0.29775786141E+02  0.10707630258E+03  0.80357859938E+02 0.  0.
          5    1    3    3  502    0  0.39712501193E+01  0.57726120045E+02 -0.33490952575E+00  0.58054094837E+02  0.47000000000E+01 0. -1.
        -11    1    4    4    0    0  0.19696695699E+02 -0.44562143096E+02  0.93639544980E+01  0.49612781242E+02  0.00000000000E+00 0.  1.
         12    1    4    4    0    0 -0.58964135666E+02 -0.27894899331E+02  0.92282075915E+01  0.65879090149E+02  0.00000000000E+00 0. -1.
         -5    1    5    5    0  501  0.13455482340E+02 -0.45637405201E+02  0.51085027487E+02  0.69968512860E+02  0.47000000000E+01 0.  1.
         11    1    6    6    0    0  0.24809260795E+02  0.60857137748E+02  0.10616809976E+02  0.66571820541E+02  0.00000000000E+00 0. -1.
        -12    1    6    6    0    0 -0.29685532877E+01 -0.48881016545E+00 -0.40392596117E+02  0.40504482037E+02  0.00000000000E+00 0.  1.
<mgrwt>
<rscale>  2 0.17416311E+03</rscale>
<asrwt>0</asrwt>
<pdfrwt beam="2">  1        4 0.23924945E-01 0.17416311E+03</pdfrwt>
<pdfrwt beam="1">  1       -4 0.30012098E-01 0.17416311E+03</pdfrwt>
<totfact> 0.30029984E+02</totfact>
</mgrwt>
</event>
<event>
12    1  0.4404304E-002  0.1786298E+03  0.7546771E-02  0.1169136E+00
          2   -1    0    0  502    0  0.00000000000E+00  0.00000000000E+00  0.17762573890E+03  0.17762573890E+03  0.00000000000E+00 0.  1.
         -2   -1    0    0    0  501 -0.00000000000E+00 -0.00000000000E+00 -0.20512918052E+03  0.20512918052E+03  0.00000000000E+00 0. -1.
          6    2    1    2  502    0  0.30440681954E+02  0.35092467237E+02  0.53745299335E+02  0.18600404414E+03  0.17190355104E+03 0.  0.
         24    2    3    3    0    0  0.29000664852E+02  0.89078833127E+02  0.44686646201E+02  0.13104268909E+03  0.79995080744E+02 0.  0.
         -6    2    1    2    0  501 -0.30440681954E+02 -0.35092467237E+02 -0.81248740958E+02  0.19675087529E+03  0.17306482209E+03 0.  0.
        -24    2    5    5    0    0 -0.18615871147E+02 -0.85884569377E+02 -0.79193295713E+02  0.14434878902E+03  0.82718104969E+02 0.  0.
          5    1    3    3  502    0  0.14400171024E+01 -0.53986365891E+02  0.90586531330E+01  0.54961355041E+02  0.47000000000E+01 0. -1.
        -13    1    4    4    0    0  0.44224579091E+02  0.47165169891E+02 -0.43006281129E+01  0.64798626905E+02  0.00000000000E+00 0.  1.
         14    1    4    4    0    0 -0.15223914239E+02  0.41913663236E+02  0.48987274314E+02  0.66244062189E+02  0.00000000000E+00 0. -1.
         -5    1    5    5    0  501 -0.11824810807E+02  0.50792102141E+02 -0.20554452445E+01  0.52402086272E+02  0.47000000000E+01 0. -1.
         13    1    6    6    0    0 -0.26532263012E+02 -0.55429294987E+02 -0.25588895583E+01  0.61505411462E+02  0.00000000000E+00 0. -1.
        -14    1    6    6    0    0  0.79163918650E+01 -0.30455274390E+02 -0.76634406155E+02  0.82843377557E+02  0.00000000000E+00 0.  1.
<mgrwt>
<rscale>  2 0.17862984E+03</rscale>
<asrwt>0</asrwt>
<pdfrwt beam="1">  1        2 0.27327037E-01 0.17862984E+03</pdfrwt>
<pdfrwt beam="2">  1       -2 0.31558335E-01 0.17862984E+03</pdfrwt>
<totfact> 0.17860293E+03</totfact>
</mgrwt>
</event>
<event>
11    1  0.4404304E-002  0.2949424E+03  0.7546771E-02  0.1087797E+00
         -3   -1    0    0    0  501 -0.00000000000E+00  0.00000000000E+00  0.48424835134E+03  0.48424835134E+03  0.00000000000E+00 0.  1.
          3   -1    0    0  502    0  0.00000000000E+00 -0.00000000000E+00 -0.18322300502E+03  0.18322300502E+03  0.00000000000E+00 0. -1.
          6    2    1    2  502    0  0.25911892065E+02  0.23758466374E+03  0.19753753706E+03  0.35560002467E+03  0.17410456743E+03 0.  0.
         -6    2    1    2    0  501 -0.25911892065E+02 -0.23758466374E+03  0.10348780926E+03  0.31187133169E+03  0.17156952604E+03 0.  0.
        -24    2    4    4    0    0  0.14052704623E+02 -0.22139756912E+03  0.43044313569E+02  0.23747578618E+03  0.72990232009E+02 0.  0.
          5    1    3    3  502    0  0.34356246884E+02  0.12507123330E+03  0.22026831586E+01  0.12980796167E+03  0.47000000000E+01 0. -1.
        -13    1    3    3    0    0 -0.55749246710E+01  0.22423846418E+02  0.38558603019E+02  0.44951913642E+02  0.00000000000E+00 0.  1.
         14    1    3    3    0    0 -0.28694301478E+01  0.90089584023E+02  0.15677625088E+03  0.18084014936E+03  0.00000000000E+00 0. -1.
         -5    1    4    4    0  501 -0.39964596688E+02 -0.16187094620E+02  0.60443495690E+02  0.74395545511E+02  0.47000000000E+01 0.  1.
         13    1    5    5    0    0 -0.11341651967E+02 -0.15465261768E+03  0.19434041906E+01  0.15508011492E+03  0.00000000000E+00 0. -1.
        -14    1    5    5    0    0  0.25394356590E+02 -0.66744951447E+02  0.41100909378E+02  0.82395671258E+02  0.00000000000E+00 0.  1.
<mgrwt>
<rscale>  2 0.29494245E+03</rscale>
<asrwt>0</asrwt>
<pdfrwt beam="2">  1        3 0.28188155E-01 0.29494245E+03</pdfrwt>
<pdfrwt beam="1">  1       -3 0.74499746E-01 0.29494245E+03</pdfrwt>
<totfact> 0.52624115E+01</totfact>
</mgrwt>
</event>
<event>
12    1  0.4404304E-002  0.2651538E+03  0.7546771E-02  0.1104086E+00
         -1   -1    0    0    0  501 -0.00000000000E+00  0.00000000000E+00  0.11838379584E+03  0.11838379584E+03  0.00000000000E+00 0.  1.
          1   -1    0    0  502    0  0.00000000000E+00 -0.00000000000E+00 -0.59436893106E+03  0.59436893106E+03  0.00000000000E+00 0. -1.
          6    2    1    2  502    0 -0.40094939600E+02  0.19738032294E+03 -0.24820132049E+03  0.36323975573E+03  0.17254746762E+03 0.  0.
         24    2    3    3    0    0 -0.19293130874E+01  0.20973679140E+02 -0.55489684359E+02  0.99164418516E+02  0.79440917440E+02 0.  0.
         -6    2    1    2    0  501  0.40094939600E+02 -0.19738032294E+03 -0.22778381472E+03  0.34951297117E+03  0.17235792615E+03 0.  0.
        -24    2    5    5    0    0  0.11948553463E+02 -0.84003569572E+02 -0.19659552929E+03  0.22851170505E+03  0.79802440919E+02 0.  0.
          5    1    3    3  502    0 -0.38165626512E+02  0.17640664380E+03 -0.19271163614E+03  0.26407533721E+03  0.47000000000E+01 0. -1.
        -13    1    4    4    0    0  0.22818936336E+01 -0.24963041941E+02 -0.45526543360E+02  0.51971402250E+02  0.00000000000E+00 0.  1.
         14    1    4    4    0    0 -0.42112067209E+01  0.45936721082E+02 -0.99631409992E+01  0.47193016267E+02  0.00000000000E+00 0. -1.
         -5    1    5    5    0  501  0.28146386137E+02 -0.11337675336E+03 -0.31188285433E+02  0.12100126613E+03  0.47000000000E+01 0.  1.
         11    1    6    6    0    0  0.39654108227E+01  0.12122579674E+02 -0.44399608742E+01  0.13505357215E+02  0.00000000000E+00 0. -1.
        -12    1    6    6    0    0  0.79831426401E+01 -0.96126149246E+02 -0.19215556841E+03  0.21500634783E+03  0.00000000000E+00 0.  1.
<mgrwt>
<rscale>  2 0.26515379E+03</rscale>
<asrwt>0</asrwt>
<pdfrwt beam="2">  1        1 0.91441376E-01 0.26515379E+03</pdfrwt>
<pdfrwt beam="1">  1       -1 0.18212891E-01 0.26515379E+03</pdfrwt>
<totfact> 0.83976605E+02</totfact>
</mgrwt>
</event>
<event>
12    1  0.4404304E-002  0.3154064E+03  0.7546771E-02  0.1077783E+00
         -1   -1    0    0    0  501 -0.00000000000E+00  0.00000000000E+00  0.69560588232E+02  0.69560588232E+02  0.00000000000E+00 0. -1.
          1   -1    0    0  502    0  0.00000000000E+00 -0.00000000000E+00 -0.14786529560E+04  0.14786529560E+04  0.00000000000E+00 0.  1.
          6    2    1    2  502    0  0.26154865283E+03  0.21788681104E+02 -0.84242242299E+03  0.89915623588E+03  0.17298541368E+03 0.  0.
         24    2    3    3    0    0  0.15249715615E+03  0.79820712220E+02 -0.53614999626E+03  0.56887630168E+03  0.80849857057E+02 0.  0.
         -6    2    1    2    0  501 -0.26154865283E+03 -0.21788681104E+02 -0.56666994479E+03  0.64905730836E+03  0.17685620937E+03 0.  0.
        -24    2    5    5    0    0 -0.11773541653E+03 -0.59580735462E+02 -0.38401428178E+03  0.41348212390E+03  0.78032082052E+02 0.  0.
          5    1    3    3  502    0  0.10905149668E+03 -0.58032031116E+02 -0.30627242673E+03  0.33027993420E+03  0.47000000000E+01 0. -1.
        -11    1    4    4    0    0  0.15594110873E+03  0.79055014701E+02 -0.45174239027E+03  0.48439499575E+03  0.00000000000E+00 0.  1.
         12    1    4    4    0    0 -0.34439525775E+01  0.76569751916E+00 -0.84407605994E+02  0.84481305931E+02  0.00000000000E+00 0. -1.
         -5    1    5    5    0  501 -0.14381323629E+03  0.37792054358E+02 -0.18265566301E+03  0.23557518446E+03  0.47000000000E+01 0.  1.
         13    1    6    6    0    0 -0.59075370673E+02 -0.11264492681E+02 -0.79829404185E+02  0.99947596209E+02  0.00000000000E+00 0. -1.
        -14    1    6    6    0    0 -0.58660045862E+02 -0.48316242781E+02 -0.30418487760E+03  0.31353452769E+03  0.00000000000E+00 0.  1.
<mgrwt>
<rscale>  2 0.31540637E+03</rscale>
<asrwt>0</asrwt>
<pdfrwt beam="2">  1        1 0.22748506E+00 0.31540637E+03</pdfrwt>
<pdfrwt beam="1">  1       -1 0.10701629E-01 0.31540637E+03</pdfrwt>
<totfact> 0.40429148E+02</totfact>
</mgrwt>
</event>
<event>
12    1  0.4404304E-002  0.3166090E+03  0.7546771E-02  0.1077221E+00
         -2   -1    0    0    0  501 -0.00000000000E+00  0.00000000000E+00  0.13228209009E+04  0.13228209009E+04  0.00000000000E+00 0. -1.
          2   -1    0    0  502    0  0.00000000000E+00 -0.00000000000E+00 -0.76465907732E+02  0.76465907732E+02  0.00000000000E+00 0.  1.
          6    2    1    2  502    0  0.24397162135E+03  0.10520200839E+03  0.68850364260E+03  0.75759694908E+03  0.17124910737E+03 0.  0.
         24    2    3    3    0    0  0.12731314137E+03  0.12417870196E+03  0.47610786302E+03  0.51448509614E+03  0.79920153513E+02 0.  0.
         -6    2    1    2    0  501 -0.24397162135E+03 -0.10520200839E+03  0.55785135059E+03  0.64168985958E+03  0.17314194160E+03 0.  0.
        -24    2    5    5    0    0 -0.25336403494E+03 -0.12580857459E+03  0.51415756083E+03  0.59225216883E+03  0.79896823966E+02 0.  0.
          5    1    3    3  502    0  0.11665847998E+03 -0.18976693570E+02  0.21239577959E+03  0.24311185293E+03  0.47000000000E+01 0. -1.
        -11    1    4    4    0    0  0.49344626965E+02  0.23152893775E+02  0.69516237113E+02  0.88337171807E+02  0.00000000000E+00 0.  1.
         12    1    4    4    0    0  0.77968514403E+02  0.10102580819E+03  0.40659162591E+03  0.42614792434E+03  0.00000000000E+00 0. -1.
         -5    1    5    5    0  501  0.93924135920E+01  0.20606566197E+02  0.43693789755E+02  0.49437690750E+02  0.47000000000E+01 0.  1.
         13    1    6    6    0    0 -0.25222948329E+02  0.39992944790E+01  0.89030509384E+02  0.92620856614E+02  0.00000000000E+00 0. -1.
        -14    1    6    6    0    0 -0.22814108661E+03 -0.12980786907E+03  0.42512705145E+03  0.49963131222E+03  0.00000000000E+00 0.  1.
<mgrwt>
<rscale>  2 0.31660903E+03</rscale>
<asrwt>0</asrwt>
<pdfrwt beam="2">  1        2 0.11763987E-01 0.31660903E+03</pdfrwt>
<pdfrwt beam="1">  1       -2 0.20351089E+00 0.31660903E+03</pdfrwt>
<totfact> 0.71496934E+01</totfact>
</mgrwt>
</event>
<event>
12    1  0.4404304E-002  0.1923027E+03  0.7546771E-02  0.1156401E+00
         -2   -1    0    0    0  501 -0.00000000000E+00  0.00000000000E+00  0.58327718172E+02  0.58327718172E+02  0.00000000000E+00 0.  1.
          2   -1    0    0  502    0  0.00000000000E+00 -0.00000000000E+00 -0.73866170085E+03  0.73866170085E+03  0.00000000000E+00 0. -1.
          6    2    1    2  502    0  0.28309717236E+02  0.80128604580E+02 -0.19099248884E+03  0.27141411788E+03  0.17310534142E+03 0.  0.
         24    2    3    3    0    0  0.16713360572E+02 -0.11239850530E+02 -0.13143103848E+03  0.16163102971E+03  0.91895599624E+02 0.  0.
         -6    2    1    2    0  501 -0.28309717236E+02 -0.80128604580E+02 -0.48934149384E+03  0.52557530114E+03  0.17190772588E+03 0.  0.
        -24    2    5    5    0    0  0.39066451023E+02 -0.39938081728E+02 -0.37410801631E+03  0.38609171602E+03  0.77387126463E+02 0.  0.
          5    1    3    3  502    0  0.11596356663E+02  0.91368455109E+02 -0.59561450362E+02  0.10978308816E+03  0.47000000000E+01 0. -1.
        -13    1    4    4    0    0  0.35081784929E+02  0.10373000871E+02 -0.11435610199E+02  0.38328891994E+02  0.00000000000E+00 0.  1.
         14    1    4    4    0    0 -0.18368424357E+02 -0.21612851400E+02 -0.11999542828E+03  0.12330213772E+03  0.00000000000E+00 0. -1.
         -5    1    5    5    0  501 -0.67376168259E+02 -0.40190522852E+02 -0.11523347752E+03  0.13948358512E+03  0.47000000000E+01 0.  1.
         11    1    6    6    0    0  0.43071167162E+01 -0.29453673317E+02 -0.31716761597E+03  0.31856140185E+03  0.00000000000E+00 0. -1.
        -12    1    6    6    0    0  0.34759334307E+02 -0.10484408411E+02 -0.56940400342E+02  0.67530314173E+02  0.00000000000E+00 0.  1.
<mgrwt>
<rscale>  2 0.19230268E+03</rscale>
<asrwt>0</asrwt>
<pdfrwt beam="2">  1        2 0.11364026E+00 0.19230268E+03</pdfrwt>
<pdfrwt beam="1">  1       -2 0.89734954E-02 0.19230268E+03</pdfrwt>
<totfact> 0.30620305E+03</totfact>
</mgrwt>
</event>
<event>
12    1  0.4404304E-002  0.4282032E+03  0.7546771E-02  0.1034429E+00
         -1   -1    0    0    0  501 -0.00000000000E+00  0.00000000000E+00  0.27939527691E+03  0.27939527691E+03  0.00000000000E+00 0.  1.
          1   -1    0    0  502    0  0.00000000000E+00 -0.00000000000E+00 -0.65813348201E+03  0.65813348201E+03  0.00000000000E+00 0. -1.
          6    2    1    2  502    0 -0.95422958083E+02 -0.37969767975E+03 -0.21437584288E+03  0.47895981466E+03  0.17369407911E+03 0.  0.
         24    2    3    3    0    0 -0.62026826623E+02 -0.93405042648E+02 -0.46909720036E+02  0.14557450012E+03  0.80122306745E+02 0.  0.
         -6    2    1    2    0  501  0.95422958083E+02  0.37969767975E+03 -0.16436236223E+03  0.45856894426E+03  0.17318955392E+03 0.  0.
        -24    2    5    5    0    0 -0.65295553292E+01  0.25634191194E+03 -0.11485842274E+03  0.29098705243E+03  0.75678243249E+02 0.  0.
          5    1    3    3  502    0 -0.33396131459E+02 -0.28629263710E+03 -0.16746612284E+03  0.33338531454E+03  0.47000000000E+01 0. -1.
        -13    1    4    4    0    0 -0.57782735115E+02 -0.10796603802E+03 -0.39316191209E+02  0.12861287935E+03  0.00000000000E+00 0.  1.
         14    1    4    4    0    0 -0.42440915086E+01  0.14560995375E+02 -0.75935288275E+01  0.16961620769E+02  0.00000000000E+00 0. -1.
         -5    1    5    5    0  501  0.10195251341E+03  0.12335576781E+03 -0.49503939488E+02  0.16758189183E+03  0.47000000000E+01 0.  1.
         11    1    6    6    0    0 -0.16586537445E+02  0.11560746303E+02 -0.19517133331E+02  0.28101291304E+02  0.00000000000E+00 0. -1.
        -12    1    6    6    0    0  0.10056982115E+02  0.24478116563E+03 -0.95341289409E+02  0.26288576113E+03  0.00000000000E+00 0.  1.
<mgrwt>
<rscale>  2 0.42820319E+03</rscale>
<asrwt>0</asrwt>
<pdfrwt beam="2">  1        1 0.10125130E+00 0.42820319E+03</pdfrwt>
<pdfrwt beam="1">  1       -1 0.42983889E-01 0.42820319E+03</pdfrwt>
<totfact> 0.16586947E+02</totfact>
</mgrwt>
</event>
<event>
12    1  0.4404304E-002  0.1836297E+03  0.7546771E-02  0.1164336E+00
         -1   -1    0    0    0  501 -0.00000000000E+00  0.00000000000E+00  0.12262120222E+04  0.12262120222E+04  0.00000000000E+00 0. -1.
          1   -1    0    0  502    0  0.00000000000E+00 -0.00000000000E+00 -0.27603599195E+02  0.27603599195E+02  0.00000000000E+00 0.  1.
          6    2    1    2  502    0 -0.21969608533E+01  0.59743228745E+02  0.63776163574E+03  0.66366333268E+03  0.17359445585E+03 0.  0.
         24    2    3    3    0    0  0.71434466871E+01  0.10886212659E+03  0.46743412522E+03  0.48608670083E+03  0.76704809939E+02 0.  0.
         -6    2    1    2    0  501  0.21969608533E+01 -0.59743228745E+02  0.56084678725E+03  0.59015228870E+03  0.17365634187E+03 0.  0.
        -24    2    5    5    0    0  0.81008527256E+01  0.29873167298E+02  0.19616266275E+03  0.21454271076E+03  0.81183462257E+02 0.  0.
          5    1    3    3  502    0 -0.93404075404E+01 -0.49118897847E+02  0.17032751052E+03  0.17757663185E+03  0.47000000000E+01 0. -1.
        -11    1    4    4    0    0 -0.12345800425E+02  0.19441026140E+02  0.23828381737E+02  0.33138558534E+02  0.00000000000E+00 0.  1.
         12    1    4    4    0    0  0.19489247112E+02  0.89421100451E+02  0.44360574348E+03  0.45294814230E+03  0.00000000000E+00 0. -1.
         -5    1    5    5    0  501 -0.59038918723E+01 -0.89616396042E+02  0.36468412450E+03  0.37560957794E+03  0.47000000000E+01 0.  1.
         13    1    6    6    0    0  0.32326073338E+02  0.16266168416E+02  0.32820924973E+02  0.48854645311E+02  0.00000000000E+00 0. -1.
        -14    1    6    6    0    0 -0.24225220612E+02  0.13606998882E+02  0.16334173778E+03  0.16568806545E+03  0.00000000000E+00 0.  1.
<mgrwt>
<rscale>  2 0.18362968E+03</rscale>
<asrwt>0</asrwt>
<pdfrwt beam="2">  1        1 0.42467085E-02 0.18362968E+03</pdfrwt>
<pdfrwt beam="1">  1       -1 0.18864796E+00 0.18362968E+03</pdfrwt>
<totfact> 0.41638283E+02</totfact>
</mgrwt>
</event>
<event>
12    1  0.4404304E-002  0.1896326E+03  0.7546771E-02  0.1158793E+00
          1   -1    0    0  502    0  0.00000000000E+00  0.00000000000E+00  0.72508070527E+03  0.72508070527E+03  0.00000000000E+00 0.  1.
         -1   -1    0    0    0  501 -0.00000000000E+00 -0.00000000000E+00 -0.92595029664E+02  0.92595029664E+02  0.00000000000E+00 0. -1.
          6    2    1    2  502    0 -0.74615488154E+02 -0.22415860522E+02  0.59487136848E+03  0.62437330868E+03  0.17291657432E+03 0.  0.
         24    2    3    3    0    0  0.25364334477E+02 -0.26596096759E+02  0.28067725496E+03  0.29459539813E+03  0.81584467428E+02 0.  0.
         -6    2    1    2    0  501  0.74615488154E+02  0.22415860522E+02  0.37614307124E+02  0.19330242626E+03  0.17286136069E+03 0.  0.
        -24    2    5    5    0    0  0.89958970558E+02  0.44149342187E+02 -0.19962300556E+02  0.12970272162E+03  0.79890686272E+02 0.  0.
          5    1    3    3  502    0 -0.99979822631E+02  0.41802362378E+01  0.31419411352E+03  0.32977791054E+03  0.47000000000E+01 0. -1.
        -13    1    4    4    0    0  0.11437498508E+02 -0.27128740222E+02  0.27900998524E+03  0.28055900766E+03  0.00000000000E+00 0.  1.
         14    1    4    4    0    0  0.13926835969E+02  0.53264346267E+00  0.16672697194E+01  0.14036390472E+02  0.00000000000E+00 0. -1.
         -5    1    5    5    0  501 -0.15343482404E+02 -0.21733481665E+02  0.57576607681E+02  0.63599704635E+02  0.47000000000E+01 0.  1.
         13    1    6    6    0    0  0.55277330729E+02 -0.15461857894E+02  0.16708356999E+01  0.57423375328E+02  0.00000000000E+00 0. -1.
        -14    1    6    6    0    0  0.34681639829E+02  0.59611200081E+02 -0.21633136256E+02  0.72279346294E+02  0.00000000000E+00 0.  1.
<mgrwt>
<rscale>  2 0.18963264E+03</rscale>
<asrwt>0</asrwt>
<pdfrwt beam="1">  1        1 0.11155087E+00 0.18963264E+03</pdfrwt>
<pdfrwt beam="2">  1       -1 0.14245390E-01 0.18963264E+03</pdfrwt>
<totfact> 0.93685450E+02</totfact>
</mgrwt>
</event>
<event>
12    1  0.4404304E-002  0.1640128E+03  0.7546771E-02  0.1184239E+00
          2   -1    0    0  502    0  0.00000000000E+00  0.00000000000E+00  0.26418484313E+04  0.26418484313E+04  0.00000000000E+00 0. -1.
         -2   -1    0    0    0  501 -0.00000000000E+00 -0.00000000000E+00 -0.22775450762E+02  0.22775450762E+02  0.00000000000E+00 0.  1.
          6    2    1    2  502    0  0.35275615296E+01  0.16950058550E+02  0.28175366553E+03  0.32072006321E+03  0.15223824333E+03 0.  0.
         24    2    3    3    0    0  0.21942772578E+02  0.32151496267E+02  0.91930751547E+02  0.12934338652E+03  0.82238948054E+02 0.  0.
         -6    2    1    2    0  501 -0.35275615296E+01 -0.16950058550E+02  0.23373193150E+04  0.23439038189E+04  0.17471057077E+03 0.  0.
        -24    2    5    5    0    0  0.12536321238E+02  0.45032761574E+02  0.80299424872E+03  0.80823607570E+03  0.79124469141E+02 0.  0.
          5    1    3    3  502    0 -0.18415211048E+02 -0.15201437718E+02  0.18982291398E+03  0.19137667668E+03  0.47000000000E+01 0. -1.
        -11    1    4    4    0    0  0.22082030994E+02 -0.19932603005E+02  0.84106417484E+01  0.30913810021E+02  0.00000000000E+00 0.  1.
         12    1    4    4    0    0 -0.13925841594E+00  0.52084099273E+02  0.83520109799E+02  0.98429576504E+02  0.00000000000E+00 0. -1.
         -5    1    5    5    0  501 -0.16063882767E+02 -0.61982820124E+02  0.15343250663E+04  0.15356677432E+04  0.47000000000E+01 0.  1.
         13    1    6    6    0    0  0.10109388855E+02  0.38888620940E+02  0.79995652400E+03  0.80096502100E+03  0.00000000000E+00 0. -1.
        -14    1    6    6    0    0  0.24269323830E+01  0.61441406337E+01  0.30377247236E+01  0.72710546975E+01  0.00000000000E+00 0.  1.
<mgrwt>
<rscale>  2 0.16401278E+03</rscale>
<asrwt>0</asrwt>
<pdfrwt beam="1">  1        2 0.40643798E+00 0.16401278E+03</pdfrwt>
<pdfrwt beam="2">  1       -2 0.35039176E-02 0.16401278E+03</pdfrwt>
<totfact> 0.11455713E+03</totfact>
</mgrwt>
</event>
<event>
12    1  0.4404304E-002  0.1949291E+03  0.7546771E-02  0.1154089E+00
         -2   -1    0    0    0  501 -0.00000000000E+00  0.00000000000E+00  0.92263079376E+02  0.92263079376E+02  0.00000000000E+00 0. -1.
          2   -1    0    0  502    0  0.00000000000E+00 -0.00000000000E+00 -0.41907855153E+03  0.41907855153E+03  0.00000000000E+00 0.  1.
          6    2    1    2  502    0  0.33770645112E+01 -0.88516972667E+02 -0.12988711717E+03  0.23432762333E+03  0.17375877772E+03 0.  0.
         24    2    3    3    0    0  0.28392827228E+02 -0.45303090191E+02 -0.15150689854E+03  0.17971322075E+03  0.80523156857E+02 0.  0.
         -6    2    1    2    0  501 -0.33770645112E+01  0.88516972667E+02 -0.19692835499E+03  0.27701400757E+03  0.17352038606E+03 0.  0.
        -24    2    5    5    0    0  0.59720493847E+02  0.53463399309E+02 -0.78304993991E+02  0.13807644372E+03  0.80675645489E+02 0.  0.
          5    1    3    3  502    0 -0.25015762716E+02 -0.43213882476E+02  0.21619781368E+02  0.54614402582E+02  0.47000000000E+01 0. -1.
        -11    1    4    4    0    0  0.36079828701E+02 -0.60934891526E+02 -0.83377236621E+02  0.10939185816E+03  0.00000000000E+00 0.  1.
         12    1    4    4    0    0 -0.76870014729E+01  0.15631801335E+02 -0.68129661914E+02  0.70321362594E+02  0.00000000000E+00 0. -1.
         -5    1    5    5    0  501 -0.63097558358E+02  0.35053573358E+02 -0.11862336100E+03  0.13893756386E+03  0.47000000000E+01 0.  1.
         11    1    6    6    0    0 -0.10429141394E+02 -0.33754901854E+01  0.76896628161E+01  0.13389990233E+02  0.00000000000E+00 0. -1.
        -12    1    6    6    0    0  0.70149635241E+02  0.56838889494E+02 -0.85994656807E+02  0.12468645349E+03  0.00000000000E+00 0.  1.
<mgrwt>
<rscale>  2 0.19492910E+03</rscale>
<asrwt>0</asrwt>
<pdfrwt beam="2">  1        2 0.64473623E-01 0.19492910E+03</pdfrwt>
<pdfrwt beam="1">  1       -2 0.14194320E-01 0.19492910E+03</pdfrwt>
<totfact> 0.28064357E+03</totfact>
</mgrwt>
</event>
<event>
12    1  0.4404304E-002  0.1827920E+03  0.7546771E-02  0.1165128E+00
         -2   -1    0    0    0  501 -0.00000000000E+00  0.00000000000E+00  0.20670174135E+02  0.20670174135E+02  0.00000000000E+00 0.  1.
          2   -1    0    0  502    0  0.00000000000E+00 -0.00000000000E+00 -0.17232892411E+04  0.17232892411E+04  0.00000000000E+00 0. -1.
          6    2    1    2  502    0  0.55061615828E+02  0.15453728428E+02 -0.10697297505E+04  0.10852865283E+04  0.17393823625E+03 0.  0.
         24    2    3    3    0    0 -0.20198493833E+02  0.53436496052E+02 -0.61958073509E+03  0.62728761906E+03  0.79661982569E+02 0.  0.
         -6    2    1    2    0  501 -0.55061615828E+02 -0.15453728428E+02 -0.63288931646E+03  0.65867288698E+03  0.17329306362E+03 0.  0.
        -24    2    5    5    0    0 -0.21855984329E+02 -0.45722339773E+02 -0.58494677096E+03  0.59279891287E+03  0.81728880104E+02 0.  0.
          5    1    3    3  502    0  0.75260109661E+02 -0.37982767624E+02 -0.45014901543E+03  0.45799890920E+03  0.47000000000E+01 0. -1.
        -11    1    4    4    0    0 -0.19830025778E+02 -0.17811880552E+02 -0.18305591594E+03  0.18498638159E+03  0.00000000000E+00 0.  1.
         12    1    4    4    0    0 -0.36846805516E+00  0.71248376605E+02 -0.43652481915E+03  0.44230123747E+03  0.00000000000E+00 0. -1.
         -5    1    5    5    0  501 -0.33205631499E+02  0.30268611344E+02 -0.47942545500E+02  0.65873974110E+02  0.47000000000E+01 0.  1.
         13    1    6    6    0    0 -0.44398149532E+02 -0.33874533451E+02 -0.52074567483E+03  0.52373155104E+03  0.00000000000E+00 0. -1.
        -14    1    6    6    0    0  0.22542165204E+02 -0.11847806321E+02 -0.64201096126E+02  0.69067361832E+02  0.00000000000E+00 0.  1.
<mgrwt>
<rscale>  2 0.18279198E+03</rscale>
<asrwt>0</asrwt>
<pdfrwt beam="2">  1        2 0.26512151E+00 0.18279198E+03</pdfrwt>
<pdfrwt beam="1">  1       -2 0.31800258E-02 0.18279198E+03</pdfrwt>
<totfact> 0.40180713E+03</totfact>
</mgrwt>
</event>
<event>
12    1  0.4404304E-002  0.1925412E+03  0.7546771E-02  0.1156189E+00
         -3   -1    0    0    0  501 -0.00000000000E+00  0.00000000000E+00  0.49708326361E+03  0.49708326361E+03  0.00000000000E+00 0. -1.
          3   -1    0    0  502    0  0.00000000000E+00 -0.00000000000E+00 -0.96932480098E+02  0.96932480098E+02  0.00000000000E+00 0.  1.
          6    2    1    2  502    0 -0.72387584802E+02 -0.38567886946E+02  0.56632981620E+02  0.19971223161E+03  0.17306136631E+03 0.  0.
         24    2    3    3    0    0  0.69657695241E+01 -0.53778740256E+02  0.67371994137E+02  0.11806824046E+03  0.80376918094E+02 0.  0.
         -6    2    1    2    0  501  0.72387584802E+02  0.38567886946E+02  0.34351780189E+03  0.39430351210E+03  0.17533777431E+03 0.  0.
        -24    2    5    5    0    0  0.56393818849E+02  0.56833988080E+02  0.35080489158E+03  0.36852284733E+03  0.79590527345E+02 0.  0.
          5    1    3    3  502    0 -0.79353354326E+02  0.15210853311E+02 -0.10739012517E+02  0.81643991151E+02  0.47000000000E+01 0. -1.
        -13    1    4    4    0    0 -0.29437100641E+02  0.25388010934E+01  0.16049808362E+02  0.33624169188E+02  0.00000000000E+00 0.  1.
         14    1    4    4    0    0  0.36402870165E+02 -0.56317541350E+02  0.51322185775E+02  0.84444071270E+02  0.00000000000E+00 0. -1.
         -5    1    5    5    0  501  0.15993765953E+02 -0.18266101134E+02 -0.72870896836E+01  0.25780664771E+02  0.47000000000E+01 0.  1.
         13    1    6    6    0    0  0.41762499883E+01  0.60168590340E+02  0.17540338516E+03  0.18548328187E+03  0.00000000000E+00 0. -1.
        -14    1    6    6    0    0  0.52217568861E+02 -0.33346022597E+01  0.17540150642E+03  0.18303956546E+03  0.00000000000E+00 0.  1.
<mgrwt>
<rscale>  2 0.19254119E+03</rscale>
<asrwt>0</asrwt>
<pdfrwt beam="2">  1        3 0.14912689E-01 0.19254119E+03</pdfrwt>
<pdfrwt beam="1">  1       -3 0.76474347E-01 0.19254119E+03</pdfrwt>
<totfact> 0.15005440E+02</totfact>
</mgrwt>
</event>
<event>
12    1  0.4404304E-002  0.1902302E+03  0.7546771E-02  0.1158254E+00
          2   -1    0    0  502    0  0.00000000000E+00  0.00000000000E+00  0.22330266312E+03  0.22330266312E+03  0.00000000000E+00 0. -1.
         -2   -1    0    0    0  501 -0.00000000000E+00 -0.00000000000E+00 -0.19312926174E+03  0.19312926174E+03  0.00000000000E+00 0.  1.
          6    2    1    2  502    0  0.67414812221E+02  0.45643304458E+02 -0.68440103922E+02  0.20204946444E+03  0.17179019212E+03 0.  0.
         24    2    3    3    0    0  0.51468395320E+02  0.55381252919E+02  0.18170581507E+02  0.11332169718E+03  0.82435175311E+02 0.  0.
         -6    2    1    2    0  501 -0.67414812221E+02 -0.45643304458E+02  0.98613505309E+02  0.21438246042E+03  0.17206727683E+03 0.  0.
        -24    2    5    5    0    0 -0.68703514734E+02  0.39499601269E+02  0.78972908231E+02  0.12686778620E+03  0.59819089793E+02 0.  0.
          5    1    3    3  502    0  0.15946416901E+02 -0.97379484611E+01 -0.86610685429E+02  0.88727767258E+02  0.47000000000E+01 0. -1.
        -11    1    4    4    0    0  0.31945033969E+02  0.44253303053E+02  0.50227307196E+02  0.74172922381E+02  0.00000000000E+00 0.  1.
         12    1    4    4    0    0  0.19523361351E+02  0.11127949866E+02 -0.32056725689E+02  0.39148774803E+02  0.00000000000E+00 0. -1.
         -5    1    5    5    0  501  0.12887025127E+01 -0.85142905727E+02  0.19640597078E+02  0.87514674217E+02  0.47000000000E+01 0.  1.
         13    1    6    6    0    0 -0.26632503127E+02  0.69231623487E+01  0.66854562143E+02  0.72296285376E+02  0.00000000000E+00 0. -1.
        -14    1    6    6    0    0 -0.42071011607E+02  0.32576438920E+02  0.12118346087E+02  0.54571500824E+02  0.00000000000E+00 0.  1.
<mgrwt>
<rscale>  2 0.19023024E+03</rscale>
<asrwt>0</asrwt>
<pdfrwt beam="1">  1        2 0.34354256E-01 0.19023024E+03</pdfrwt>
<pdfrwt beam="2">  1       -2 0.29712194E-01 0.19023024E+03</pdfrwt>
<totfact> 0.15553117E+03</totfact>
</mgrwt>
</event>
<event>
12    1  0.4404304E-002  0.3417066E+03  0.7546771E-02  0.1066071E+00
         -2   -1    0    0    0  501 -0.00000000000E+00  0.00000000000E+00  0.20255393423E+03  0.20255393423E+03  0.00000000000E+00 0.  1.
          2   -1    0    0  502    0  0.00000000000E+00 -0.00000000000E+00 -0.62508804713E+03  0.62508804713E+03  0.00000000000E+00 0. -1.
          6    2    1    2  502    0  0.24367783603E+03 -0.16766608725E+03 -0.94631839702E+02  0.35248090244E+03  0.16672371431E+03 0.  0.
         24    2    3    3    0    0  0.20711672436E+03 -0.78598211551E+02 -0.32324684178E+02  0.23770253776E+03  0.79891143948E+02 0.  0.
         -6    2    1    2    0  501 -0.24367783603E+03  0.16766608725E+03 -0.32790227320E+03  0.47516107892E+03  0.17540623013E+03 0.  0.
        -24    2    5    5    0    0 -0.51475968326E+02  0.92028799299E+02 -0.90472549877E+02  0.16042703120E+03  0.80202710950E+02 0.  0.
          5    1    3    3  502    0  0.36561111663E+02 -0.89067875702E+02 -0.62307155524E+02  0.11477836468E+03  0.47000000000E+01 0. -1.
        -13    1    4    4    0    0  0.21981601583E+02 -0.13162782707E+01  0.20671145501E+02  0.30202974240E+02  0.00000000000E+00 0.  1.
         14    1    4    4    0    0  0.18513512278E+03 -0.77281933280E+02 -0.52995829679E+02  0.20749956352E+03  0.00000000000E+00 0. -1.
         -5    1    5    5    0  501 -0.19220186770E+03  0.75637287954E+02 -0.23742972332E+03  0.31473404772E+03  0.47000000000E+01 0.  1.
         13    1    6    6    0    0 -0.67699118489E+02  0.89451804867E+02 -0.90283044485E+02  0.14399938944E+03  0.00000000000E+00 0. -1.
        -14    1    6    6    0    0  0.16223150163E+02  0.25769944318E+01 -0.18950539204E+00  0.16427641761E+02  0.00000000000E+00 0.  1.
<mgrwt>
<rscale>  2 0.34170664E+03</rscale>
<asrwt>0</asrwt>
<pdfrwt beam="2">  1        2 0.96167391E-01 0.34170664E+03</pdfrwt>
<pdfrwt beam="1">  1       -2 0.31162144E-01 0.34170664E+03</pdfrwt>
<totfact> 0.45957153E+02</totfact>
</mgrwt>
</event>
<event>
12    1  0.4404304E-002  0.1828784E+03  0.7546771E-02  0.1165046E+00
         -2   -1    0    0    0  501 -0.00000000000E+00  0.00000000000E+00  0.74823990335E+02  0.74823990335E+02  0.00000000000E+00 0. -1.
          2   -1    0    0  502    0  0.00000000000E+00 -0.00000000000E+00 -0.68672543545E+03  0.68672543545E+03  0.00000000000E+00 0.  1.
          6    2    1    2  502    0  0.51034500740E+02 -0.34391413292E+02 -0.53050784650E+03  0.56101669203E+03  0.17179599520E+03 0.  0.
         24    2    3    3    0    0  0.78963240903E+02 -0.58200052398E+02 -0.25732470115E+03  0.28533936847E+03  0.74700159730E+02 0.  0.
         -6    2    1    2    0  501 -0.51034500740E+02  0.34391413292E+02 -0.81393598617E+02  0.20053273375E+03  0.17263015333E+03 0.  0.
        -24    2    5    5    0    0  0.34206601387E+02  0.28303807021E+02 -0.67550600733E+02  0.11383311996E+03  0.80147978577E+02 0.  0.
          5    1    3    3  502    0 -0.27928740164E+02  0.23808639106E+02 -0.27318314534E+03  0.27567732355E+03  0.47000000000E+01 0. -1.
        -11    1    4    4    0    0  0.82949907047E+01 -0.50298940039E+02 -0.12754779608E+03  0.13735803772E+03  0.00000000000E+00 0.  1.
         12    1    4    4    0    0  0.70668250199E+02 -0.79011123596E+01 -0.12977690507E+03  0.14798133075E+03  0.00000000000E+00 0. -1.
         -5    1    5    5    0  501 -0.85241102126E+02  0.60876062715E+01 -0.13842997884E+02  0.86699613795E+02  0.47000000000E+01 0.  1.
         11    1    6    6    0    0  0.51351550916E+01  0.69884906687E+01  0.18557448982E+02  0.20483840762E+02  0.00000000000E+00 0. -1.
        -12    1    6    6    0    0  0.29071446295E+02  0.21315316352E+02 -0.86108049715E+02  0.93349279197E+02  0.00000000000E+00 0.  1.
<mgrwt>
<rscale>  2 0.18287837E+03</rscale>
<asrwt>0</asrwt>
<pdfrwt beam="2">  1        2 0.10565007E+00 0.18287837E+03</pdfrwt>
<pdfrwt beam="1">  1       -2 0.11511383E-01 0.18287837E+03</pdfrwt>
<totfact> 0.22503262E+03</totfact>
</mgrwt>
</event>
<event>
12    1  0.4404304E-002  0.2615697E+03  0.7546771E-02  0.1106204E+00
         -1   -1    0    0    0  501 -0.00000000000E+00  0.00000000000E+00  0.37709617359E+02  0.37709617359E+02  0.00000000000E+00 0. -1.
          1   -1    0    0  502    0  0.00000000000E+00 -0.00000000000E+00 -0.19711045238E+04  0.19711045238E+04  0.00000000000E+00 0.  1.
          6    2    1    2  502    0 -0.68131372483E+02 -0.18443100854E+03 -0.12459634926E+04  0.12728866893E+04  0.17075953305E+03 0.  0.
         24    2    3    3    0    0 -0.21387644971E+01 -0.13056542948E+03 -0.56504109596E+03  0.58664043238E+03  0.88451405253E+02 0.  0.
         -6    2    1    2    0  501  0.68131372483E+02  0.18443100854E+03 -0.68743141384E+03  0.73592745184E+03  0.17427158348E+03 0.  0.
        -24    2    5    5    0    0  0.46576651749E+02  0.89406794375E+02 -0.56288587849E+03  0.57772540495E+03  0.82238506513E+02 0.  0.
          5    1    3    3  502    0 -0.65992607986E+02 -0.53865579057E+02 -0.68092239663E+03  0.68624625693E+03  0.47000000000E+01 0. -1.
        -11    1    4    4    0    0  0.56163001310E+01 -0.11260366181E+03 -0.55135513258E+03  0.56276425767E+03  0.00000000000E+00 0.  1.
         12    1    4    4    0    0 -0.77550646281E+01 -0.17961767677E+02 -0.13685963373E+02  0.23876174713E+02  0.00000000000E+00 0. -1.
         -5    1    5    5    0  501  0.21554720734E+02  0.95024214166E+02 -0.12454553535E+03  0.15820204689E+03  0.47000000000E+01 0.  1.
         13    1    6    6    0    0  0.58242938091E+02  0.38655955583E+02 -0.41712301796E+03  0.42293987144E+03  0.00000000000E+00 0. -1.
        -14    1    6    6    0    0 -0.11666286342E+02  0.50750838791E+02 -0.14576286053E+03  0.15478553351E+03  0.00000000000E+00 0.  1.
<mgrwt>
<rscale>  2 0.26156968E+03</rscale>
<asrwt>0</asrwt>
<pdfrwt beam="2">  1        1 0.30324686E+00 0.26156968E+03</pdfrwt>
<pdfrwt beam="1">  1       -1 0.58014795E-02 0.26156968E+03</pdfrwt>
<totfact> 0.49602241E+02</totfact>
</mgrwt>
</event>
<event>
12    1  0.4404304E-002  0.2919823E+03  0.7546771E-02  0.1089319E+00
          3   -1    0    0  502    0  0.00000000000E+00  0.00000000000E+00  0.17586039812E+04  0.17586039812E+04  0.00000000000E+00 0. -1.
         -3   -1    0    0    0  501 -0.00000000000E+00 -0.00000000000E+00 -0.48478377798E+02  0.48478377798E+02  0.00000000000E+00 0.  1.
          6    2    1    2  502    0  0.23473351235E+03  0.23015293725E+02  0.85787524460E+03  0.90643781216E+03  0.17334949221E+03 0.  0.
         24    2    3    3    0    0  0.10893803954E+03  0.50315664629E+02  0.28829246223E+03  0.32247167684E+03  0.80475313097E+02 0.  0.
         -6    2    1    2    0  501 -0.23473351235E+03 -0.23015293725E+02  0.85225035885E+03  0.90064454688E+03  0.17088124563E+03 0.  0.
        -24    2    5    5    0    0 -0.67358043637E+02 -0.54655263070E+02  0.42716600762E+03  0.44267682876E+03  0.77250714098E+02 0.  0.
          5    1    3    3  502    0  0.12579547281E+03 -0.27300370904E+02  0.56958278237E+03  0.58396613532E+03  0.47000000000E+01 0. -1.
        -11    1    4    4    0    0 -0.12195134526E+02  0.12459766600E+01  0.13833347952E+02  0.18483378466E+02  0.00000000000E+00 0.  1.
         12    1    4    4    0    0  0.12113317407E+03  0.49069687969E+02  0.27445911428E+03  0.30398829837E+03  0.00000000000E+00 0. -1.
         -5    1    5    5    0  501 -0.16737546871E+03  0.31639969345E+02  0.42508435123E+03  0.45796771812E+03  0.47000000000E+01 0.  1.
         11    1    6    6    0    0 -0.82444865421E+02 -0.31234796251E+02  0.31530775645E+03  0.32740151131E+03  0.00000000000E+00 0. -1.
        -12    1    6    6    0    0  0.15086821784E+02 -0.23420466819E+02  0.11185825117E+03  0.11527531745E+03  0.00000000000E+00 0.  1.
<mgrwt>
<rscale>  2 0.29198235E+03</rscale>
<asrwt>0</asrwt>
<pdfrwt beam="1">  1        3 0.27055441E+00 0.29198235E+03</pdfrwt>
<pdfrwt beam="2">  1       -3 0.74582133E-02 0.29198235E+03</pdfrwt>
<totfact> 0.19082809E+01</totfact>
</mgrwt>
</event>
<event>
12    1  0.4404304E-002  0.1988213E+03  0.7546771E-02  0.1150737E+00
          1   -1    0    0  502    0  0.00000000000E+00  0.00000000000E+00  0.83747144671E+03  0.83747144671E+03  0.00000000000E+00 0.  1.
         -1   -1    0    0    0  501 -0.00000000000E+00 -0.00000000000E+00 -0.54463568527E+02  0.54463568527E+02  0.00000000000E+00 0. -1.
          6    2    1    2  502    0 -0.95468393391E+02  0.39009722283E+02  0.55263646389E+03  0.58697775860E+03  0.16881900161E+03 0.  0.
         24    2    3    3    0    0 -0.67030786678E+02  0.69608737218E+02  0.23859821708E+03  0.27013851285E+03  0.81897522983E+02 0.  0.
         -6    2    1    2    0  501  0.95468393391E+02 -0.39009722283E+02  0.23037141429E+03  0.30495725663E+03  0.17114896225E+03 0.  0.
        -24    2    5    5    0    0  0.93577302552E+02 -0.83324644315E+02  0.14071435287E+03  0.20481801756E+03  0.80313033255E+02 0.  0.
          5    1    3    3  502    0 -0.28437606713E+02 -0.30599014935E+02  0.31403824681E+03  0.31683924575E+03  0.47000000000E+01 0. -1.
        -13    1    4    4    0    0 -0.20560883747E+02  0.55569065046E+01  0.14934625027E+03  0.15085732206E+03  0.00000000000E+00 0.  1.
         14    1    4    4    0    0 -0.46469902932E+02  0.64051830714E+02  0.89251966817E+02  0.11928119079E+03  0.00000000000E+00 0. -1.
         -5    1    5    5    0  501  0.18910908394E+01  0.44314922032E+02  0.89657061421E+02  0.10013923907E+03  0.47000000000E+01 0.  1.
         11    1    6    6    0    0  0.30709486397E+02 -0.32879233050E+02  0.28013705632E+01  0.45077313559E+02  0.00000000000E+00 0. -1.
        -12    1    6    6    0    0  0.62867816154E+02 -0.50445411265E+02  0.13791298231E+03  0.15974070400E+03  0.00000000000E+00 0.  1.
<mgrwt>
<rscale>  2 0.19882128E+03</rscale>
<asrwt>0</asrwt>
<pdfrwt beam="1">  1        1 0.12884175E+00 0.19882128E+03</pdfrwt>
<pdfrwt beam="2">  1       -1 0.83790112E-02 0.19882128E+03</pdfrwt>
<totfact> 0.17144254E+03</totfact>
</mgrwt>
</event>
<event>
12    1  0.4404304E-002  0.1885145E+03  0.7546771E-02  0.1159808E+00
         -1   -1    0    0    0  501 -0.00000000000E+00  0.00000000000E+00  0.79405121998E+02  0.79405121998E+02  0.00000000000E+00 0. -1.
          1   -1    0    0  502    0  0.00000000000E+00 -0.00000000000E+00 -0.90987614721E+03  0.90987614721E+03  0.00000000000E+00 0.  1.
          6    2    1    2  502    0 -0.21409754923E+02  0.72196549574E+02 -0.62758137809E+02  0.19878729819E+03  0.17293665512E+03 0.  0.
         24    2    3    3    0    0  0.84817015811E+01  0.70290588513E+02 -0.10261224246E+03  0.14871164025E+03  0.81075110535E+02 0.  0.
         -6    2    1    2    0  501  0.21409754923E+02 -0.72196549574E+02 -0.76771288741E+03  0.79049397103E+03  0.17270472304E+03 0.  0.
        -24    2    5    5    0    0 -0.66276930802E+01  0.61140403920E+01 -0.57116870022E+03  0.57702183114E+03  0.81481296578E+02 0.  0.
          5    1    3    3  502    0 -0.29891456504E+02  0.19059610611E+01  0.39854104655E+02  0.50075657933E+02  0.47000000000E+01 0. -1.
        -11    1    4    4    0    0 -0.11470131241E+02 -0.12663469705E+02 -0.26518650083E+01  0.17290452963E+02  0.00000000000E+00 0.  1.
         12    1    4    4    0    0  0.19951832822E+02  0.82954058218E+02 -0.99960377456E+02  0.13142118729E+03  0.00000000000E+00 0. -1.
         -5    1    5    5    0  501  0.28037448003E+02 -0.78310589966E+02 -0.19654418719E+03  0.21347213989E+03  0.47000000000E+01 0.  1.
         13    1    6    6    0    0 -0.25882113368E+02  0.26424511121E+02 -0.13557913745E+03  0.14053412786E+03  0.00000000000E+00 0. -1.
        -14    1    6    6    0    0  0.19254420288E+02 -0.20310470729E+02 -0.43558956276E+03  0.43648770328E+03  0.00000000000E+00 0.  1.
<mgrwt>
<rscale>  2 0.18851446E+03</rscale>
<asrwt>0</asrwt>
<pdfrwt beam="2">  1        1 0.13998095E+00 0.18851446E+03</pdfrwt>
<pdfrwt beam="1">  1       -1 0.12216173E-01 0.18851446E+03</pdfrwt>
<totfact> 0.84042003E+02</totfact>
</mgrwt>
</event>
<event>
12    1  0.4404304E-002  0.1932234E+03  0.7546771E-02  0.1155586E+00
         -1   -1    0    0    0  501 -0.00000000000E+00  0.00000000000E+00  0.45009718226E+02  0.45009718226E+02  0.00000000000E+00 0. -1.
          1   -1    0    0  502    0  0.00000000000E+00 -0.00000000000E+00 -0.85445909312E+03  0.85445909312E+03  0.00000000000E+00 0.  1.
          6    2    1    2  502    0 -0.44286162412E+02 -0.48951454125E+02 -0.35006394321E+03  0.40457296996E+03  0.19177334185E+03 0.  0.
         24    2    3    3    0    0 -0.47220731037E+02 -0.10778351659E+03 -0.26020006145E+03  0.29702098015E+03  0.81671946131E+02 0.  0.
         -6    2    1    2    0  501  0.44286162412E+02  0.48951454125E+02 -0.45938543168E+03  0.49489584138E+03  0.17184123468E+03 0.  0.
        -24    2    5    5    0    0  0.30179318816E+02  0.98911161347E+02 -0.30121692606E+03  0.32835953437E+03  0.79963355022E+02 0.  0.
          5    1    3    3  502    0  0.29345686250E+01  0.58832062460E+02 -0.89863881763E+02  0.10755198981E+03  0.47000000000E+01 0. -1.
        -13    1    4    4    0    0  0.14469402650E+02 -0.63857003583E+02 -0.14577951428E+03  0.15980847069E+03  0.00000000000E+00 0.  1.
         14    1    4    4    0    0 -0.61690133688E+02 -0.43926513002E+02 -0.11442054717E+03  0.13721250946E+03  0.00000000000E+00 0. -1.
         -5    1    5    5    0  501  0.14106843597E+02 -0.49959707222E+02 -0.15816850562E+03  0.16653630701E+03  0.47000000000E+01 0.  1.
         13    1    6    6    0    0  0.12160336262E+02 -0.97534205447E+01 -0.76826572087E+02  0.78392124407E+02  0.00000000000E+00 0. -1.
        -14    1    6    6    0    0  0.18018982554E+02  0.10866458189E+03 -0.22439035397E+03  0.24996740996E+03  0.00000000000E+00 0.  1.
<mgrwt>
<rscale>  2 0.19322336E+03</rscale>
<asrwt>0</asrwt>
<pdfrwt beam="2">  1        1 0.13145524E+00 0.19322336E+03</pdfrwt>
<pdfrwt beam="1">  1       -1 0.69245721E-02 0.19322336E+03</pdfrwt>
<totfact> 0.22185217E+03</totfact>
</mgrwt>
</event>
<event>
12    1  0.4404304E-002  0.1795170E+03  0.7546771E-02  0.1168271E+00
         -2   -1    0    0    0  501 -0.00000000000E+00  0.00000000000E+00  0.27148227957E+02  0.27148227957E+02  0.00000000000E+00 0.  1.
          2   -1    0    0  502    0  0.00000000000E+00 -0.00000000000E+00 -0.22529026357E+04  0.22529026357E+04  0.00000000000E+00 0. -1.
          6    2    1    2  502    0  0.14303077595E+02 -0.45384784598E+02 -0.18980122813E+04  0.19065117719E+04  0.17341326302E+03 0.  0.
         24    2    3    3    0    0 -0.46116631645E+02 -0.65050124517E+02 -0.10468253733E+04  0.10529436673E+04  0.80552727583E+02 0.  0.
         -6    2    1    2    0  501 -0.14303077595E+02  0.45384784598E+02 -0.32774212642E+03  0.37353909172E+03  0.17277787737E+03 0.  0.
        -24    2    5    5    0    0 -0.42864422093E+02  0.12299117242E+01 -0.29608368692E+03  0.31197814639E+03  0.88464358926E+02 0.  0.
          5    1    3    3  502    0  0.60419709241E+02  0.19665339919E+02 -0.85118690799E+03  0.85356810460E+03  0.47000000000E+01 0. -1.
        -13    1    4    4    0    0  0.16123841175E+02  0.74096441126E+01 -0.15024306260E+03  0.15128733899E+03  0.00000000000E+00 0.  1.
         14    1    4    4    0    0 -0.62240472821E+02 -0.72459768630E+02 -0.89658231071E+03  0.90165632832E+03  0.00000000000E+00 0. -1.
         -5    1    5    5    0  501  0.28561344497E+02  0.44154872874E+02 -0.31658439497E+02  0.61560945325E+02  0.47000000000E+01 0.  1.
         13    1    6    6    0    0  0.47186659515E+00  0.38707955039E+02 -0.87741072891E+02  0.95901117373E+02  0.00000000000E+00 0. -1.
        -14    1    6    6    0    0 -0.43336288688E+02 -0.37478043315E+02 -0.20834261403E+03  0.21607702902E+03  0.00000000000E+00 0.  1.
<mgrwt>
<rscale>  2 0.17951698E+03</rscale>
<asrwt>0</asrwt>
<pdfrwt beam="2">  1        2 0.34660025E+00 0.17951698E+03</pdfrwt>
<pdfrwt beam="1">  1       -2 0.41766523E-02 0.17951698E+03</pdfrwt>
<totfact> 0.14206282E+03</totfact>
</mgrwt>
</event>
<event>
12    1  0.4404304E-002  0.1852887E+03  0.7546771E-02  0.1162781E+00
         -1   -1    0    0    0  501 -0.00000000000E+00  0.00000000000E+00  0.51969231819E+02  0.51969231819E+02  0.00000000000E+00 0.  1.
          1   -1    0    0  502    0  0.00000000000E+00 -0.00000000000E+00 -0.68015775602E+03  0.68015775602E+03  0.00000000000E+00 0. -1.
          6    2    1    2  502    0 -0.18571243320E+02 -0.55760595369E+02 -0.24712625290E+03  0.30699050087E+03  0.17238807289E+03 0.  0.
         24    2    3    3    0    0 -0.73966780597E+02 -0.18815024612E+02 -0.11786211264E+03  0.16150871951E+03  0.79802876510E+02 0.  0.
         -6    2    1    2    0  501  0.18571243320E+02  0.55760595369E+02 -0.38106227130E+03  0.42513648697E+03  0.17910455849E+03 0.  0.
        -24    2    5    5    0    0 -0.99205113602E+01  0.10205498293E+03 -0.30343360681E+03  0.33025102995E+03  0.80499397208E+02 0.  0.
          5    1    3    3  502    0  0.55395537277E+02 -0.36945570757E+02 -0.12926414027E+03  0.14548178136E+03  0.47000000000E+01 0. -1.
        -13    1    4    4    0    0 -0.89728049227E+02 -0.82856257192E+01 -0.10609910770E+03  0.13920055699E+03  0.00000000000E+00 0.  1.
         14    1    4    4    0    0  0.15761268630E+02 -0.10529398893E+02 -0.11763004942E+02  0.22308162522E+02  0.00000000000E+00 0. -1.
         -5    1    5    5    0  501  0.28491754680E+02 -0.46294387563E+02 -0.77628664482E+02  0.94885457019E+02  0.47000000000E+01 0.  1.
         13    1    6    6    0    0  0.65880890269E+00  0.37242196382E+01 -0.13409212295E+03  0.13414544823E+03  0.00000000000E+00 0. -1.
        -14    1    6    6    0    0 -0.10579320263E+02  0.98330763294E+02 -0.16934148386E+03  0.19610558172E+03  0.00000000000E+00 0.  1.
<mgrwt>
<rscale>  2 0.18528868E+03</rscale>
<asrwt>0</asrwt>
<pdfrwt beam="2">  1        1 0.10463966E+00 0.18528868E+03</pdfrwt>
<pdfrwt beam="1">  1       -1 0.79952664E-02 0.18528868E+03</pdfrwt>
<totfact> 0.25082967E+03</totfact>
</mgrwt>
</event>
<event>
12    1  0.4404304E-002  0.2622244E+03  0.7546771E-02  0.1105814E+00
          1   -1    0    0  502    0  0.00000000000E+00  0.00000000000E+00  0.23956814241E+04  0.23956814241E+04  0.00000000000E+00 0.  1.
         -1   -1    0    0    0  501 -0.00000000000E+00 -0.00000000000E+00 -0.29290666008E+02  0.29290666008E+02  0.00000000000E+00 0. -1.
          6    2    1    2  502    0  0.14649639597E+03  0.13259817086E+03  0.10072961064E+04  0.10406348302E+04  0.17097349162E+03 0.  0.
         24    2    3    3    0    0  0.13035782659E+03  0.10047434709E+03  0.50841427987E+03  0.54043730886E+03  0.80617290073E+02 0.  0.
         -6    2    1    2    0  501 -0.14649639597E+03 -0.13259817086E+03  0.13590946517E+04  0.13843372599E+04  0.17380422337E+03 0.  0.
        -24    2    5    5    0    0 -0.56213382377E+01 -0.67219145273E+02  0.64183062087E+03  0.65043673617E+03  0.81064103911E+02 0.  0.
          5    1    3    3  502    0  0.16138569382E+02  0.32123823770E+02  0.49888182653E+03  0.50019752130E+03  0.47000000000E+01 0. -1.
        -11    1    4    4    0    0  0.38880350726E+02  0.45098714471E+02  0.30364781000E+03  0.30943103955E+03  0.00000000000E+00 0.  1.
         12    1    4    4    0    0  0.91477475865E+02  0.55375632616E+02  0.20476646987E+03  0.23100626931E+03  0.00000000000E+00 0. -1.
         -5    1    5    5    0  501 -0.14087505774E+03 -0.65379025583E+02  0.71726403079E+03  0.73390052374E+03  0.47000000000E+01 0.  1.
         11    1    6    6    0    0 -0.38636859783E+01 -0.76747320085E+02  0.34527670365E+03  0.35372458396E+03  0.00000000000E+00 0. -1.
        -12    1    6    6    0    0 -0.17576522594E+01  0.95281748116E+01  0.29655391721E+03  0.29671215221E+03  0.00000000000E+00 0.  1.
<mgrwt>
<rscale>  2 0.26222444E+03</rscale>
<asrwt>0</asrwt>
<pdfrwt beam="1">  1        1 0.36856622E+00 0.26222444E+03</pdfrwt>
<pdfrwt beam="2">  1       -1 0.45062582E-02 0.26222444E+03</pdfrwt>
<totfact> 0.38306159E+02</totfact>
</mgrwt>
</event>
<event>
12    1  0.4404304E-002  0.1953823E+03  0.7546771E-02  0.1153694E+00
          3   -1    0    0  502    0  0.00000000000E+00  0.00000000000E+00  0.15840211428E+04  0.15840211428E+04  0.00000000000E+00 0.  1.
         -3   -1    0    0    0  501 -0.00000000000E+00 -0.00000000000E+00 -0.25090774172E+02  0.25090774172E+02  0.00000000000E+00 0. -1.
          6    2    1    2  502    0 -0.59064260908E+02  0.60965697366E+02  0.60787507509E+03  0.63754265836E+03  0.17246197014E+03 0.  0.
         24    2    3    3    0    0 -0.10212994641E+03  0.27218399979E+02  0.36060504100E+03  0.38424817933E+03  0.80245252036E+02 0.  0.
         -6    2    1    2    0  501  0.59064260908E+02 -0.60965697366E+02  0.95105529349E+03  0.97156925857E+03  0.17954177713E+03 0.  0.
        -24    2    5    5    0    0  0.71229163450E+02  0.43567149555E+01  0.33052456034E+03  0.34747352617E+03  0.79992447834E+02 0.  0.
          5    1    3    3  502    0  0.43065685501E+02  0.33747297387E+02  0.24727003409E+03  0.25329447903E+03  0.47000000000E+01 0. -1.
        -13    1    4    4    0    0 -0.38257253107E+02 -0.96228073253E+01  0.43674186113E+02  0.58852785565E+02  0.00000000000E+00 0.  1.
         14    1    4    4    0    0 -0.63872693302E+02  0.36841207304E+02  0.31693085489E+03  0.32539539377E+03  0.00000000000E+00 0. -1.
         -5    1    5    5    0  501 -0.12164902541E+02 -0.65322412321E+02  0.62053073315E+03  0.62409573239E+03  0.47000000000E+01 0.  1.
         11    1    6    6    0    0  0.13505148354E+02  0.28488567330E+02  0.43587151547E+02  0.53794305280E+02  0.00000000000E+00 0. -1.
        -12    1    6    6    0    0  0.57724015095E+02 -0.24131852375E+02  0.28693740880E+03  0.29367922089E+03  0.00000000000E+00 0.  1.
<mgrwt>
<rscale>  2 0.19538235E+03</rscale>
<asrwt>0</asrwt>
<pdfrwt beam="1">  1        3 0.24369548E+00 0.19538235E+03</pdfrwt>
<pdfrwt beam="2">  1       -3 0.38601203E-02 0.19538235E+03</pdfrwt>
<totfact> 0.75762827E+01</totfact>
</mgrwt>
</event>
<event>
12    1  0.4404304E-002  0.1990541E+03  0.7546771E-02  0.1150540E+00
          2   -1    0    0  502    0  0.00000000000E+00  0.00000000000E+00  0.78803983237E+03  0.78803983237E+03  0.00000000000E+00 0.  1.
         -2   -1    0    0    0  501 -0.00000000000E+00 -0.00000000000E+00 -0.66327625827E+02  0.66327625827E+02  0.00000000000E+00 0. -1.
          6    2    1    2  502    0  0.21522283342E+02  0.10431715283E+03  0.14587173840E+03  0.24388493071E+03  0.16387805926E+03 0.  0.
         24    2    3    3    0    0  0.75033400052E+02  0.62680223346E+02  0.10813808821E+03  0.16614824783E+03  0.79703027621E+02 0.  0.
         -6    2    1    2    0  501 -0.21522283342E+02 -0.10431715283E+03  0.57584046815E+03  0.61048252749E+03  0.17248592570E+03 0.  0.
        -24    2    5    5    0    0 -0.58757714517E+02 -0.11096571689E+03  0.33857674580E+03  0.37017679581E+03  0.81429650740E+02 0.  0.
          5    1    3    3  502    0 -0.53511116710E+02  0.41636929485E+02  0.37733650187E+02  0.77736682878E+02  0.47000000000E+01 0. -1.
        -11    1    4    4    0    0  0.33377340326E+02  0.53380322401E+02  0.10615632298E+03  0.12342070562E+03  0.00000000000E+00 0.  1.
         12    1    4    4    0    0  0.41656059726E+02  0.92999009459E+01  0.19817652285E+01  0.42727542206E+02  0.00000000000E+00 0. -1.
         -5    1    5    5    0  501  0.37235431175E+02  0.66485640538E+01  0.23726372234E+03  0.24030573168E+03  0.47000000000E+01 0.  1.
         11    1    6    6    0    0  0.52741859157E+01 -0.65417206054E+02  0.20446359330E+03  0.21473841964E+03  0.00000000000E+00 0. -1.
        -12    1    6    6    0    0 -0.64031900433E+02 -0.45548510832E+02  0.13411315250E+03  0.15543837617E+03  0.00000000000E+00 0.  1.
<mgrwt>
<rscale>  2 0.19905413E+03</rscale>
<asrwt>0</asrwt>
<pdfrwt beam="1">  1        2 0.12123689E+00 0.19905413E+03</pdfrwt>
<pdfrwt beam="2">  1       -2 0.10204251E-01 0.19905413E+03</pdfrwt>
<totfact> 0.23084050E+03</totfact>
</mgrwt>
</event>
<event>
12    1  0.4404304E-002  0.2384602E+03  0.7546771E-02  0.1120823E+00
          3   -1    0    0  502    0  0.00000000000E+00  0.00000000000E+00  0.84793306267E+03  0.84793306267E+03  0.00000000000E+00 0. -1.
         -3   -1    0    0    0  501 -0.00000000000E+00 -0.00000000000E+00 -0.70716618264E+02  0.70716618264E+02  0.00000000000E+00 0.  1.
          6    2    1    2  502    0 -0.13574535355E+03 -0.93981679590E+02  0.49160063029E+03  0.54598198411E+03  0.17077994663E+03 0.  0.
         24    2    3    3    0    0 -0.13572350056E+02 -0.53790548445E+02  0.13261499582E+03  0.16462343162E+03  0.80227833917E+02 0.  0.
         -6    2    1    2    0  501  0.13574535355E+03  0.93981679590E+02  0.28561581412E+03  0.37266769682E+03  0.17333626819E+03 0.  0.
        -24    2    5    5    0    0  0.73003773597E+02 -0.14514067525E+02  0.10364632898E+03  0.15166358709E+03  0.81969951945E+02 0.  0.
          5    1    3    3  502    0 -0.12217300349E+03 -0.40191131145E+02  0.35898563447E+03  0.38135855249E+03  0.47000000000E+01 0. -1.
        -11    1    4    4    0    0  0.85031790380E+01  0.19347048582E+02  0.29746384313E+02  0.36489172672E+02  0.00000000000E+00 0.  1.
         12    1    4    4    0    0 -0.22075529094E+02 -0.73137597027E+02  0.10286861150E+03  0.12813425895E+03  0.00000000000E+00 0. -1.
         -5    1    5    5    0  501  0.62741579949E+02  0.10849574711E+03  0.18196948514E+03  0.22100410974E+03  0.47000000000E+01 0.  1.
         11    1    6    6    0    0 -0.73718224168E+01 -0.92229855109E+01  0.57773356487E+02  0.58967516034E+02  0.00000000000E+00 0. -1.
        -12    1    6    6    0    0  0.80375596013E+02 -0.52910820139E+01  0.45872972492E+02  0.92696071053E+02  0.00000000000E+00 0.  1.
<mgrwt>
<rscale>  2 0.23846023E+03</rscale>
<asrwt>0</asrwt>
<pdfrwt beam="1">  1        3 0.13045123E+00 0.23846023E+03</pdfrwt>
<pdfrwt beam="2">  1       -3 0.10879480E-01 0.23846023E+03</pdfrwt>
<totfact> 0.76997643E+01</totfact>
</mgrwt>
</event>
<event>
12    1  0.4404304E-002  0.2152710E+03  0.7546771E-02  0.1137459E+00
         -1   -1    0    0    0  501 -0.00000000000E+00  0.00000000000E+00  0.21414429568E+03  0.21414429568E+03  0.00000000000E+00 0.  1.
          1   -1    0    0  502    0  0.00000000000E+00 -0.00000000000E+00 -0.22559228362E+03  0.22559228362E+03  0.00000000000E+00 0. -1.
          6    2    1    2  502    0 -0.99543783375E+02  0.66627054465E+02 -0.50096150594E+02  0.22095461259E+03  0.17878251404E+03 0.  0.
         24    2    3    3    0    0 -0.27232865243E+02  0.89977512332E+02 -0.70160674627E+02  0.14222223114E+03  0.80418039596E+02 0.  0.
         -6    2    1    2    0  501  0.99543783375E+02 -0.66627054465E+02  0.38648162656E+02  0.21878196671E+03  0.17895177922E+03 0.  0.
        -24    2    5    5    0    0 -0.10267773479E+02 -0.68511328504E+02  0.16552623388E+02  0.10665511283E+03  0.79385731999E+02 0.  0.
          5    1    3    3  502    0 -0.72310918132E+02 -0.23350457867E+02  0.20064524033E+02  0.78732381447E+02  0.47000000000E+01 0. -1.
        -13    1    4    4    0    0 -0.96419308765E+01  0.17087142377E+00  0.14592742047E+02  0.17491259203E+02  0.00000000000E+00 0.  1.
         14    1    4    4    0    0 -0.17590934367E+02  0.89806640908E+02 -0.84753416674E+02  0.12473097194E+03  0.00000000000E+00 0. -1.
         -5    1    5    5    0  501  0.10981155685E+03  0.18842740393E+01  0.22095539268E+02  0.11212685389E+03  0.47000000000E+01 0.  1.
         13    1    6    6    0    0  0.33677667061E+02 -0.41750919883E+02  0.12262209070E+02  0.55024415863E+02  0.00000000000E+00 0. -1.
        -14    1    6    6    0    0 -0.43945440540E+02 -0.26760408621E+02  0.42904143181E+01  0.51630696962E+02  0.00000000000E+00 0.  1.
<mgrwt>
<rscale>  2 0.21527095E+03</rscale>
<asrwt>0</asrwt>
<pdfrwt beam="2">  1        1 0.34706505E-01 0.21527095E+03</pdfrwt>
<pdfrwt beam="1">  1       -1 0.32945276E-01 0.21527095E+03</pdfrwt>
<totfact> 0.10911128E+03</totfact>
</mgrwt>
</event>
<event>
12    1  0.4404304E-002  0.2112759E+03  0.7546771E-02  0.1140560E+00
         -1   -1    0    0    0  501 -0.00000000000E+00  0.00000000000E+00  0.53906907037E+02  0.53906907037E+02  0.00000000000E+00 0.  1.
          1   -1    0    0  502    0  0.00000000000E+00 -0.00000000000E+00 -0.82807116391E+03  0.82807116391E+03  0.00000000000E+00 0. -1.
          6    2    1    2  502    0 -0.46412874070E+02 -0.11127172032E+03 -0.38854102876E+03  0.44208149211E+03  0.17302128195E+03 0.  0.
         24    2    3    3    0    0  0.15424773525E+02 -0.10779430485E+03 -0.25846383044E+03  0.29793519627E+03  0.10052011608E+03 0.  0.
         -6    2    1    2    0  501  0.46412874070E+02  0.11127172032E+03 -0.38562322811E+03  0.43989657884E+03  0.17397751405E+03 0.  0.
        -24    2    5    5    0    0 -0.21564131455E+02  0.15830802756E+02 -0.22622449134E+03  0.24200800082E+03  0.81698995710E+02 0.  0.
          5    1    3    3  502    0 -0.61837647595E+02 -0.34774154710E+01 -0.13007719832E+03  0.14414629583E+03  0.47000000000E+01 0. -1.
        -13    1    4    4    0    0  0.46998352002E+02 -0.39842864082E+02 -0.17620165534E+03  0.18666366077E+03  0.00000000000E+00 0.  1.
         14    1    4    4    0    0 -0.31573578477E+02 -0.67951440769E+02 -0.82262175105E+02  0.11127153550E+03  0.00000000000E+00 0. -1.
         -5    1    5    5    0  501  0.67977005525E+02  0.95440917566E+02 -0.15939873677E+03  0.19788857802E+03  0.47000000000E+01 0.  1.
         13    1    6    6    0    0  0.17719848749E+02 -0.21432574063E+02 -0.11485413087E+03  0.11817283804E+03  0.00000000000E+00 0. -1.
        -14    1    6    6    0    0 -0.39283980204E+02  0.37263376820E+02 -0.11137036046E+03  0.12383516279E+03  0.00000000000E+00 0.  1.
<mgrwt>
<rscale>  2 0.21127591E+03</rscale>
<asrwt>0</asrwt>
<pdfrwt beam="2">  1        1 0.12739557E+00 0.21127591E+03</pdfrwt>
<pdfrwt beam="1">  1       -1 0.82933697E-02 0.21127591E+03</pdfrwt>
<totfact> 0.17735148E+03</totfact>
</mgrwt>
</event>
<event>
12    1  0.4404304E-002  0.2102832E+03  0.7546771E-02  0.1141342E+00
          1   -1    0    0  502    0  0.00000000000E+00  0.00000000000E+00  0.32246989432E+03  0.32246989432E+03  0.00000000000E+00 0.  1.
         -1   -1    0    0    0  501 -0.00000000000E+00 -0.00000000000E+00 -0.21573467022E+03  0.21573467022E+03  0.00000000000E+00 0. -1.
          6    2    1    2  502    0  0.10861619636E+03  0.51743835008E+02  0.21577024560E+03  0.30113068723E+03  0.17218591503E+03 0.  0.
         24    2    3    3    0    0  0.57441517551E+01 -0.11287708014E+02  0.48477921048E+02  0.94819163485E+02  0.80499424242E+02 0.  0.
         -6    2    1    2    0  501 -0.10861619636E+03 -0.51743835008E+02 -0.10903502150E+03  0.23707387731E+03  0.17274398633E+03 0.  0.
        -24    2    5    5    0    0 -0.11469714512E+03 -0.35777349497E+02 -0.26215447791E+02  0.15237984926E+03  0.89982859049E+02 0.  0.
          5    1    3    3  502    0  0.10287204461E+03  0.63031543022E+02  0.16729232455E+03  0.20631152375E+03  0.47000000000E+01 0. -1.
        -13    1    4    4    0    0  0.75343936012E+01 -0.74047292704E+01  0.71057417390E+02  0.71838385760E+02  0.00000000000E+00 0.  1.
         14    1    4    4    0    0 -0.17902418461E+01 -0.38829787437E+01 -0.22579496342E+02  0.22980777725E+02  0.00000000000E+00 0. -1.
         -5    1    5    5    0  501  0.60809487539E+01 -0.15966485510E+02 -0.82819573711E+02  0.84694028048E+02  0.47000000000E+01 0.  1.
         13    1    6    6    0    0 -0.10031457542E+03 -0.60636758669E+02 -0.62148344149E+01  0.11738166258E+03  0.00000000000E+00 0. -1.
        -14    1    6    6    0    0 -0.14382569699E+02  0.24859409171E+02 -0.20000613376E+02  0.34998186680E+02  0.00000000000E+00 0.  1.
<mgrwt>
<rscale>  2 0.21028323E+03</rscale>
<asrwt>0</asrwt>
<pdfrwt beam="1">  1        1 0.49610753E-01 0.21028323E+03</pdfrwt>
<pdfrwt beam="2">  1       -1 0.33189949E-01 0.21028323E+03</pdfrwt>
<totfact> 0.68811019E+02</totfact>
</mgrwt>
</event>
<event>
12    1  0.4404304E-002  0.2300026E+03  0.7546771E-02  0.1126638E+00
         -2   -1    0    0    0  501 -0.00000000000E+00  0.00000000000E+00  0.86293407812E+03  0.86293407812E+03  0.00000000000E+00 0.  1.
          2   -1    0    0  502    0  0.00000000000E+00 -0.00000000000E+00 -0.97404883229E+02  0.97404883229E+02  0.00000000000E+00 0. -1.
          6    2    1    2  502    0  0.12131551864E+03 -0.92481337060E+02  0.90927750480E+02  0.24775519593E+03  0.17275569031E+03 0.  0.
         24    2    3    3    0    0  0.10828484328E+03 -0.12484268037E+03  0.10255339510E+03  0.21068363467E+03  0.80988227177E+02 0.  0.
         -6    2    1    2    0  501 -0.12131551864E+03  0.92481337060E+02  0.67460144441E+03  0.71258376543E+03  0.17151752440E+03 0.  0.
        -24    2    5    5    0    0  0.65325370080E+01  0.14187621726E+02  0.20902469357E+03  0.22344285309E+03  0.77404285573E+02 0.  0.
          5    1    3    3  502    0  0.13030675360E+02  0.32361343315E+02 -0.11625644624E+02  0.37071561262E+02  0.47000000000E+01 0. -1.
        -13    1    4    4    0    0 -0.49348322517E+00  0.23425117454E+01  0.26923882518E+02  0.27030100570E+02  0.00000000000E+00 0.  1.
         14    1    4    4    0    0  0.10877832650E+03 -0.12718519212E+03  0.75629512586E+02  0.18365353410E+03  0.00000000000E+00 0. -1.
         -5    1    5    5    0  501 -0.12784805565E+03  0.78293715335E+02  0.46557675084E+03  0.48914091233E+03  0.47000000000E+01 0.  1.
         11    1    6    6    0    0 -0.21353488960E+02  0.36243174660E+02  0.92524301571E+02  0.10163801248E+03  0.00000000000E+00 0. -1.
        -12    1    6    6    0    0  0.27886025968E+02 -0.22055552934E+02  0.11650039200E+03  0.12180484061E+03  0.00000000000E+00 0.  1.
<mgrwt>
<rscale>  2 0.23000265E+03</rscale>
<asrwt>0</asrwt>
<pdfrwt beam="2">  1        2 0.14985367E-01 0.23000265E+03</pdfrwt>
<pdfrwt beam="1">  1       -2 0.13275908E+00 0.23000265E+03</pdfrwt>
<totfact> 0.16947221E+02</totfact>
</mgrwt>
</event>
<event>
12    1  0.4404304E-002  0.2273638E+03  0.7546771E-02  0.1128509E+00
         -2   -1    0    0    0  501 -0.00000000000E+00  0.00000000000E+00  0.76730160352E+02  0.76730160352E+02  0.00000000000E+00 0.  1.
          2   -1    0    0  502    0  0.00000000000E+00 -0.00000000000E+00 -0.90983817920E+03  0.90983817920E+03  0.00000000000E+00 0. -1.
          6    2    1    2  502    0  0.13671226996E+03  0.56837409165E+02 -0.16485667749E+03  0.28060136576E+03  0.17215884095E+03 0.  0.
         24    2    3    3    0    0  0.88607154085E+02  0.75120892438E+02 -0.17718437322E+03  0.22747463035E+03  0.82801141918E+02 0.  0.
         -6    2    1    2    0  501 -0.13671226996E+03 -0.56837409165E+02 -0.66825134136E+03  0.70596697379E+03  0.17294154220E+03 0.  0.
        -24    2    5    5    0    0 -0.59226305815E+02  0.17602928844E+02 -0.46273559544E+03  0.47400954153E+03  0.82116963943E+02 0.  0.
          5    1    3    3  502    0  0.48105115874E+02 -0.18283483273E+02  0.12327695728E+02  0.53126735415E+02  0.47000000000E+01 0. -1.
        -13    1    4    4    0    0  0.51812416024E+02  0.66104147985E+02 -0.57112589033E+02  0.10156836447E+03  0.00000000000E+00 0.  1.
         14    1    4    4    0    0  0.36794738061E+02  0.90167444533E+01 -0.12007178419E+03  0.12590626588E+03  0.00000000000E+00 0. -1.
         -5    1    5    5    0  501 -0.77485964145E+02 -0.74440338009E+02 -0.20551574592E+03  0.23195743226E+03  0.47000000000E+01 0.  1.
         13    1    6    6    0    0 -0.71261522021E+02  0.21917295023E+02 -0.44937284272E+03  0.45551566836E+03  0.00000000000E+00 0. -1.
        -14    1    6    6    0    0  0.12035216206E+02 -0.43143661784E+01 -0.13362752717E+02  0.18493873170E+02  0.00000000000E+00 0.  1.
<mgrwt>
<rscale>  2 0.22736376E+03</rscale>
<asrwt>0</asrwt>
<pdfrwt beam="2">  1        2 0.13997510E+00 0.22736376E+03</pdfrwt>
<pdfrwt beam="1">  1       -2 0.11804640E-01 0.22736376E+03</pdfrwt>
<totfact> 0.15194924E+03</totfact>
</mgrwt>
</event>
<event>
12    1  0.4404304E-002  0.1736196E+03  0.7546771E-02  0.1174125E+00
          2   -1    0    0  502    0  0.00000000000E+00  0.00000000000E+00  0.63408288966E+02  0.63408288966E+02  0.00000000000E+00 0.  1.
         -2   -1    0    0    0  501 -0.00000000000E+00 -0.00000000000E+00 -0.56494495420E+03  0.56494495420E+03  0.00000000000E+00 0. -1.
          6    2    1    2  502    0  0.10878683177E+02 -0.13331169727E+02 -0.37612019613E+03  0.41435021794E+03  0.17298449449E+03 0.  0.
         24    2    3    3    0    0 -0.21841511193E+02 -0.15245460023E+02 -0.83601550551E+02  0.11996352728E+03  0.81808025035E+02 0.  0.
         -6    2    1    2    0  501 -0.10878683177E+02  0.13331169727E+02 -0.12541646910E+03  0.21400302523E+03  0.17254546719E+03 0.  0.
        -24    2    5    5    0    0  0.57265446511E+02  0.27116460540E+02 -0.65814155504E+02  0.12230688332E+03  0.81319350999E+02 0.  0.
          5    1    3    3  502    0  0.32720194370E+02  0.19142902952E+01 -0.29251864558E+03  0.29438669066E+03  0.47000000000E+01 0. -1.
        -11    1    4    4    0    0 -0.32882891104E+02 -0.35010105040E+02 -0.19248977854E+02  0.51744711137E+02  0.00000000000E+00 0.  1.
         12    1    4    4    0    0  0.11041379910E+02  0.19764645017E+02 -0.64352572697E+02  0.68218816141E+02  0.00000000000E+00 0. -1.
         -5    1    5    5    0  501 -0.68144129688E+02 -0.13785290812E+02 -0.59602313601E+02  0.91696141905E+02  0.47000000000E+01 0.  1.
         11    1    6    6    0    0  0.13929116564E+02 -0.18142637380E+02  0.91216220239E+01  0.24624775485E+02  0.00000000000E+00 0. -1.
        -12    1    6    6    0    0  0.43336329947E+02  0.45259097919E+02 -0.74935777527E+02  0.97682107836E+02  0.00000000000E+00 0.  1.
<mgrwt>
<rscale>  2 0.17361958E+03</rscale>
<asrwt>0</asrwt>
<pdfrwt beam="1">  1        2 0.97551216E-02 0.17361958E+03</pdfrwt>
<pdfrwt beam="2">  1       -2 0.86914606E-01 0.17361958E+03</pdfrwt>
<totfact> 0.77245701E+02</totfact>
</mgrwt>
</event>
<event>
12    1  0.4404304E-002  0.2289682E+03  0.7546771E-02  0.1127368E+00
          4   -1    0    0  502    0  0.00000000000E+00  0.00000000000E+00  0.51411105789E+03  0.51411105789E+03  0.00000000000E+00 0.  1.
         -4   -1    0    0    0  501 -0.00000000000E+00 -0.00000000000E+00 -0.34045603771E+03  0.34045603771E+03  0.00000000000E+00 0. -1.
          6    2    1    2  502    0 -0.12452771145E+03  0.83112044720E+02 -0.27087943950E+03  0.35414039418E+03  0.17211910164E+03 0.  0.
         24    2    3    3    0    0 -0.44022275455E+02 -0.28428927400E+02 -0.11170365919E+03  0.14370861729E+03  0.73676960840E+02 0.  0.
         -6    2    1    2    0  501  0.12452771145E+03 -0.83112044720E+02  0.44453445969E+03  0.50042670142E+03  0.17435949857E+03 0.  0.
        -24    2    5    5    0    0  0.66773331104E+02 -0.11496499807E+03  0.24475427017E+03  0.28998812793E+03  0.80702125408E+02 0.  0.
          5    1    3    3  502    0 -0.80505435995E+02  0.11154097212E+03 -0.15917578032E+03  0.21043177689E+03  0.47000000000E+01 0. -1.
        -13    1    4    4    0    0  0.75140249740E+01 -0.10153261412E+02 -0.78980646275E+02  0.79984322055E+02  0.00000000000E+00 0.  1.
         14    1    4    4    0    0 -0.51536300429E+02 -0.18275665988E+02 -0.32723012912E+02  0.63724295236E+02  0.00000000000E+00 0. -1.
         -5    1    5    5    0  501  0.57754380346E+02  0.31852953353E+02  0.19978018953E+03  0.21043857349E+03  0.47000000000E+01 0.  1.
         11    1    6    6    0    0 -0.15478930812E+02 -0.41447790722E+02  0.85298522624E+02  0.96090346116E+02  0.00000000000E+00 0. -1.
        -12    1    6    6    0    0  0.82252261916E+02 -0.73517207350E+02  0.15945574754E+03  0.19389778181E+03  0.00000000000E+00 0.  1.
<mgrwt>
<rscale>  2 0.22896820E+03</rscale>
<asrwt>0</asrwt>
<pdfrwt beam="1">  1        4 0.79094009E-01 0.22896820E+03</pdfrwt>
<pdfrwt beam="2">  1       -4 0.52377852E-01 0.22896820E+03</pdfrwt>
<totfact> 0.92170835E+00</totfact>
</mgrwt>
</event>
<event>
12    1  0.4404304E-002  0.1817563E+03  0.7546771E-02  0.1166114E+00
         -1   -1    0    0    0  501 -0.00000000000E+00  0.00000000000E+00  0.37477189517E+02  0.37477189517E+02  0.00000000000E+00 0.  1.
          1   -1    0    0  502    0  0.00000000000E+00 -0.00000000000E+00 -0.88926609922E+03  0.88926609922E+03  0.00000000000E+00 0. -1.
          6    2    1    2  502    0 -0.17518118588E+02 -0.46903076259E+02 -0.47592796296E+03  0.51061677132E+03  0.17808783841E+03 0.  0.
         24    2    3    3    0    0 -0.70940696207E+02  0.88602345756E+01 -0.28744585213E+03  0.30687400522E+03  0.80221263026E+02 0.  0.
         -6    2    1    2    0  501  0.17518118588E+02  0.46903076259E+02 -0.37586094674E+03  0.41612651741E+03  0.17141483065E+03 0.  0.
        -24    2    5    5    0    0  0.67576304708E+02  0.34320931738E+02 -0.32337864076E+03  0.34236599410E+03  0.83043634930E+02 0.  0.
          5    1    3    3  502    0  0.53422577619E+02 -0.55763310835E+02 -0.18848211083E+03  0.20374276610E+03  0.47000000000E+01 0. -1.
        -13    1    4    4    0    0 -0.64225046592E+02  0.34142031379E+02 -0.14697599862E+03  0.16398926515E+03  0.00000000000E+00 0.  1.
         14    1    4    4    0    0 -0.67156496155E+01 -0.25281796803E+02 -0.14046985351E+03  0.14288474007E+03  0.00000000000E+00 0. -1.
         -5    1    5    5    0  501 -0.50058186119E+02  0.12582144521E+02 -0.52482305988E+02  0.73760523318E+02  0.47000000000E+01 0.  1.
         11    1    6    6    0    0  0.21205201261E+02 -0.27567399524E+02 -0.88755631816E+02  0.95326723724E+02  0.00000000000E+00 0. -1.
        -12    1    6    6    0    0  0.46371103447E+02  0.61888331262E+02 -0.23462300894E+03  0.24703927037E+03  0.00000000000E+00 0.  1.
<mgrwt>
<rscale>  2 0.18175635E+03</rscale>
<asrwt>0</asrwt>
<pdfrwt beam="2">  1        1 0.13681017E+00 0.18175635E+03</pdfrwt>
<pdfrwt beam="1">  1       -1 0.57657214E-02 0.18175635E+03</pdfrwt>
<totfact> 0.27398945E+03</totfact>
</mgrwt>
</event>
<event>
12    1  0.4404304E-002  0.2431785E+03  0.7546771E-02  0.1117693E+00
          1   -1    0    0  502    0  0.00000000000E+00  0.00000000000E+00  0.10452277909E+04  0.10452277909E+04  0.00000000000E+00 0.  1.
         -1   -1    0    0    0  501 -0.00000000000E+00 -0.00000000000E+00 -0.59316018794E+02  0.59316018794E+02  0.00000000000E+00 0. -1.
          6    2    1    2  502    0  0.76445331153E+02 -0.15367651580E+03  0.61224689746E+03  0.65889069356E+03  0.17271456928E+03 0.  0.
         24    2    3    3    0    0  0.10524957346E+02 -0.82953473743E+02  0.48673930337E+03  0.50039308937E+03  0.80535960318E+02 0.  0.
         -6    2    1    2    0  501 -0.76445331153E+02  0.15367651580E+03  0.37366487459E+03  0.44565311609E+03  0.17181647537E+03 0.  0.
        -24    2    5    5    0    0 -0.93623429099E+02  0.46116355739E+02  0.17721182464E+03  0.22097520013E+03  0.80832812266E+02 0.  0.
          5    1    3    3  502    0  0.65920373807E+02 -0.70723042054E+02  0.12550759409E+03  0.15849760419E+03  0.47000000000E+01 0. -1.
        -11    1    4    4    0    0  0.26884813744E+02 -0.70924846519E+02  0.21669219290E+03  0.22958360901E+03  0.00000000000E+00 0.  1.
         12    1    4    4    0    0 -0.16359856397E+02 -0.12028627224E+02  0.27004711047E+03  0.27080948035E+03  0.00000000000E+00 0. -1.
         -5    1    5    5    0  501  0.17178097946E+02  0.10756016006E+03  0.19645304995E+03  0.22467791595E+03  0.47000000000E+01 0.  1.
         11    1    6    6    0    0 -0.20713359501E+02  0.38885995002E+02  0.12056473100E+03  0.12836283820E+03  0.00000000000E+00 0. -1.
        -12    1    6    6    0    0 -0.72910069598E+02  0.72303607362E+01  0.56647093635E+02  0.92612361931E+02  0.00000000000E+00 0.  1.
<mgrwt>
<rscale>  2 0.24317847E+03</rscale>
<asrwt>0</asrwt>
<pdfrwt beam="1">  1        1 0.16080426E+00 0.24317847E+03</pdfrwt>
<pdfrwt beam="2">  1       -1 0.91255421E-02 0.24317847E+03</pdfrwt>
<totfact> 0.10420145E+03</totfact>
</mgrwt>
</event>
<event>
12    1  0.4404304E-002  0.1833358E+03  0.7546771E-02  0.1164613E+00
         -2   -1    0    0    0  501 -0.00000000000E+00  0.00000000000E+00  0.15214840432E+03  0.15214840432E+03  0.00000000000E+00 0.  1.
          2   -1    0    0  502    0  0.00000000000E+00 -0.00000000000E+00 -0.35431624685E+03  0.35431624685E+03  0.00000000000E+00 0. -1.
          6    2    1    2  502    0 -0.16673379159E+02 -0.70294320682E+02  0.53480165189E+02  0.19319908852E+03  0.17101598359E+03 0.  0.
         24    2    3    3    0    0 -0.31317482007E+02  0.23636540505E+02  0.32275925671E+02  0.95684134764E+02  0.81081733709E+02 0.  0.
         -6    2    1    2    0  501  0.16673379159E+02  0.70294320682E+02 -0.25564800772E+03  0.31326556265E+03  0.16601239652E+03 0.  0.
        -24    2    5    5    0    0 -0.21243385176E+02 -0.12911152300E+02 -0.73833511620E+02  0.10969878554E+03  0.77229896041E+02 0.  0.
          5    1    3    3  502    0  0.14644102848E+02 -0.93930861187E+02  0.21204239518E+02  0.97514953752E+02  0.47000000000E+01 0. -1.
        -11    1    4    4    0    0 -0.48148015398E+02 -0.11226042055E+02  0.82529395153E+01  0.50123511625E+02  0.00000000000E+00 0.  1.
         12    1    4    4    0    0  0.16830533391E+02  0.34862582560E+02  0.24022986156E+02  0.45560623139E+02  0.00000000000E+00 0. -1.
         -5    1    5    5    0  501  0.37916764335E+02  0.83205472982E+02 -0.18181449610E+03  0.20356677711E+03  0.47000000000E+01 0.  1.
         13    1    6    6    0    0 -0.20320134839E+01 -0.34138411433E+02 -0.73500226928E+02  0.81066907999E+02  0.00000000000E+00 0. -1.
        -14    1    6    6    0    0 -0.19211371692E+02  0.21227259133E+02 -0.33328469140E+00  0.28631877537E+02  0.00000000000E+00 0.  1.
<mgrwt>
<rscale>  2 0.18333579E+03</rscale>
<asrwt>0</asrwt>
<pdfrwt beam="2">  1        2 0.54510191E-01 0.18333579E+03</pdfrwt>
<pdfrwt beam="1">  1       -2 0.23407447E-01 0.18333579E+03</pdfrwt>
<totfact> 0.14448171E+03</totfact>
</mgrwt>
</event>
<event>
12    1  0.4404304E-002  0.2107500E+03  0.7546771E-02  0.1140973E+00
          2   -1    0    0  502    0  0.00000000000E+00  0.00000000000E+00  0.19486874454E+04  0.19486874454E+04  0.00000000000E+00 0.  1.
         -2   -1    0    0    0  501 -0.00000000000E+00 -0.00000000000E+00 -0.22794405032E+02  0.22794405032E+02  0.00000000000E+00 0. -1.
          6    2    1    2  502    0  0.86419507066E+01 -0.12021115518E+03  0.95392322192E+03  0.97691886673E+03  0.17284546198E+03 0.  0.
         24    2    3    3    0    0  0.34661107410E+02 -0.31957465552E+02  0.71193416693E+03  0.71798547186E+03  0.80188576395E+02 0.  0.
         -6    2    1    2    0  501 -0.86419507066E+01  0.12021115518E+03  0.97196981848E+03  0.99456298372E+03  0.17293003042E+03 0.  0.
        -24    2    5    5    0    0  0.14620493800E+02  0.13763580260E+03  0.92941731027E+03  0.94281778475E+03  0.77016008822E+02 0.  0.
          5    1    3    3  502    0 -0.26019156703E+02 -0.88253689632E+02  0.24198905498E+03  0.25893339487E+03  0.47000000000E+01 0. -1.
        -13    1    4    4    0    0 -0.20787716566E+02 -0.15210434702E+02  0.39235252287E+03  0.39319713718E+03  0.00000000000E+00 0.  1.
         14    1    4    4    0    0  0.55448823975E+02 -0.16747030850E+02  0.31958164407E+03  0.32478833468E+03  0.00000000000E+00 0. -1.
         -5    1    5    5    0  501 -0.23262444506E+02 -0.17424647419E+02  0.42552508209E+02  0.51745198975E+02  0.47000000000E+01 0.  1.
         11    1    6    6    0    0  0.35480167267E+02  0.10375000783E+03  0.51784118241E+03  0.52932258273E+03  0.00000000000E+00 0. -1.
        -12    1    6    6    0    0 -0.20859673467E+02  0.33885794768E+02  0.41157612786E+03  0.41349520202E+03  0.00000000000E+00 0.  1.
<mgrwt>
<rscale>  2 0.21075004E+03</rscale>
<asrwt>0</asrwt>
<pdfrwt beam="1">  1        2 0.29979794E+00 0.21075004E+03</pdfrwt>
<pdfrwt beam="2">  1       -2 0.35068331E-02 0.21075004E+03</pdfrwt>
<totfact> 0.26537759E+03</totfact>
</mgrwt>
</event>
<event>
12    1  0.4404304E-002  0.1792549E+03  0.7546771E-02  0.1168526E+00
          2   -1    0    0  502    0  0.00000000000E+00  0.00000000000E+00  0.42516308591E+03  0.42516308591E+03  0.00000000000E+00 0. -1.
         -2   -1    0    0    0  501 -0.00000000000E+00 -0.00000000000E+00 -0.94218581722E+02  0.94218581722E+02  0.00000000000E+00 0.  1.
          6    2    1    2  502    0 -0.47114116918E+02 -0.37429462796E+01  0.50075490158E+02  0.18627077171E+03  0.17307656115E+03 0.  0.
         24    2    3    3    0    0 -0.63422655345E+02 -0.84905158384E+01  0.94090540704E+02  0.13885851046E+03  0.79587272900E+02 0.  0.
         -6    2    1    2    0  501  0.47114116918E+02  0.37429462796E+01  0.28086901403E+03  0.33311089592E+03  0.17274755071E+03 0.  0.
        -24    2    5    5    0    0  0.65537577041E+02  0.21308781103E+02  0.28733609059E+03  0.30642952573E+03  0.81165184219E+02 0.  0.
          5    1    3    3  502    0  0.16308538427E+02  0.47475695588E+01 -0.44015050546E+02  0.47412261251E+02  0.47000000000E+01 0. -1.
        -11    1    4    4    0    0 -0.39699961049E+02  0.85067447140E+01  0.26801548982E+00  0.40602012823E+02  0.00000000000E+00 0.  1.
         12    1    4    4    0    0 -0.23722694296E+02 -0.16997260552E+02  0.93822525214E+02  0.98256497640E+02  0.00000000000E+00 0. -1.
         -5    1    5    5    0  501 -0.18423460123E+02 -0.17565834823E+02 -0.64670765564E+01  0.26681370188E+02  0.47000000000E+01 0.  1.
         11    1    6    6    0    0  0.29017825076E+02 -0.30681067727E+02  0.13243345269E+03  0.13900353046E+03  0.00000000000E+00 0. -1.
        -12    1    6    6    0    0  0.36519751965E+02  0.51989848829E+02  0.15490263790E+03  0.16742599527E+03  0.00000000000E+00 0.  1.
<mgrwt>
<rscale>  2 0.17925486E+03</rscale>
<asrwt>0</asrwt>
<pdfrwt beam="1">  1        2 0.65409705E-01 0.17925486E+03</pdfrwt>
<pdfrwt beam="2">  1       -2 0.14495167E-01 0.17925486E+03</pdfrwt>
<totfact> 0.26619350E+03</totfact>
</mgrwt>
</event>
<event>
12    1  0.4404304E-002  0.1996271E+03  0.7546771E-02  0.1150054E+00
          1   -1    0    0  502    0  0.00000000000E+00  0.00000000000E+00  0.12023628511E+04  0.12023628511E+04  0.00000000000E+00 0. -1.
         -1   -1    0    0    0  501 -0.00000000000E+00 -0.00000000000E+00 -0.53570499497E+02  0.53570499497E+02  0.00000000000E+00 0.  1.
          6    2    1    2  502    0 -0.55001054652E+02 -0.82007726027E+02  0.96050558602E+03  0.98084341205E+03  0.17243095731E+03 0.  0.
         24    2    3    3    0    0  0.11854961515E+02 -0.33150559518E+01  0.60589562780E+03  0.61147560662E+03  0.81494637795E+02 0.  0.
         -6    2    1    2    0  501  0.55001054652E+02  0.82007726027E+02  0.18828676555E+03  0.27508993852E+03  0.17456283983E+03 0.  0.
        -24    2    5    5    0    0  0.66486958960E+02  0.11178924008E+03  0.18845360970E+03  0.24282567944E+03  0.80822012309E+02 0.  0.
          5    1    3    3  502    0 -0.66856016167E+02 -0.78692670076E+02  0.35460995822E+03  0.36936780543E+03  0.47000000000E+01 0. -1.
        -11    1    4    4    0    0  0.15891279547E+02 -0.96092257444E+01  0.28407073016E+02  0.33938647327E+02  0.00000000000E+00 0.  1.
         12    1    4    4    0    0 -0.40363180327E+01  0.62941697926E+01  0.57748855479E+03  0.57753695929E+03  0.00000000000E+00 0. -1.
         -5    1    5    5    0  501 -0.11485904308E+02 -0.29781514055E+02 -0.16684414981E+00  0.32264259083E+02  0.47000000000E+01 0.  1.
         11    1    6    6    0    0  0.20317744861E+01  0.34244466479E+02  0.10953008514E+03  0.11477652697E+03  0.00000000000E+00 0. -1.
        -12    1    6    6    0    0  0.64455184474E+02  0.77544773603E+02  0.78923524567E+02  0.12804915247E+03  0.00000000000E+00 0.  1.
<mgrwt>
<rscale>  2 0.19962709E+03</rscale>
<asrwt>0</asrwt>
<pdfrwt beam="1">  1        1 0.18497888E+00 0.19962709E+03</pdfrwt>
<pdfrwt beam="2">  1       -1 0.82416163E-02 0.19962709E+03</pdfrwt>
<totfact> 0.94318512E+02</totfact>
</mgrwt>
</event>
<event>
12    1  0.4404304E-002  0.2538908E+03  0.7546771E-02  0.1110870E+00
          2   -1    0    0  502    0  0.00000000000E+00  0.00000000000E+00  0.71324800962E+03  0.71324800962E+03  0.00000000000E+00 0.  1.
         -2   -1    0    0    0  501 -0.00000000000E+00 -0.00000000000E+00 -0.17724288605E+03  0.17724288605E+03  0.00000000000E+00 0. -1.
          6    2    1    2  502    0  0.98624830455E+02 -0.15812475315E+03 -0.42647644851E+02  0.25935997359E+03  0.17526688093E+03 0.  0.
         24    2    3    3    0    0  0.47866341752E+02 -0.24505421157E+02  0.26849294242E+02  0.10035536800E+03  0.80365495988E+02 0.  0.
         -6    2    1    2    0  501 -0.98624830455E+02  0.15812475315E+03  0.57865276842E+03  0.63113092208E+03  0.16957865332E+03 0.  0.
        -24    2    5    5    0    0  0.59945627961E+01  0.49693215761E+02  0.15816460166E+03  0.18443751029E+03  0.80596547754E+02 0.  0.
          5    1    3    3  502    0  0.50758488703E+02 -0.13361933199E+03 -0.69496939094E+02  0.15900460560E+03  0.47000000000E+01 0. -1.
        -13    1    4    4    0    0  0.43329254600E+02 -0.20140711203E+02 -0.20928962494E+02  0.52164106655E+02  0.00000000000E+00 0.  1.
         14    1    4    4    0    0  0.45370871516E+01 -0.43647099542E+01  0.47778256737E+02  0.48191261341E+02  0.00000000000E+00 0. -1.
         -5    1    5    5    0  501 -0.10461939325E+03  0.10843153739E+03  0.42048816676E+03  0.44669341179E+03  0.47000000000E+01 0.  1.
         13    1    6    6    0    0  0.71081780205E+01  0.15509498387E+02 -0.49590458963E+01  0.17766903815E+02  0.00000000000E+00 0. -1.
        -14    1    6    6    0    0 -0.11136152244E+01  0.34183717374E+02  0.16312364755E+03  0.16667060648E+03  0.00000000000E+00 0.  1.
<mgrwt>
<rscale>  2 0.25389079E+03</rscale>
<asrwt>0</asrwt>
<pdfrwt beam="1">  1        2 0.10973046E+00 0.25389079E+03</pdfrwt>
<pdfrwt beam="2">  1       -2 0.27268137E-01 0.25389079E+03</pdfrwt>
<totfact> 0.50189999E+02</totfact>
</mgrwt>
</event>
<event>
12    1  0.4404304E-002  0.2063729E+03  0.7546771E-02  0.1144471E+00
         -1   -1    0    0    0  501 -0.00000000000E+00  0.00000000000E+00  0.15934122085E+03  0.15934122085E+03  0.00000000000E+00 0. -1.
          1   -1    0    0  502    0  0.00000000000E+00 -0.00000000000E+00 -0.26805178471E+03  0.26805178471E+03  0.00000000000E+00 0.  1.
          6    2    1    2  502    0  0.10174628016E+03 -0.11558359821E+02 -0.42576998230E+02  0.20817989512E+03  0.17618219759E+03 0.  0.
         24    2    3    3    0    0  0.45438496970E+02  0.56345303586E+02  0.15606924877E+02  0.10240214292E+03  0.70733107722E+02 0.  0.
         -6    2    1    2    0  501 -0.10174628016E+03  0.11558359821E+02 -0.66133565626E+02  0.21921311044E+03  0.18219450616E+03 0.  0.
        -24    2    5    5    0    0 -0.52515572910E+02 -0.37561348691E+02  0.23269970458E+02  0.10584869554E+03  0.80583587091E+02 0.  0.
          5    1    3    3  502    0  0.56307783189E+02 -0.67903663407E+02 -0.58183923107E+02  0.10577775220E+03  0.47000000000E+01 0. -1.
        -11    1    4    4    0    0  0.20902197320E+02  0.55989179874E+01 -0.24900958359E+02  0.32989505341E+02  0.00000000000E+00 0.  1.
         12    1    4    4    0    0  0.24536299650E+02  0.50746385599E+02  0.40507883236E+02  0.69412637582E+02  0.00000000000E+00 0. -1.
         -5    1    5    5    0  501 -0.49230707249E+02  0.49119708512E+02 -0.89403536085E+02  0.11336441490E+03  0.47000000000E+01 0.  1.
         13    1    6    6    0    0  0.12597554466E+02 -0.35268267038E+02  0.14266968921E+02  0.40076120578E+02  0.00000000000E+00 0. -1.
        -14    1    6    6    0    0 -0.65113127376E+02 -0.22930816531E+01  0.90030015376E+01  0.65772574960E+02  0.00000000000E+00 0.  1.
<mgrwt>
<rscale>  2 0.20637291E+03</rscale>
<asrwt>0</asrwt>
<pdfrwt beam="2">  1        1 0.41238736E-01 0.20637291E+03</pdfrwt>
<pdfrwt beam="1">  1       -1 0.24514034E-01 0.20637291E+03</pdfrwt>
<totfact> 0.14462744E+03</totfact>
</mgrwt>
</event>
<event>
12    1  0.4404304E-002  0.1717307E+03  0.7546771E-02  0.1176055E+00
         -1   -1    0    0    0  501 -0.00000000000E+00  0.00000000000E+00  0.23918852833E+02  0.23918852833E+02  0.00000000000E+00 0.  1.
          1   -1    0    0  502    0  0.00000000000E+00 -0.00000000000E+00 -0.12352963548E+04  0.12352963548E+04  0.00000000000E+00 0. -1.
          6    2    1    2  502    0  0.13597279239E+02 -0.73217305895E+01 -0.59577571463E+03  0.62111537681E+03  0.17492031163E+03 0.  0.
         24    2    3    3    0    0  0.71868386459E+02  0.10220625698E+02 -0.45243224550E+03  0.46531840526E+03  0.80973794185E+02 0.  0.
         -6    2    1    2    0  501 -0.13597279239E+02  0.73217305895E+01 -0.61560178738E+03  0.63809983087E+03  0.16723438578E+03 0.  0.
        -24    2    5    5    0    0  0.34427184301E+02  0.44308963386E+02 -0.47427567464E+03  0.48425066893E+03  0.80079832317E+02 0.  0.
          5    1    3    3  502    0 -0.58271107220E+02 -0.17542356287E+02 -0.14334346913E+03  0.15579697155E+03  0.47000000000E+01 0. -1.
        -11    1    4    4    0    0  0.39840656926E+02  0.93243398152E+01 -0.66648377997E+02  0.78206313984E+02  0.00000000000E+00 0.  1.
         12    1    4    4    0    0  0.32027729533E+02  0.89628588247E+00 -0.38578386750E+03  0.38711209128E+03  0.00000000000E+00 0. -1.
         -5    1    5    5    0  501 -0.48024463541E+02 -0.36987232797E+02 -0.14132611274E+03  0.15384916194E+03  0.47000000000E+01 0.  1.
         13    1    6    6    0    0  0.22432347488E+02 -0.20694644865E+02 -0.18651846128E+03  0.18899898132E+03  0.00000000000E+00 0. -1.
        -14    1    6    6    0    0  0.11994836814E+02  0.65003608251E+02 -0.28775721336E+03  0.29525168761E+03  0.00000000000E+00 0.  1.
<mgrwt>
<rscale>  2 0.17173067E+03</rscale>
<asrwt>0</asrwt>
<pdfrwt beam="2">  1        1 0.19004559E+00 0.17173067E+03</pdfrwt>
<pdfrwt beam="1">  1       -1 0.36798235E-02 0.17173067E+03</pdfrwt>
<totfact> 0.29924882E+03</totfact>
</mgrwt>
</event>
<event>
12    1  0.4404304E-002  0.1735381E+03  0.7546771E-02  0.1174208E+00
          1   -1    0    0  502    0  0.00000000000E+00  0.00000000000E+00  0.70757698039E+02  0.70757698039E+02  0.00000000000E+00 0. -1.
         -1   -1    0    0    0  501 -0.00000000000E+00 -0.00000000000E+00 -0.45589117769E+03  0.45589117769E+03  0.00000000000E+00 0.  1.
          6    2    1    2  502    0  0.77326858303E+01  0.10492307375E+02 -0.12536998353E+03  0.21460196312E+03  0.17368502197E+03 0.  0.
         24    2    3    3    0    0  0.24173168511E+02  0.44847670768E+02 -0.14341134036E+03  0.17219723436E+03  0.80556932213E+02 0.  0.
         -6    2    1    2    0  501 -0.77326858303E+01 -0.10492307375E+02 -0.25976349612E+03  0.31204691261E+03  0.17241322110E+03 0.  0.
        -24    2    5    5    0    0 -0.49829567719E+02 -0.12180006768E+02 -0.71671218972E+02  0.11923666777E+03  0.80307415150E+02 0.  0.
          5    1    3    3  502    0 -0.16440482681E+02 -0.34355363393E+02  0.18041356829E+02  0.42404728756E+02  0.47000000000E+01 0. -1.
        -11    1    4    4    0    0  0.77943634714E+01 -0.23401586016E+02 -0.45073914527E+02  0.51381359468E+02  0.00000000000E+00 0.  1.
         12    1    4    4    0    0  0.16378805040E+02  0.68249256784E+02 -0.98337425837E+02  0.12081587489E+03  0.00000000000E+00 0. -1.
         -5    1    5    5    0  501  0.42096881889E+02  0.16876993929E+01 -0.18809227715E+03  0.19281024484E+03  0.47000000000E+01 0.  1.
         13    1    6    6    0    0 -0.12676357727E+02 -0.41907247212E+02 -0.17539390857E+02  0.47165004460E+02  0.00000000000E+00 0. -1.
        -14    1    6    6    0    0 -0.37153209992E+02  0.29727240444E+02 -0.54131828116E+02  0.72071663310E+02  0.00000000000E+00 0.  1.
<mgrwt>
<rscale>  2 0.17353813E+03</rscale>
<asrwt>0</asrwt>
<pdfrwt beam="1">  1        1 0.10885800E-01 0.17353813E+03</pdfrwt>
<pdfrwt beam="2">  1       -1 0.70137102E-01 0.17353813E+03</pdfrwt>
<totfact> 0.12082665E+03</totfact>
</mgrwt>
</event>
<event>
12    1  0.4404304E-002  0.1940349E+03  0.7546771E-02  0.1154872E+00
          1   -1    0    0  502    0  0.00000000000E+00  0.00000000000E+00  0.10782590292E+04  0.10782590292E+04  0.00000000000E+00 0. -1.
         -1   -1    0    0    0  501 -0.00000000000E+00 -0.00000000000E+00 -0.49034087307E+02  0.49034087307E+02  0.00000000000E+00 0.  1.
          6    2    1    2  502    0 -0.57909395932E+02 -0.65055176791E+02  0.21239970983E+03  0.28776492910E+03  0.17352044121E+03 0.  0.
         24    2    3    3    0    0  0.11588983170E+02  0.20664355457E+02  0.70641699851E+02  0.10805603588E+03  0.78259421256E+02 0.  0.
         -6    2    1    2    0  501  0.57909395932E+02  0.65055176791E+02  0.81682523209E+03  0.83952818744E+03  0.17325831455E+03 0.  0.
        -24    2    5    5    0    0  0.77878889292E+02  0.97572202305E+02  0.72648175310E+03  0.74134381083E+03  0.78926878911E+02 0.  0.
          5    1    3    3  502    0 -0.69498379102E+02 -0.85719532248E+02  0.14175800998E+03  0.17970889321E+03  0.47000000000E+01 0. -1.
        -11    1    4    4    0    0  0.12673674865E+02 -0.21018768203E+02 -0.16516162521E+01  0.24599562752E+02  0.00000000000E+00 0.  1.
         12    1    4    4    0    0 -0.10846916945E+01  0.41683123660E+02  0.72293316103E+02  0.83456473130E+02  0.00000000000E+00 0. -1.
         -5    1    5    5    0  501 -0.19969493360E+02 -0.32517025514E+02  0.90343478989E+02  0.98184376604E+02  0.47000000000E+01 0.  1.
         11    1    6    6    0    0  0.79353505363E+01  0.20394840245E+02  0.35106254365E+03  0.35174398197E+03  0.00000000000E+00 0. -1.
        -12    1    6    6    0    0  0.69943538756E+02  0.77177362060E+02  0.37541920945E+03  0.38959982886E+03  0.00000000000E+00 0.  1.
<mgrwt>
<rscale>  2 0.19403489E+03</rscale>
<asrwt>0</asrwt>
<pdfrwt beam="1">  1        1 0.16588599E+00 0.19403489E+03</pdfrwt>
<pdfrwt beam="2">  1       -1 0.75437066E-02 0.19403489E+03</pdfrwt>
<totfact> 0.13204544E+03</totfact>
</mgrwt>
</event>
<event>
12    1  0.4404304E-002  0.1746580E+03  0.7546771E-02  0.1173076E+00
         -2   -1    0    0    0  501 -0.00000000000E+00  0.00000000000E+00  0.78330189615E+02  0.78330189615E+02  0.00000000000E+00 0.  1.
          2   -1    0    0  502    0  0.00000000000E+00 -0.00000000000E+00 -0.12073032095E+04  0.12073032095E+04  0.00000000000E+00 0. -1.
          6    2    1    2  502    0  0.22392812088E+02 -0.67333558879E+01 -0.10943586136E+04  0.11083301174E+04  0.17386229560E+03 0.  0.
         24    2    3    3    0    0  0.51556472548E+02  0.50506393169E+02 -0.57640924752E+03  0.58639090274E+03  0.79985652324E+02 0.  0.
         -6    2    1    2    0  501 -0.22392812088E+02  0.67333558879E+01 -0.34614406307E+02  0.17730328175E+03  0.17231227606E+03 0.  0.
        -24    2    5    5    0    0 -0.30031804777E+02 -0.62107720021E+02 -0.18495375462E+02  0.10603364518E+03  0.78369489037E+02 0.  0.
          5    1    3    3  502    0 -0.29163660459E+02 -0.57239749057E+02 -0.51794936610E+03  0.52193921467E+03  0.47000000000E+01 0. -1.
        -13    1    4    4    0    0  0.10779351064E+02  0.94403472975E+00 -0.59813636410E+01  0.12363750319E+02  0.00000000000E+00 0.  1.
         14    1    4    4    0    0  0.40777121483E+02  0.49562358439E+02 -0.57042788388E+03  0.57402715242E+03  0.00000000000E+00 0. -1.
         -5    1    5    5    0  501  0.76389926883E+01  0.68841075909E+02 -0.16119030845E+02  0.71269636571E+02  0.47000000000E+01 0.  1.
         13    1    6    6    0    0 -0.62407088594E+01  0.78090466436E+01 -0.29697869707E+02  0.31335141960E+02  0.00000000000E+00 0. -1.
        -14    1    6    6    0    0 -0.23791095917E+02 -0.69916766664E+02  0.11202494245E+02  0.74698503218E+02  0.00000000000E+00 0.  1.
<mgrwt>
<rscale>  2 0.17465797E+03</rscale>
<asrwt>0</asrwt>
<pdfrwt beam="2">  1        2 0.18573897E+00 0.17465797E+03</pdfrwt>
<pdfrwt beam="1">  1       -2 0.12050798E-01 0.17465797E+03</pdfrwt>
<totfact> 0.97934300E+02</totfact>
</mgrwt>
</event>
<event>
12    1  0.4404304E-002  0.1788615E+03  0.7546771E-02  0.1168910E+00
          2   -1    0    0  502    0  0.00000000000E+00  0.00000000000E+00  0.62769872700E+02  0.62769872700E+02  0.00000000000E+00 0.  1.
         -2   -1    0    0    0  501 -0.00000000000E+00 -0.00000000000E+00 -0.54496842435E+03  0.54496842435E+03  0.00000000000E+00 0. -1.
          6    2    1    2  502    0  0.26348526246E+02 -0.34716959867E+02 -0.16295379853E+03  0.24148838799E+03  0.17280968996E+03 0.  0.
         24    2    3    3    0    0 -0.38685709816E+02 -0.54419462749E+02 -0.72350252271E+02  0.12813613582E+03  0.82013707563E+02 0.  0.
         -6    2    1    2    0  501 -0.26348526246E+02  0.34716959867E+02 -0.31924475312E+03  0.36624990905E+03  0.17413291288E+03 0.  0.
        -24    2    5    5    0    0  0.43664790277E+02 -0.13768580885E+02 -0.19197787940E+03  0.21304527695E+03  0.80228399705E+02 0.  0.
          5    1    3    3  502    0  0.65034236062E+02  0.19702502882E+02 -0.90603546255E+02  0.11335225218E+03  0.47000000000E+01 0. -1.
        -11    1    4    4    0    0 -0.12794561683E+02  0.32609911748E+01  0.15206046611E+02  0.20138488663E+02  0.00000000000E+00 0.  1.
         12    1    4    4    0    0 -0.25891148134E+02 -0.57680453924E+02 -0.87556298882E+02  0.10799764715E+03  0.00000000000E+00 0. -1.
         -5    1    5    5    0  501 -0.70013316524E+02  0.48485540752E+02 -0.12726687372E+03  0.15320463211E+03  0.47000000000E+01 0.  1.
         13    1    6    6    0    0  0.28726558469E+02  0.24519730357E+02 -0.14845476279E+03  0.15318370975E+03  0.00000000000E+00 0. -1.
        -14    1    6    6    0    0  0.14938231809E+02 -0.38288311243E+02 -0.43523116619E+02  0.59861567199E+02  0.00000000000E+00 0.  1.
<mgrwt>
<rscale>  2 0.17886145E+03</rscale>
<asrwt>0</asrwt>
<pdfrwt beam="1">  1        2 0.96569033E-02 0.17886145E+03</pdfrwt>
<pdfrwt beam="2">  1       -2 0.83841297E-01 0.17886145E+03</pdfrwt>
<totfact> 0.84830675E+02</totfact>
</mgrwt>
</event>
<event>
12    1  0.4404304E-002  0.1803265E+03  0.7546771E-02  0.1167487E+00
          2   -1    0    0  502    0  0.00000000000E+00  0.00000000000E+00  0.32048025772E+03  0.32048025772E+03  0.00000000000E+00 0.  1.
         -2   -1    0    0    0  501 -0.00000000000E+00 -0.00000000000E+00 -0.14726895459E+03  0.14726895459E+03  0.00000000000E+00 0. -1.
          6    2    1    2  502    0  0.29666446999E+02 -0.40128121178E+02  0.21731658271E+03  0.28294282381E+03  0.17418318012E+03 0.  0.
         24    2    3    3    0    0  0.31624753894E+02 -0.22232139087E+02  0.23890879028E+03  0.25443993679E+03  0.78535840797E+02 0.  0.
         -6    2    1    2    0  501 -0.29666446999E+02  0.40128121178E+02 -0.44105279583E+02  0.18480638851E+03  0.17238840262E+03 0.  0.
        -24    2    5    5    0    0  0.22832357460E+02  0.76879922413E+02 -0.36973931532E+02  0.12015528265E+03  0.81476262295E+02 0.  0.
          5    1    3    3  502    0 -0.19583068956E+01 -0.17895982091E+02 -0.21592207569E+02  0.28502887022E+02  0.47000000000E+01 0. -1.
        -11    1    4    4    0    0  0.42897798605E+02  0.22702664855E+01  0.61647467192E+02  0.75138441868E+02  0.00000000000E+00 0.  1.
         12    1    4    4    0    0 -0.11273044711E+02 -0.24502405572E+02  0.17726132309E+03  0.17930149492E+03  0.00000000000E+00 0. -1.
         -5    1    5    5    0  501 -0.52498804459E+02 -0.36751801236E+02 -0.71313480518E+01  0.64651105858E+02  0.47000000000E+01 0.  1.
         11    1    6    6    0    0  0.15345057782E+02  0.24421178037E+02 -0.56698624794E+02  0.63612882253E+02  0.00000000000E+00 0. -1.
        -12    1    6    6    0    0  0.74872996780E+01  0.52458744376E+02  0.19724693262E+02  0.56542400394E+02  0.00000000000E+00 0.  1.
<mgrwt>
<rscale>  2 0.18032650E+03</rscale>
<asrwt>0</asrwt>
<pdfrwt beam="1">  1        2 0.49304655E-01 0.18032650E+03</pdfrwt>
<pdfrwt beam="2">  1       -2 0.22656762E-01 0.18032650E+03</pdfrwt>
<totfact> 0.17018529E+03</totfact>
</mgrwt>
</event>
<event>
12    1  0.4404304E-002  0.2185246E+03  0.7546771E-02  0.1134988E+00
         -1   -1    0    0    0  501 -0.00000000000E+00  0.00000000000E+00  0.15228674807E+03  0.15228674807E+03  0.00000000000E+00 0.  1.
          1   -1    0    0  502    0  0.00000000000E+00 -0.00000000000E+00 -0.45357464573E+03  0.45357464573E+03  0.00000000000E+00 0. -1.
          6    2    1    2  502    0  0.95855172447E+02 -0.95948579606E+02  0.17533849860E+02  0.21948320786E+03  0.17167148461E+03 0.  0.
         24    2    3    3    0    0 -0.11370091961E+02 -0.16451621949E+02 -0.74201604067E+01  0.83608941593E+02  0.80842201095E+02 0.  0.
         -6    2    1    2    0  501 -0.95855172447E+02  0.95948579606E+02 -0.31882174752E+03  0.38637818594E+03  0.17101594038E+03 0.  0.
        -24    2    5    5    0    0 -0.12443854064E+03  0.46895545799E+02 -0.17944274426E+03  0.23580658963E+03  0.75636675214E+02 0.  0.
          5    1    3    3  502    0  0.10722526441E+03 -0.79496957657E+02  0.24954010267E+02  0.13587426626E+03  0.47000000000E+01 0. -1.
        -11    1    4    4    0    0 -0.21358248139E+02 -0.44838549099E+02  0.71443951891E+01  0.50176813684E+02  0.00000000000E+00 0.  1.
         12    1    4    4    0    0  0.99881561780E+01  0.28386927150E+02 -0.14564555596E+02  0.33432127909E+02  0.00000000000E+00 0. -1.
         -5    1    5    5    0  501  0.28583368188E+02  0.49053033807E+02 -0.13937900327E+03  0.15057159631E+03  0.47000000000E+01 0.  1.
         13    1    6    6    0    0 -0.77208628472E+02  0.77641051423E+01 -0.49298833970E+02  0.91933827670E+02  0.00000000000E+00 0. -1.
        -14    1    6    6    0    0 -0.47229912163E+02  0.39131440656E+02 -0.13014391029E+03  0.14387276196E+03  0.00000000000E+00 0.  1.
<mgrwt>
<rscale>  2 0.21852457E+03</rscale>
<asrwt>0</asrwt>
<pdfrwt beam="2">  1        1 0.69780716E-01 0.21852457E+03</pdfrwt>
<pdfrwt beam="1">  1       -1 0.23428730E-01 0.21852457E+03</pdfrwt>
<totfact> 0.80028123E+02</totfact>
</mgrwt>
</event>
<event>
12    1  0.4404304E-002  0.1814232E+03  0.7546771E-02  0.1166433E+00
          1   -1    0    0  502    0  0.00000000000E+00  0.00000000000E+00  0.10529532380E+04  0.10529532380E+04  0.00000000000E+00 0. -1.
         -1   -1    0    0    0  501 -0.00000000000E+00 -0.00000000000E+00 -0.32010076167E+02  0.32010076167E+02  0.00000000000E+00 0.  1.
          6    2    1    2  502    0 -0.52994209115E+02 -0.13324494334E+02  0.59467020108E+03  0.62184791326E+03  0.17342505826E+03 0.  0.
         24    2    3    3    0    0 -0.93060016547E+02  0.12252698717E+02  0.31731224318E+03  0.34040699843E+03  0.79872207974E+02 0.  0.
         -6    2    1    2    0  501  0.52994209115E+02  0.13324494334E+02  0.42627296076E+03  0.46311540091E+03  0.17257261989E+03 0.  0.
        -24    2    5    5    0    0  0.37553241926E+02 -0.43124219273E+02  0.14477646866E+03  0.17556150022E+03  0.81189101579E+02 0.  0.
          5    1    3    3  502    0  0.40065807432E+02 -0.25577193051E+02  0.27735795790E+03  0.28144091483E+03  0.47000000000E+01 0. -1.
        -11    1    4    4    0    0 -0.41945596186E+02 -0.59518333661E+01  0.41489031240E+02  0.59297530075E+02  0.00000000000E+00 0.  1.
         12    1    4    4    0    0 -0.51114420361E+02  0.18204532083E+02  0.27582321194E+03  0.28110946836E+03  0.00000000000E+00 0. -1.
         -5    1    5    5    0  501  0.15440967189E+02  0.56448713607E+02  0.28149649210E+03  0.28755390069E+03  0.47000000000E+01 0.  1.
         13    1    6    6    0    0  0.35083831911E+02 -0.11005482868E+02  0.13777332498E+03  0.14259552935E+03  0.00000000000E+00 0. -1.
        -14    1    6    6    0    0  0.24694100155E+01 -0.32118736405E+02  0.70031436803E+01  0.32965970871E+02  0.00000000000E+00 0.  1.
<mgrwt>
<rscale>  2 0.18142320E+03</rscale>
<asrwt>0</asrwt>
<pdfrwt beam="1">  1        1 0.16199278E+00 0.18142320E+03</pdfrwt>
<pdfrwt beam="2">  1       -1 0.49246279E-02 0.18142320E+03</pdfrwt>
<totfact> 0.26128624E+03</totfact>
</mgrwt>
</event>
<event>
12    1  0.4404304E-002  0.1970545E+03  0.7546771E-02  0.1152248E+00
         -3   -1    0    0    0  501 -0.00000000000E+00  0.00000000000E+00  0.13096257114E+03  0.13096257114E+03  0.00000000000E+00 0. -1.
          3   -1    0    0  502    0  0.00000000000E+00 -0.00000000000E+00 -0.30933702416E+03  0.30933702416E+03  0.00000000000E+00 0.  1.
          6    2    1    2  502    0 -0.28039664861E+02 -0.89405460977E+02 -0.13369492891E+03  0.23749959318E+03  0.17248815462E+03 0.  0.
         24    2    3    3    0    0  0.25915143497E+02 -0.11044739752E+03 -0.80296530838E+02  0.15858594826E+03  0.76365881381E+02 0.  0.
         -6    2    1    2    0  501  0.28039664861E+02  0.89405460977E+02 -0.44679524104E+02  0.20280000212E+03  0.17421831628E+03 0.  0.
        -24    2    5    5    0    0  0.20109838982E+01  0.12380856913E+03 -0.10603626863E+02  0.14762461942E+03  0.79674246210E+02 0.  0.
          5    1    3    3  502    0 -0.53954808358E+02  0.21041936538E+02 -0.53398398076E+02  0.78913644925E+02  0.47000000000E+01 0. -1.
        -13    1    4    4    0    0  0.34698822540E+02 -0.27609202843E+02 -0.56749492786E+02  0.72019311985E+02  0.00000000000E+00 0.  1.
         14    1    4    4    0    0 -0.87836790429E+01 -0.82838194673E+02 -0.23547038052E+02  0.86566636271E+02  0.00000000000E+00 0. -1.
         -5    1    5    5    0  501  0.26028680963E+02 -0.34403108155E+02 -0.34075897241E+02  0.55175382701E+02  0.47000000000E+01 0.  1.
         13    1    6    6    0    0  0.38625972262E+02  0.49899106467E+02 -0.15565397667E+02  0.64993600946E+02  0.00000000000E+00 0. -1.
        -14    1    6    6    0    0 -0.36614988364E+02  0.73909462665E+02  0.49617708046E+01  0.82631018473E+02  0.00000000000E+00 0.  1.
<mgrwt>
<rscale>  2 0.19705454E+03</rscale>
<asrwt>0</asrwt>
<pdfrwt beam="2">  1        3 0.47590312E-01 0.19705454E+03</pdfrwt>
<pdfrwt beam="1">  1       -3 0.20148088E-01 0.19705454E+03</pdfrwt>
<totfact> 0.23831791E+02</totfact>
</mgrwt>
</event>
<event>
12    1  0.4404304E-002  0.1826164E+03  0.7546771E-02  0.1165295E+00
         -2   -1    0    0    0  501 -0.00000000000E+00  0.00000000000E+00  0.10647062745E+03  0.10647062745E+03  0.00000000000E+00 0.  1.
          2   -1    0    0  502    0  0.00000000000E+00 -0.00000000000E+00 -0.40069976406E+03  0.40069976406E+03  0.00000000000E+00 0. -1.
          6    2    1    2  502    0 -0.15108565612E+02  0.56418010032E+02 -0.26536165660E+03  0.32191279077E+03  0.17262611463E+03 0.  0.
         24    2    3    3    0    0  0.23676135213E+02  0.72979961512E+02 -0.25585022715E+03  0.27842591292E+03  0.78581270597E+02 0.  0.
         -6    2    1    2    0  501  0.15108565612E+02 -0.56418010032E+02 -0.28867480001E+02  0.18525760074E+03  0.17342371989E+03 0.  0.
        -24    2    5    5    0    0  0.11407668372E+02 -0.46883044072E+01 -0.77199999593E+02  0.11420985951E+03  0.83258254702E+02 0.  0.
          5    1    3    3  502    0 -0.38784700824E+02 -0.16561951480E+02 -0.95114294502E+01  0.43486877849E+02  0.47000000000E+01 0. -1.
        -11    1    4    4    0    0 -0.15776623455E+02  0.27952667031E+02 -0.27212910495E+02  0.42080826268E+02  0.00000000000E+00 0.  1.
         12    1    4    4    0    0  0.39452758667E+02  0.45027294481E+02 -0.22863731666E+03  0.23634508665E+03  0.00000000000E+00 0. -1.
         -5    1    5    5    0  501  0.37008972397E+01 -0.51729705625E+02  0.48332519592E+02  0.71047741234E+02  0.47000000000E+01 0.  1.
         11    1    6    6    0    0  0.17016228952E+02 -0.39788238542E+02 -0.21974087031E+02  0.48533663316E+02  0.00000000000E+00 0. -1.
        -12    1    6    6    0    0 -0.56085605803E+01  0.35099934135E+02 -0.55225912562E+02  0.65676196193E+02  0.00000000000E+00 0.  1.
<mgrwt>
<rscale>  2 0.18261642E+03</rscale>
<asrwt>0</asrwt>
<pdfrwt beam="2">  1        2 0.61646119E-01 0.18261642E+03</pdfrwt>
<pdfrwt beam="1">  1       -2 0.16380096E-01 0.18261642E+03</pdfrwt>
<totfact> 0.23213263E+03</totfact>
</mgrwt>
</event>
<event>
12    1  0.4404304E-002  0.1771678E+03  0.7546771E-02  0.1170573E+00
         -2   -1    0    0    0  501 -0.00000000000E+00  0.00000000000E+00  0.25763213169E+02  0.25763213169E+02  0.00000000000E+00 0. -1.
          2   -1    0    0  502    0  0.00000000000E+00 -0.00000000000E+00 -0.12397761045E+04  0.12397761045E+04  0.00000000000E+00 0.  1.
          6    2    1    2  502    0 -0.31113808632E+02  0.29827271689E+02 -0.52092615856E+03  0.54994972089E+03  0.17094706086E+03 0.  0.
         24    2    3    3    0    0 -0.84636382431E+02  0.35690353901E+02 -0.37308292939E+03  0.39253704018E+03  0.80357557938E+02 0.  0.
         -6    2    1    2    0  501  0.31113808632E+02 -0.29827271689E+02 -0.69308673280E+03  0.71558959680E+03  0.17274697289E+03 0.  0.
        -24    2    5    5    0    0  0.40806806042E+01 -0.59923938503E+02 -0.23044085020E+03  0.25115456146E+03  0.79800363048E+02 0.  0.
          5    1    3    3  502    0  0.53522573800E+02 -0.58630822125E+01 -0.14784322917E+03  0.15741268071E+03  0.47000000000E+01 0. -1.
        -13    1    4    4    0    0 -0.35935023799E+02  0.70143549011E+01 -0.28847463715E+03  0.29078882954E+03  0.00000000000E+00 0.  1.
         14    1    4    4    0    0 -0.48701358632E+02  0.28675999000E+02 -0.84608292243E+02  0.10174821064E+03  0.00000000000E+00 0. -1.
         -5    1    5    5    0  501  0.27033128027E+02  0.30096666815E+02 -0.46264588259E+03  0.46443503533E+03  0.47000000000E+01 0.  1.
         11    1    6    6    0    0  0.19618512885E+02  0.84581104760E+01 -0.10765865980E+03  0.10975797334E+03  0.00000000000E+00 0. -1.
        -12    1    6    6    0    0 -0.15537832281E+02 -0.68382048979E+02 -0.12278219040E+03  0.14139658813E+03  0.00000000000E+00 0.  1.
<mgrwt>
<rscale>  2 0.17716777E+03</rscale>
<asrwt>0</asrwt>
<pdfrwt beam="2">  1        2 0.19073475E+00 0.17716777E+03</pdfrwt>
<pdfrwt beam="1">  1       -2 0.39635721E-02 0.17716777E+03</pdfrwt>
<totfact> 0.52249679E+03</totfact>
</mgrwt>
</event>
<event>
12    1  0.4404304E-002  0.2153407E+03  0.7546771E-02  0.1137405E+00
         -4   -1    0    0    0  501 -0.00000000000E+00  0.00000000000E+00  0.26469031391E+03  0.26469031391E+03  0.00000000000E+00 0. -1.
          4   -1    0    0  502    0  0.00000000000E+00 -0.00000000000E+00 -0.20071613188E+03  0.20071613188E+03  0.00000000000E+00 0.  1.
          6    2    1    2  502    0  0.55801571079E+02 -0.11366330837E+03 -0.50904110705E+02  0.22193793778E+03  0.17502016094E+03 0.  0.
         24    2    3    3    0    0  0.33949681414E+02  0.64026573738E+00 -0.58515139732E+02  0.10522105854E+03  0.80588204935E+02 0.  0.
         -6    2    1    2    0  501 -0.55801571079E+02  0.11366330837E+03  0.11487829273E+03  0.24346850802E+03  0.17333992399E+03 0.  0.
        -24    2    5    5    0    0 -0.43955456768E+02  0.56339446062E+02  0.14322116997E+03  0.17826295377E+03  0.78480327443E+02 0.  0.
          5    1    3    3  502    0  0.21851889666E+02 -0.11430357411E+03  0.76110290269E+01  0.11671687924E+03  0.47000000000E+01 0. -1.
        -11    1    4    4    0    0  0.26526920308E+02 -0.38752584195E+02 -0.36567503531E+02  0.59519934453E+02  0.00000000000E+00 0.  1.
         12    1    4    4    0    0  0.74227611053E+01  0.39392849932E+02 -0.21947636201E+02  0.45701124089E+02  0.00000000000E+00 0. -1.
         -5    1    5    5    0  501 -0.11846114312E+02  0.57323862310E+02 -0.28342877241E+02  0.65205554247E+02  0.47000000000E+01 0.  1.
         13    1    6    6    0    0 -0.88039827590E+00  0.60414665507E+02  0.64126945939E+02  0.88107730108E+02  0.00000000000E+00 0. -1.
        -14    1    6    6    0    0 -0.43075058492E+02 -0.40752194447E+01  0.79094224036E+02  0.90155223661E+02  0.00000000000E+00 0.  1.
<mgrwt>
<rscale>  2 0.21534074E+03</rscale>
<asrwt>0</asrwt>
<pdfrwt beam="2">  1        4 0.30879405E-01 0.21534074E+03</pdfrwt>
<pdfrwt beam="1">  1       -4 0.40721587E-01 0.21534074E+03</pdfrwt>
<totfact> 0.10600070E+02</totfact>
</mgrwt>
</event>
<event>
12    1  0.4404304E-002  0.1834616E+03  0.7546771E-02  0.1164494E+00
         -1   -1    0    0    0  501 -0.00000000000E+00  0.00000000000E+00  0.79404325052E+02  0.79404325052E+02  0.00000000000E+00 0. -1.
          1   -1    0    0  502    0  0.00000000000E+00 -0.00000000000E+00 -0.43033069407E+03  0.43033069407E+03  0.00000000000E+00 0.  1.
          6    2    1    2  502    0  0.30386412936E+02 -0.50123238139E+02 -0.14312672981E+03  0.23169671346E+03  0.17251792124E+03 0.  0.
         24    2    3    3    0    0 -0.14571729981E+02 -0.18228579816E+02 -0.45298538287E+01  0.82466395239E+02  0.78965627531E+02 0.  0.
         -6    2    1    2    0  501 -0.30386412936E+02  0.50123238139E+02 -0.20779963921E+03  0.27803830567E+03  0.17518257981E+03 0.  0.
        -24    2    5    5    0    0  0.42800676851E+01  0.77922484542E+02 -0.76948971500E+02  0.13976846000E+03  0.86740103874E+02 0.  0.
          5    1    3    3  502    0  0.44958142917E+02 -0.31894658323E+02 -0.13859687598E+03  0.14923031822E+03  0.47000000000E+01 0. -1.
        -13    1    4    4    0    0  0.83981243463E+01 -0.39552136430E+02 -0.22566814088E+02  0.46305087051E+02  0.00000000000E+00 0.  1.
         14    1    4    4    0    0 -0.22969854328E+02  0.21323556614E+02  0.18036960259E+02  0.36161308188E+02  0.00000000000E+00 0. -1.
         -5    1    5    5    0  501 -0.34666480621E+02 -0.27799246403E+02 -0.13085066771E+03  0.13826984566E+03  0.47000000000E+01 0.  1.
         11    1    6    6    0    0 -0.17787733751E+02  0.30097767303E+02  0.11517749280E+02  0.36809477273E+02  0.00000000000E+00 0. -1.
        -12    1    6    6    0    0  0.22067801436E+02  0.47824717239E+02 -0.88466720780E+02  0.10295898273E+03  0.00000000000E+00 0.  1.
<mgrwt>
<rscale>  2 0.18346163E+03</rscale>
<asrwt>0</asrwt>
<pdfrwt beam="2">  1        1 0.66204722E-01 0.18346163E+03</pdfrwt>
<pdfrwt beam="1">  1       -1 0.12216050E-01 0.18346163E+03</pdfrwt>
<totfact> 0.24206431E+03</totfact>
</mgrwt>
</event>
<event>
12    1  0.4404304E-002  0.1840528E+03  0.7546771E-02  0.1163937E+00
         -1   -1    0    0    0  501 -0.00000000000E+00  0.00000000000E+00  0.24243433748E+02  0.24243433748E+02  0.00000000000E+00 0. -1.
          1   -1    0    0  502    0  0.00000000000E+00 -0.00000000000E+00 -0.14220804399E+04  0.14220804399E+04  0.00000000000E+00 0.  1.
          6    2    1    2  502    0 -0.35164687382E+02 -0.59058492312E+02 -0.61541763017E+03  0.64322574007E+03  0.17400009315E+03 0.  0.
         24    2    3    3    0    0 -0.52574692176E+02 -0.70833236922E+02 -0.24232295062E+03  0.26950996199E+03  0.78318334422E+02 0.  0.
         -6    2    1    2    0  501  0.35164687382E+02  0.59058492312E+02 -0.78241937603E+03  0.80309813362E+03  0.16751737667E+03 0.  0.
        -24    2    5    5    0    0 -0.15555106455E+02 -0.22575439464E+02 -0.36925162284E+03  0.37887380784E+03  0.80293147261E+02 0.  0.
          5    1    3    3  502    0  0.17410004794E+02  0.11774744610E+02 -0.37309467955E+03  0.37371577808E+03  0.47000000000E+01 0. -1.
        -11    1    4    4    0    0 -0.71852311080E+02 -0.64288755655E+02 -0.21308541361E+03  0.23388286001E+03  0.00000000000E+00 0.  1.
         12    1    4    4    0    0  0.19277618904E+02 -0.65444812674E+01 -0.29237537008E+02  0.35627101986E+02  0.00000000000E+00 0. -1.
         -5    1    5    5    0  501  0.50719793838E+02  0.81633931776E+02 -0.41316775319E+03  0.42422432577E+03  0.47000000000E+01 0.  1.
         13    1    6    6    0    0 -0.17931249747E+02 -0.38716896051E+02 -0.95053008104E+02  0.10419022078E+03  0.00000000000E+00 0. -1.
        -14    1    6    6    0    0  0.23761432922E+01  0.16141456587E+02 -0.27419861474E+03  0.27468358706E+03  0.00000000000E+00 0.  1.
<mgrwt>
<rscale>  2 0.18405279E+03</rscale>
<asrwt>0</asrwt>
<pdfrwt beam="2">  1        1 0.21878162E+00 0.18405279E+03</pdfrwt>
<pdfrwt beam="1">  1       -1 0.37297588E-02 0.18405279E+03</pdfrwt>
<totfact> 0.21991503E+03</totfact>
</mgrwt>
</event>
<event>
12    1  0.4404304E-002  0.2113117E+03  0.7546771E-02  0.1140531E+00
          2   -1    0    0  502    0  0.00000000000E+00  0.00000000000E+00  0.31158252408E+04  0.31158252408E+04  0.00000000000E+00 0. -1.
         -2   -1    0    0    0  501 -0.00000000000E+00 -0.00000000000E+00 -0.16580185946E+02  0.16580185946E+02  0.00000000000E+00 0.  1.
          6    2    1    2  502    0  0.11263547186E+03  0.39289922945E+02  0.96978389007E+03  0.99243885877E+03  0.17384949635E+03 0.  0.
         24    2    3    3    0    0  0.56879807119E+02 -0.33284448125E+02  0.33146005952E+03  0.34757054962E+03  0.81217910360E+02 0.  0.
         -6    2    1    2    0  501 -0.11263547186E+03 -0.39289922945E+02  0.21294611647E+04  0.21399665679E+04  0.17499032028E+03 0.  0.
        -24    2    5    5    0    0 -0.82210536630E+02  0.38042782858E+02  0.15356255958E+04  0.15403260114E+04  0.79072279301E+02 0.  0.
          5    1    3    3  502    0  0.55755664737E+02  0.72574371070E+02  0.63832383056E+03  0.64486830915E+03  0.47000000000E+01 0. -1.
        -11    1    4    4    0    0  0.36713379969E+01 -0.21162235638E+01 -0.43927497365E+01  0.61035543012E+01  0.00000000000E+00 0.  1.
         12    1    4    4    0    0  0.53208469123E+02 -0.31168224561E+02  0.33585280925E+03  0.34146699532E+03  0.00000000000E+00 0. -1.
         -5    1    5    5    0  501 -0.30424935226E+02 -0.77332705803E+02  0.59383556898E+03  0.59964055655E+03  0.47000000000E+01 0.  1.
         11    1    6    6    0    0 -0.17935925428E+02 -0.17146995329E+02  0.69487584108E+03  0.69531874086E+03  0.00000000000E+00 0. -1.
        -12    1    6    6    0    0 -0.64274611202E+02  0.55189778187E+02  0.84074975469E+03  0.84500727054E+03  0.00000000000E+00 0.  1.
<mgrwt>
<rscale>  2 0.21131170E+03</rscale>
<asrwt>0</asrwt>
<pdfrwt beam="1">  1        2 0.47935726E+00 0.21131170E+03</pdfrwt>
<pdfrwt beam="2">  1       -2 0.25508003E-02 0.21131170E+03</pdfrwt>
<totfact> 0.96988195E+02</totfact>
</mgrwt>
</event>
<event>
12    1  0.4404304E-002  0.1799854E+03  0.7546771E-02  0.1167817E+00
          1   -1    0    0  502    0  0.00000000000E+00  0.00000000000E+00  0.38094861228E+03  0.38094861228E+03  0.00000000000E+00 0.  1.
         -1   -1    0    0    0  501 -0.00000000000E+00 -0.00000000000E+00 -0.12064244801E+03  0.12064244801E+03  0.00000000000E+00 0. -1.
          6    2    1    2  502    0  0.66953292271E+01  0.47939121629E+02 -0.67244517139E+01  0.17885962521E+03  0.17205394638E+03 0.  0.
         24    2    3    3    0    0 -0.46569283165E+02  0.15685518209E+02  0.41192524591E+02  0.10014786952E+03  0.76928785707E+02 0.  0.
         -6    2    1    2    0  501 -0.66953292271E+01 -0.47939121629E+02  0.26703061599E+03  0.32273143508E+03  0.17466322594E+03 0.  0.
        -24    2    5    5    0    0 -0.21603675730E+02 -0.93785525779E+02  0.14755611492E+03  0.19381131262E+03  0.80793404426E+02 0.  0.
          5    1    3    3  502    0  0.53264612392E+02  0.32253603420E+02 -0.47916976305E+02  0.78711755699E+02  0.47000000000E+01 0. -1.
        -11    1    4    4    0    0  0.78488775181E+01 -0.15360168307E+02 -0.93778023344E+01  0.19633716544E+02  0.00000000000E+00 0.  1.
         12    1    4    4    0    0 -0.54418160683E+02  0.31045686516E+02  0.50570326926E+02  0.80514152972E+02  0.00000000000E+00 0. -1.
         -5    1    5    5    0  501  0.14908346503E+02  0.45846404150E+02  0.11947450107E+03  0.12892012246E+03  0.47000000000E+01 0.  1.
         11    1    6    6    0    0  0.23064521609E+01 -0.29191072171E+02 -0.18009630952E+01  0.29337380322E+02  0.00000000000E+00 0. -1.
        -12    1    6    6    0    0 -0.23910127891E+02 -0.64594453608E+02  0.14935707802E+03  0.16447393230E+03  0.00000000000E+00 0.  1.
<mgrwt>
<rscale>  2 0.17998536E+03</rscale>
<asrwt>0</asrwt>
<pdfrwt beam="1">  1        1 0.58607478E-01 0.17998536E+03</pdfrwt>
<pdfrwt beam="2">  1       -1 0.18560377E-01 0.17998536E+03</pdfrwt>
<totfact> 0.14597648E+03</totfact>
</mgrwt>
</event>
<event>
12    1  0.4404304E-002  0.2228469E+03  0.7546771E-02  0.1131778E+00
         -1   -1    0    0    0  501 -0.00000000000E+00  0.00000000000E+00  0.46846525101E+03  0.46846525101E+03  0.00000000000E+00 0. -1.
          1   -1    0    0  502    0  0.00000000000E+00 -0.00000000000E+00 -0.10769309061E+03  0.10769309061E+03  0.00000000000E+00 0.  1.
          6    2    1    2  502    0 -0.11937467516E+03  0.74768388932E+02  0.21624447909E+03  0.31035511136E+03  0.17238908132E+03 0.  0.
         24    2    3    3    0    0 -0.33913758402E+02 -0.27584150704E+02  0.86217478768E+02  0.12405234306E+03  0.77746394094E+02 0.  0.
         -6    2    1    2    0  501  0.11937467516E+03 -0.74768388932E+02  0.14452768131E+03  0.26580323026E+03  0.17298115937E+03 0.  0.
        -24    2    5    5    0    0  0.11535673380E+02 -0.56602583215E+01  0.10180620660E+03  0.13070179272E+03  0.80952730867E+02 0.  0.
          5    1    3    3  502    0 -0.85460916763E+02  0.10235253964E+03  0.13002700032E+03  0.18630276830E+03  0.47000000000E+01 0. -1.
        -11    1    4    4    0    0 -0.24906364135E+02 -0.37932411132E+02  0.98147443750E+01  0.46427621044E+02  0.00000000000E+00 0.  1.
         12    1    4    4    0    0 -0.90073942677E+01  0.10348260428E+02  0.76402734393E+02  0.77624722016E+02  0.00000000000E+00 0. -1.
         -5    1    5    5    0  501  0.10783900178E+03 -0.69108130610E+02  0.42721474709E+02  0.13510143753E+03  0.47000000000E+01 0.  1.
         13    1    6    6    0    0  0.40212805676E+02  0.18282407160E+02  0.48417720002E+02  0.65540764125E+02  0.00000000000E+00 0. -1.
        -14    1    6    6    0    0 -0.28677132296E+02 -0.23942665482E+02  0.53388486598E+02  0.65161028600E+02  0.00000000000E+00 0.  1.
<mgrwt>
<rscale>  2 0.22284694E+03</rscale>
<asrwt>0</asrwt>
<pdfrwt beam="2">  1        1 0.16568168E-01 0.22284694E+03</pdfrwt>
<pdfrwt beam="1">  1       -1 0.72071576E-01 0.22284694E+03</pdfrwt>
<totfact> 0.66077870E+02</totfact>
</mgrwt>
</event>
<event>
12    1  0.4404304E-002  0.2143989E+03  0.7546771E-02  0.1138129E+00
         -2   -1    0    0    0  501 -0.00000000000E+00  0.00000000000E+00  0.13063880908E+03  0.13063880908E+03  0.00000000000E+00 0.  1.
          2   -1    0    0  502    0  0.00000000000E+00 -0.00000000000E+00 -0.35216539088E+03  0.35216539088E+03  0.00000000000E+00 0. -1.
          6    2    1    2  502    0  0.97235726586E+02 -0.77457498968E+02 -0.10297762395E+03  0.23534810032E+03  0.17125970518E+03 0.  0.
         24    2    3    3    0    0  0.30524807720E+02 -0.10799099322E+03 -0.79202330053E+02  0.15808235392E+03  0.78250897952E+02 0.  0.
         -6    2    1    2    0  501 -0.97235726586E+02  0.77457498968E+02 -0.11854895784E+03  0.24745609964E+03  0.17811854248E+03 0.  0.
        -24    2    5    5    0    0 -0.23365477800E+01  0.52975106834E+02 -0.11406537556E+03  0.14923474671E+03  0.80301172617E+02 0.  0.
          5    1    3    3  502    0  0.66710918866E+02  0.30533494254E+02 -0.23775293901E+02  0.77265746404E+02  0.47000000000E+01 0. -1.
        -11    1    4    4    0    0  0.12134407603E+02 -0.10142989718E+03 -0.89671214281E+02  0.13592716638E+03  0.00000000000E+00 0.  1.
         12    1    4    4    0    0  0.18390400117E+02 -0.65610960434E+01  0.10468884228E+02  0.22155187535E+02  0.00000000000E+00 0. -1.
         -5    1    5    5    0  501 -0.94899178806E+02  0.24482392134E+02 -0.44835822830E+01  0.98221352937E+02  0.47000000000E+01 0.  1.
         11    1    6    6    0    0 -0.37485781533E+02  0.46501465357E+02 -0.62074785964E+02  0.86144350656E+02  0.00000000000E+00 0. -1.
        -12    1    6    6    0    0  0.35149233753E+02  0.64736414771E+01 -0.51990589593E+02  0.63090396050E+02  0.00000000000E+00 0.  1.
<mgrwt>
<rscale>  2 0.21439890E+03</rscale>
<asrwt>0</asrwt>
<pdfrwt beam="2">  1        2 0.54179290E-01 0.21439890E+03</pdfrwt>
<pdfrwt beam="1">  1       -2 0.20098278E-01 0.21439890E+03</pdfrwt>
<totfact> 0.18987746E+03</totfact>
</mgrwt>
</event>
<event>
12    1  0.4404304E-002  0.1754127E+03  0.7546771E-02  0.1172318E+00
          1   -1    0    0  502    0  0.00000000000E+00  0.00000000000E+00  0.33102615872E+03  0.33102615872E+03  0.00000000000E+00 0. -1.
         -1   -1    0    0    0  501 -0.00000000000E+00 -0.00000000000E+00 -0.43779557141E+03  0.43779557141E+03  0.00000000000E+00 0.  1.
          6    2    1    2  502    0 -0.16416327942E+02  0.10876956810E+02 -0.39450432824E+03  0.43143816774E+03  0.17354372237E+03 0.  0.
         24    2    3    3    0    0  0.52120833316E+02 -0.12246711909E+02 -0.26296772235E+03  0.28125156642E+03  0.84165654503E+02 0.  0.
         -6    2    1    2    0  501  0.16416327942E+02 -0.10876956810E+02  0.28773491554E+03  0.33738356239E+03  0.17506708010E+03 0.  0.
        -24    2    5    5    0    0  0.62539831293E+02 -0.48742588666E+02  0.22117684822E+03  0.24786680439E+03  0.78941016470E+02 0.  0.
          5    1    3    3  502    0 -0.68537161258E+02  0.23123668719E+02 -0.13153660589E+03  0.15018660132E+03  0.47000000000E+01 0. -1.
        -11    1    4    4    0    0 -0.20806612504E+01 -0.28185711216E+02 -0.28746201964E+02  0.40312623275E+02  0.00000000000E+00 0.  1.
         12    1    4    4    0    0  0.54201494566E+02  0.15938999306E+02 -0.23422152039E+03  0.24093894314E+03  0.00000000000E+00 0. -1.
         -5    1    5    5    0  501 -0.46123503351E+02  0.37865631857E+02  0.66558067323E+02  0.89516758001E+02  0.47000000000E+01 0.  1.
         13    1    6    6    0    0 -0.13896052905E+02  0.81469346071E+00  0.80309718767E+01  0.16070486025E+02  0.00000000000E+00 0. -1.
        -14    1    6    6    0    0  0.76435884198E+02 -0.49557282127E+02  0.21314587634E+03  0.23179631836E+03  0.00000000000E+00 0.  1.
<mgrwt>
<rscale>  2 0.17541269E+03</rscale>
<asrwt>0</asrwt>
<pdfrwt beam="1">  1        1 0.50927102E-01 0.17541269E+03</pdfrwt>
<pdfrwt beam="2">  1       -1 0.67353164E-01 0.17541269E+03</pdfrwt>
<totfact> 0.18300638E+02</totfact>
</mgrwt>
</event>
<event>
12    1  0.4404304E-002  0.2527766E+03  0.7546771E-02  0.1111563E+00
         -2   -1    0    0    0  501 -0.00000000000E+00  0.00000000000E+00  0.11389596283E+03  0.11389596283E+03  0.00000000000E+00 0.  1.
          2   -1    0    0  502    0  0.00000000000E+00 -0.00000000000E+00 -0.74971280306E+03  0.74971280306E+03  0.00000000000E+00 0. -1.
          6    2    1    2  502    0  0.16464878880E+02  0.18341960815E+03 -0.53431592350E+03  0.59098696220E+03  0.17279536595E+03 0.  0.
         24    2    3    3    0    0  0.37062180315E+02  0.44208457147E+02 -0.13321601139E+03  0.16589024040E+03  0.80281213719E+02 0.  0.
         -6    2    1    2    0  501 -0.16464878880E+02 -0.18341960815E+03 -0.10150091673E+03  0.27262180369E+03  0.17351186375E+03 0.  0.
        -24    2    5    5    0    0 -0.18912643003E+02 -0.17359345586E+02 -0.17842162143E+02  0.86603311142E+02  0.80763579702E+02 0.  0.
          5    1    3    3  502    0 -0.20597301435E+02  0.13921115101E+03 -0.40109991210E+03  0.42509672180E+03  0.47000000000E+01 0. -1.
        -11    1    4    4    0    0 -0.25661676863E+02  0.14113409295E+02 -0.39956669267E+02  0.49540341140E+02  0.00000000000E+00 0.  1.
         12    1    4    4    0    0  0.62723857178E+02  0.30095047852E+02 -0.93259342126E+02  0.11634989926E+03  0.00000000000E+00 0. -1.
         -5    1    5    5    0  501  0.24477641231E+01 -0.16606026257E+03 -0.83658754582E+02  0.18601849255E+03  0.47000000000E+01 0.  1.
         13    1    6    6    0    0 -0.34552082213E+02 -0.42283342978E+02 -0.61869174015E+01  0.54954576021E+02  0.00000000000E+00 0. -1.
        -14    1    6    6    0    0  0.15639439210E+02  0.24923997392E+02 -0.11655244741E+02  0.31648735121E+02  0.00000000000E+00 0.  1.
<mgrwt>
<rscale>  2 0.25277663E+03</rscale>
<asrwt>0</asrwt>
<pdfrwt beam="2">  1        2 0.11534043E+00 0.25277663E+03</pdfrwt>
<pdfrwt beam="1">  1       -2 0.17522456E-01 0.25277663E+03</pdfrwt>
<totfact> 0.10174253E+03</totfact>
</mgrwt>
</event>
<event>
12    1  0.4404304E-002  0.2040962E+03  0.7546771E-02  0.1146328E+00
         -2   -1    0    0    0  501 -0.00000000000E+00  0.00000000000E+00  0.66585444643E+02  0.66585444643E+02  0.00000000000E+00 0. -1.
          2   -1    0    0  502    0  0.00000000000E+00 -0.00000000000E+00 -0.12120608409E+04  0.12120608409E+04  0.00000000000E+00 0.  1.
          6    2    1    2  502    0 -0.34371244904E+02  0.88228831496E+02 -0.11828082679E+03  0.22995907551E+03  0.17298876623E+03 0.  0.
         24    2    3    3    0    0 -0.49588313315E+02 -0.37458832353E+00 -0.18842304689E+02  0.95823938982E+02  0.79800085853E+02 0.  0.
         -6    2    1    2    0  501  0.34371244904E+02 -0.88228831496E+02 -0.10271945695E+04  0.10486872101E+04  0.18881332515E+03 0.  0.
        -24    2    5    5    0    0 -0.42079664225E+02 -0.30037032319E+02 -0.29503298639E+03  0.31023362264E+03  0.80793044903E+02 0.  0.
          5    1    3    3  502    0  0.15217068411E+02  0.88603419820E+02 -0.99438522100E+02  0.13413513653E+03  0.47000000000E+01 0. -1.
        -11    1    4    4    0    0  0.64066900373E+01  0.29555609357E+02 -0.30372581028E+01  0.30394155005E+02  0.00000000000E+00 0.  1.
         12    1    4    4    0    0 -0.55995003352E+02 -0.29930197681E+02 -0.15805046586E+02  0.65429783976E+02  0.00000000000E+00 0. -1.
         -5    1    5    5    0  501  0.76450909129E+02 -0.58191799177E+02 -0.73216158310E+03  0.73845358741E+03  0.47000000000E+01 0.  1.
         13    1    6    6    0    0 -0.42719014846E+02 -0.54908560907E+02 -0.23912964490E+03  0.24904387437E+03  0.00000000000E+00 0. -1.
        -14    1    6    6    0    0  0.63935062103E+00  0.24871528588E+02 -0.55903341494E+02  0.61189748273E+02  0.00000000000E+00 0.  1.
<mgrwt>
<rscale>  2 0.20409618E+03</rscale>
<asrwt>0</asrwt>
<pdfrwt beam="2">  1        2 0.18647089E+00 0.20409618E+03</pdfrwt>
<pdfrwt beam="1">  1       -2 0.10243915E-01 0.20409618E+03</pdfrwt>
<totfact> 0.12600526E+03</totfact>
</mgrwt>
</event>
<event>
12    1  0.4404304E-002  0.2608842E+03  0.7546771E-02  0.1106613E+00
          2   -1    0    0  502    0  0.00000000000E+00  0.00000000000E+00  0.43149214090E+03  0.43149214090E+03  0.00000000000E+00 0.  1.
         -2   -1    0    0    0  501 -0.00000000000E+00 -0.00000000000E+00 -0.19093256596E+03  0.19093256596E+03  0.00000000000E+00 0. -1.
          6    2    1    2  502    0 -0.66091353607E+02 -0.18306677197E+03  0.25023574429E+03  0.36184520272E+03  0.17444917022E+03 0.  0.
         24    2    3    3    0    0 -0.95179886237E+02 -0.19333275162E+03  0.23269339476E+03  0.32604915412E+03  0.75664201184E+02 0.  0.
         -6    2    1    2    0  501  0.66091353607E+02  0.18306677197E+03 -0.96761693476E+01  0.26057950414E+03  0.17299288916E+03 0.  0.
        -24    2    5    5    0    0  0.62738917797E+02  0.14911923906E+03 -0.66894122194E+02  0.19379883369E+03  0.83129086929E+02 0.  0.
          5    1    3    3  502    0  0.29088532630E+02  0.10265979649E+02  0.17542349535E+02  0.35796048608E+02  0.47000000000E+01 0. -1.
        -13    1    4    4    0    0 -0.23543395629E+01 -0.83554806139E+02  0.70849669204E+02  0.10957474239E+03  0.00000000000E+00 0.  1.
         14    1    4    4    0    0 -0.92825546675E+02 -0.10977794548E+03  0.16184372556E+03  0.21647441173E+03  0.00000000000E+00 0. -1.
         -5    1    5    5    0  501  0.33524358107E+01  0.33947532919E+02  0.57217952846E+02  0.66780670445E+02  0.47000000000E+01 0.  1.
         11    1    6    6    0    0  0.27782090279E+02  0.12701673176E+03 -0.20464966222E+02  0.13162032339E+03  0.00000000000E+00 0. -1.
        -12    1    6    6    0    0  0.34956827518E+02  0.22102507294E+02 -0.46429155972E+02  0.62178510300E+02  0.00000000000E+00 0.  1.
<mgrwt>
<rscale>  2 0.26088420E+03</rscale>
<asrwt>0</asrwt>
<pdfrwt beam="1">  1        2 0.66383406E-01 0.26088420E+03</pdfrwt>
<pdfrwt beam="2">  1       -2 0.29374241E-01 0.26088420E+03</pdfrwt>
<totfact> 0.78251185E+02</totfact>
</mgrwt>
</event>
<event>
12    1  0.4404304E-002  0.1751398E+03  0.7546771E-02  0.1172591E+00
          2   -1    0    0  502    0  0.00000000000E+00  0.00000000000E+00  0.86914523304E+03  0.86914523304E+03  0.00000000000E+00 0. -1.
         -2   -1    0    0    0  501 -0.00000000000E+00 -0.00000000000E+00 -0.16034105425E+03  0.16034105425E+03  0.00000000000E+00 0.  1.
          6    2    1    2  502    0  0.83516533039E+01  0.87559192276E+01  0.80829993821E+03  0.82674006279E+03  0.17321641112E+03 0.  0.
         24    2    3    3    0    0  0.13294135491E+02  0.52217248870E+01  0.16881655825E+03  0.18721054674E+03  0.79653989361E+02 0.  0.
         -6    2    1    2    0  501 -0.83516533039E+01 -0.87559192276E+01 -0.99495759413E+02  0.20274622451E+03  0.17623906824E+03 0.  0.
        -24    2    5    5    0    0 -0.69572396920E+02 -0.14841606621E+02 -0.34030102219E+02  0.11278591486E+03  0.80635122826E+02 0.  0.
          5    1    3    3  502    0 -0.49424821871E+01  0.35341943406E+01  0.63948337995E+03  0.63952951605E+03  0.47000000000E+01 0. -1.
        -13    1    4    4    0    0 -0.17722787630E+02 -0.29285096951E+02  0.79672889633E+02  0.86714955153E+02  0.00000000000E+00 0.  1.
         14    1    4    4    0    0  0.31016923121E+02  0.34506821838E+02  0.89143668619E+02  0.10049559159E+03  0.00000000000E+00 0. -1.
         -5    1    5    5    0  501  0.61220743616E+02  0.60856873939E+01 -0.65465657195E+02  0.89960309647E+02  0.47000000000E+01 0.  1.
         13    1    6    6    0    0  0.66324199339E+01 -0.29103406182E+02 -0.12169151312E+02  0.32234848988E+02  0.00000000000E+00 0. -1.
        -14    1    6    6    0    0 -0.76204816854E+02  0.14261799561E+02 -0.21860950907E+02  0.80551065871E+02  0.00000000000E+00 0.  1.
<mgrwt>
<rscale>  2 0.17513976E+03</rscale>
<asrwt>0</asrwt>
<pdfrwt beam="1">  1        2 0.13371465E+00 0.17513976E+03</pdfrwt>
<pdfrwt beam="2">  1       -2 0.24667855E-01 0.17513976E+03</pdfrwt>
<totfact> 0.47013572E+02</totfact>
</mgrwt>
</event>
<event>
12    1  0.4404304E-002  0.3654811E+03  0.7546771E-02  0.1056434E+00
          2   -1    0    0  502    0  0.00000000000E+00  0.00000000000E+00  0.71939717389E+03  0.71939717389E+03  0.00000000000E+00 0. -1.
         -2   -1    0    0    0  501 -0.00000000000E+00 -0.00000000000E+00 -0.19577401418E+03  0.19577401418E+03  0.00000000000E+00 0.  1.
          6    2    1    2  502    0 -0.63344478213E+02 -0.31964809573E+03  0.16035462071E+03  0.40231475692E+03  0.17307839618E+03 0.  0.
         24    2    3    3    0    0  0.13926145284E+02 -0.25012538274E+03  0.14526096279E+03  0.29717644141E+03  0.66756613218E+02 0.  0.
         -6    2    1    2    0  501  0.63344478213E+02  0.31964809573E+03  0.36326853899E+03  0.51285643116E+03  0.15770307395E+03 0.  0.
        -24    2    5    5    0    0  0.33969980146E+02  0.29895824262E+03  0.26714813673E+03  0.41013275866E+03  0.79440307084E+02 0.  0.
          5    1    3    3  502    0 -0.77270623497E+02 -0.69522712989E+02  0.15093657924E+02  0.10513831550E+03  0.47000000000E+01 0. -1.
        -11    1    4    4    0    0  0.11166298701E+01 -0.23905847086E+03  0.14619973065E+03  0.28022234136E+03  0.00000000000E+00 0.  1.
         12    1    4    4    0    0  0.12809515414E+02 -0.11066911880E+02 -0.93876786378E+00  0.16954100058E+02  0.00000000000E+00 0. -1.
         -5    1    5    5    0  501  0.29374498067E+02  0.20689853107E+02  0.96120402269E+02  0.10272367249E+03  0.47000000000E+01 0.  1.
         11    1    6    6    0    0  0.44249009275E+02  0.18213211730E+03  0.20363203340E+03  0.27675998265E+03  0.00000000000E+00 0. -1.
        -12    1    6    6    0    0 -0.10279029129E+02  0.11682612533E+03  0.63516103328E+02  0.13337277601E+03  0.00000000000E+00 0.  1.
<mgrwt>
<rscale>  2 0.36548108E+03</rscale>
<asrwt>0</asrwt>
<pdfrwt beam="1">  1        2 0.11067649E+00 0.36548108E+03</pdfrwt>
<pdfrwt beam="2">  1       -2 0.30119080E-01 0.36548108E+03</pdfrwt>
<totfact> 0.41189155E+02</totfact>
</mgrwt>
</event>
<event>
12    1  0.4404304E-002  0.2907466E+03  0.7546771E-02  0.1089960E+00
         -1   -1    0    0    0  501 -0.00000000000E+00  0.00000000000E+00  0.16524716838E+04  0.16524716838E+04  0.00000000000E+00 0. -1.
          1   -1    0    0  502    0  0.00000000000E+00 -0.00000000000E+00 -0.75430745136E+02  0.75430745136E+02  0.00000000000E+00 0.  1.
          6    2    1    2  502    0 -0.21403702993E+03  0.94467601700E+02  0.12782119773E+04  0.13108117238E+04  0.17223686668E+03 0.  0.
         24    2    3    3    0    0 -0.10396751964E+03 -0.41418933381E+01  0.78827580546E+03  0.79905135786E+03  0.79233368070E+02 0.  0.
         -6    2    1    2    0  501  0.21403702993E+03 -0.94467601700E+02  0.29882896135E+03  0.41709070518E+03  0.17300268856E+03 0.  0.
        -24    2    5    5    0    0  0.63923021512E+02  0.16033299112E+02  0.10260861929E+03  0.14640790698E+03  0.81015597956E+02 0.  0.
          5    1    3    3  502    0 -0.11006951029E+03  0.98609495038E+02  0.48993617186E+03  0.51176036590E+03  0.47000000000E+01 0. -1.
        -11    1    4    4    0    0 -0.61180360644E+02 -0.42404885701E+01  0.19927079381E+03  0.20849428658E+03  0.00000000000E+00 0.  1.
         12    1    4    4    0    0 -0.42787158995E+02  0.98595231912E-01  0.58900501164E+03  0.59055707128E+03  0.00000000000E+00 0. -1.
         -5    1    5    5    0  501  0.15011400842E+03 -0.11050090081E+03  0.19622034206E+03  0.27068279820E+03  0.47000000000E+01 0.  1.
         13    1    6    6    0    0  0.77828165131E+02  0.29115646480E+02  0.70133998450E+02  0.10873693897E+03  0.00000000000E+00 0. -1.
        -14    1    6    6    0    0 -0.13905143619E+02 -0.13082347367E+02  0.32474620844E+02  0.37670968009E+02  0.00000000000E+00 0.  1.
<mgrwt>
<rscale>  2 0.29074664E+03</rscale>
<asrwt>0</asrwt>
<pdfrwt beam="2">  1        1 0.11604731E-01 0.29074664E+03</pdfrwt>
<pdfrwt beam="1">  1       -1 0.25422639E+00 0.29074664E+03</pdfrwt>
<totfact> 0.39101499E+01</totfact>
</mgrwt>
</event>
<event>
12    1  0.4404304E-002  0.1919216E+03  0.7546771E-02  0.1156740E+00
          4   -1    0    0  502    0  0.00000000000E+00  0.00000000000E+00  0.96536702977E+02  0.96536702977E+02  0.00000000000E+00 0.  1.
         -4   -1    0    0    0  501 -0.00000000000E+00 -0.00000000000E+00 -0.61751089472E+03  0.61751089472E+03  0.00000000000E+00 0. -1.
          6    2    1    2  502    0 -0.40226964164E+02 -0.70627370327E+02 -0.48066973587E+03  0.51734398626E+03  0.17319056282E+03 0.  0.
         24    2    3    3    0    0 -0.48512412699E+02 -0.10269193428E+03 -0.26777598134E+03  0.30183847441E+03  0.80643666213E+02 0.  0.
         -6    2    1    2    0  501  0.40226964164E+02  0.70627370327E+02 -0.40304455867E+02  0.19670361143E+03  0.17453202429E+03 0.  0.
        -24    2    5    5    0    0 -0.13968864796E+02  0.56591288242E+02 -0.81580936514E+02  0.12698964345E+03  0.77930849176E+02 0.  0.
          5    1    3    3  502    0  0.82854485351E+01  0.32064563948E+02 -0.21289375454E+03  0.21550551185E+03  0.47000000000E+01 0. -1.
        -11    1    4    4    0    0  0.13803678393E+02 -0.63877026276E+02 -0.11309134808E+03  0.13061573042E+03  0.00000000000E+00 0.  1.
         12    1    4    4    0    0 -0.62316091092E+02 -0.38814907999E+02 -0.15468463326E+03  0.17122274399E+03  0.00000000000E+00 0. -1.
         -5    1    5    5    0  501  0.54195828960E+02  0.14036082086E+02  0.41276480647E+02  0.69713967980E+02  0.47000000000E+01 0.  1.
         11    1    6    6    0    0  0.15025181207E+02  0.32766468716E+02 -0.81877681492E+02  0.89461456891E+02  0.00000000000E+00 0. -1.
        -12    1    6    6    0    0 -0.28994046003E+02  0.23824819526E+02  0.29674497874E+00  0.37528186562E+02  0.00000000000E+00 0.  1.
<mgrwt>
<rscale>  2 0.19192159E+03</rscale>
<asrwt>0</asrwt>
<pdfrwt beam="1">  1        4 0.14851801E-01 0.19192159E+03</pdfrwt>
<pdfrwt beam="2">  1       -4 0.95001672E-01 0.19192159E+03</pdfrwt>
<totfact> 0.65280737E+01</totfact>
</mgrwt>
</event>
<event>
12    1  0.5123152E-002  0.1823737E+03  0.7546771E-02  0.1165525E+00
          2   -1    0    0  502    0  0.00000000000E+00  0.00000000000E+00  0.14889840559E+04  0.14889840559E+04  0.00000000000E+00 0.  1.
         -2   -1    0    0    0  501 -0.00000000000E+00 -0.00000000000E+00 -0.26507685201E+02  0.26507685201E+02  0.00000000000E+00 0. -1.
          6    2    1    2  502    0 -0.53087477100E+02  0.11695587250E+02  0.10312918578E+04  0.10472676961E+04  0.17393005611E+03 0.  0.
         24    2    3    3    0    0  0.25768510497E+02 -0.23040495926E+02  0.59577741247E+03  0.60328595738E+03  0.88364815286E+02 0.  0.
         -6    2    1    2    0  501  0.53087477100E+02 -0.11695587250E+02  0.43118451290E+03  0.46822404497E+03  0.17423720939E+03 0.  0.
        -24    2    5    5    0    0  0.10331056766E+03 -0.16715582644E+01  0.28804311435E+03  0.31612411084E+03  0.79307945578E+02 0.  0.
          5    1    3    3  502    0 -0.78855987597E+02  0.34736083176E+02  0.43551444532E+03  0.44398173874E+03  0.47000000000E+01 0. -1.
        -11    1    4    4    0    0  0.15986231049E+02  0.21227944644E+02  0.44615641844E+03  0.44694712767E+03  0.00000000000E+00 0.  1.
         12    1    4    4    0    0  0.97822794477E+01 -0.44268440570E+02  0.14962099404E+03  0.15633882972E+03  0.00000000000E+00 0. -1.
         -5    1    5    5    0  501 -0.50223090563E+02 -0.10024028985E+02  0.14314139856E+03  0.15209993413E+03  0.47000000000E+01 0.  1.
         13    1    6    6    0    0  0.19410604833E+02  0.12731971526E+02  0.98838485433E+01  0.25230242587E+02  0.00000000000E+00 0. -1.
        -14    1    6    6    0    0  0.83899962830E+02 -0.14403529791E+02  0.27815926580E+03  0.29089386825E+03  0.00000000000E+00 0.  1.
<mgrwt>
<rscale>  2 0.18237368E+03</rscale>
<asrwt>0</asrwt>
<pdfrwt beam="1">  1        2 0.22907440E+00 0.18237368E+03</pdfrwt>
<pdfrwt beam="2">  1       -2 0.40781066E-02 0.18237368E+03</pdfrwt>
<totfact> 0.36761908E+03</totfact>
</mgrwt>
</event>
<event>
12    1  0.4404304E-002  0.1860751E+03  0.7546771E-02  0.1162050E+00
         -1   -1    0    0    0  501 -0.00000000000E+00  0.00000000000E+00  0.13214712408E+03  0.13214712408E+03  0.00000000000E+00 0.  1.
          1   -1    0    0  502    0  0.00000000000E+00 -0.00000000000E+00 -0.28883316383E+03  0.28883316383E+03  0.00000000000E+00 0. -1.
          6    2    1    2  502    0 -0.71284451669E+02  0.18041355674E+02 -0.13570945971E+02  0.18486198756E+03  0.16906454480E+03 0.  0.
         24    2    3    3    0    0 -0.80715590229E+02 -0.27153022818E+02  0.31230583749E+02  0.12035814824E+03  0.79110311168E+02 0.  0.
         -6    2    1    2    0  501  0.71284451669E+02 -0.18041355674E+02 -0.14311509378E+03  0.23611830034E+03  0.17280902211E+03 0.  0.
        -24    2    5    5    0    0  0.65978049413E+02 -0.58815682819E+02 -0.15267006221E+03  0.19364370698E+03  0.79858310835E+02 0.  0.
          5    1    3    3  502    0  0.94311385599E+01  0.45194378492E+02 -0.44801529720E+02  0.64503839321E+02  0.47000000000E+01 0. -1.
        -11    1    4    4    0    0 -0.96724289700E+02 -0.26143319195E+02  0.26962466688E+02  0.10375951025E+03  0.00000000000E+00 0.  1.
         12    1    4    4    0    0  0.16008699471E+02 -0.10097036233E+01  0.42681170619E+01  0.16598637998E+02  0.00000000000E+00 0. -1.
         -5    1    5    5    0  501  0.53064022561E+01  0.40774327145E+02  0.95549684266E+01  0.42474593355E+02  0.47000000000E+01 0.  1.
         11    1    6    6    0    0  0.29979739738E+02 -0.25694828988E+02 -0.13654244497E+03  0.14213672400E+03  0.00000000000E+00 0. -1.
        -12    1    6    6    0    0  0.35998309675E+02 -0.33120853831E+02 -0.16127617237E+02  0.51506982980E+02  0.00000000000E+00 0.  1.
<mgrwt>
<rscale>  2 0.18607508E+03</rscale>
<asrwt>0</asrwt>
<pdfrwt beam="2">  1        1 0.44435871E-01 0.18607508E+03</pdfrwt>
<pdfrwt beam="1">  1       -1 0.20330327E-01 0.18607508E+03</pdfrwt>
<totfact> 0.17856896E+03</totfact>
</mgrwt>
</event>
<event>
12    1  0.4404304E-002  0.2352639E+03  0.7546771E-02  0.1122989E+00
          1   -1    0    0  502    0  0.00000000000E+00  0.00000000000E+00  0.13723705817E+03  0.13723705817E+03  0.00000000000E+00 0.  1.
         -1   -1    0    0    0  501 -0.00000000000E+00 -0.00000000000E+00 -0.40739270160E+03  0.40739270160E+03  0.00000000000E+00 0. -1.
          6    2    1    2  502    0 -0.58881280501E+02 -0.14798958617E+03 -0.16247763590E+03  0.28612135340E+03  0.17348926161E+03 0.  0.
         24    2    3    3    0    0  0.33657883514E+02 -0.57477487342E+02 -0.62838744669E+02  0.12270184552E+03  0.81673253807E+02 0.  0.
         -6    2    1    2    0  501  0.58881280501E+02  0.14798958617E+03 -0.10767800753E+03  0.25850840636E+03  0.17281238395E+03 0.  0.
        -24    2    5    5    0    0  0.64639775654E+02  0.13281273421E+03 -0.20748006627E+02  0.16995101165E+03  0.81457618532E+02 0.  0.
          5    1    3    3  502    0 -0.92539164014E+02 -0.90512098832E+02 -0.99638891235E+02  0.16341950789E+03  0.47000000000E+01 0. -1.
        -11    1    4    4    0    0 -0.74283247015E+01 -0.11550255691E+02  0.16995946390E+02  0.21850643196E+02  0.00000000000E+00 0.  1.
         12    1    4    4    0    0  0.41086208215E+02 -0.45927231651E+02 -0.79834691059E+02  0.10085120232E+03  0.00000000000E+00 0. -1.
         -5    1    5    5    0  501 -0.57584951534E+01  0.15176851968E+02 -0.86930000900E+02  0.88557394714E+02  0.47000000000E+01 0.  1.
         13    1    6    6    0    0  0.17780123096E+02  0.51691683115E+02 -0.47612913172E+02  0.72492429820E+02  0.00000000000E+00 0. -1.
        -14    1    6    6    0    0  0.46859652558E+02  0.81121051091E+02  0.26864906545E+02  0.97458581827E+02  0.00000000000E+00 0.  1.
<mgrwt>
<rscale>  2 0.23526394E+03</rscale>
<asrwt>0</asrwt>
<pdfrwt beam="1">  1        1 0.21113394E-01 0.23526394E+03</pdfrwt>
<pdfrwt beam="2">  1       -1 0.62675799E-01 0.23526394E+03</pdfrwt>
<totfact> 0.63642734E+02</totfact>
</mgrwt>
</event>
<event>
12    1  0.4404304E-002  0.2729609E+03  0.7546771E-02  0.1099597E+00
         -1   -1    0    0    0  501 -0.00000000000E+00  0.00000000000E+00  0.70531545455E+02  0.70531545455E+02  0.00000000000E+00 0. -1.
          1   -1    0    0  502    0  0.00000000000E+00 -0.00000000000E+00 -0.11057284769E+04  0.11057284769E+04  0.00000000000E+00 0.  1.
          6    2    1    2  502    0  0.11547814663E+03  0.17863010507E+03 -0.39468263003E+03  0.48029543979E+03  0.17223650671E+03 0.  0.
         24    2    3    3    0    0 -0.49054867357E+01  0.63492130133E+02 -0.16368621848E+03  0.19546144497E+03  0.85771113781E+02 0.  0.
         -6    2    1    2    0  501 -0.11547814663E+03 -0.17863010507E+03 -0.64051430136E+03  0.69596458252E+03  0.16989471175E+03 0.  0.
        -24    2    5    5    0    0 -0.12034916651E+03 -0.19834599871E+03 -0.61980546836E+03  0.66658109972E+03  0.79664840547E+02 0.  0.
          5    1    3    3  502    0  0.12038363337E+03  0.11513797494E+03 -0.23099641155E+03  0.28483399482E+03  0.47000000000E+01 0. -1.
        -13    1    4    4    0    0  0.37650905620E+02  0.48545404793E+02 -0.87243433484E+02  0.10670362556E+03  0.00000000000E+00 0.  1.
         14    1    4    4    0    0 -0.42556392356E+02  0.14946725339E+02 -0.76442784996E+02  0.88757819412E+02  0.00000000000E+00 0. -1.
         -5    1    5    5    0  501  0.48710198785E+01  0.19715893640E+02 -0.20708833007E+02  0.29383482795E+02  0.47000000000E+01 0.  1.
         11    1    6    6    0    0 -0.31030143458E+02 -0.72386679301E+02 -0.12059081288E+03  0.14403070956E+03  0.00000000000E+00 0. -1.
        -12    1    6    6    0    0 -0.89319023056E+02 -0.12595931941E+03 -0.49921465547E+03  0.52255039017E+03  0.00000000000E+00 0.  1.
<mgrwt>
<rscale>  2 0.27296090E+03</rscale>
<asrwt>0</asrwt>
<pdfrwt beam="2">  1        1 0.17011207E+00 0.27296090E+03</pdfrwt>
<pdfrwt beam="1">  1       -1 0.10851007E-01 0.27296090E+03</pdfrwt>
<totfact> 0.71880604E+02</totfact>
</mgrwt>
</event>
<event>
12    1  0.4404304E-002  0.2111568E+03  0.7546771E-02  0.1140653E+00
         -2   -1    0    0    0  501 -0.00000000000E+00  0.00000000000E+00  0.49672904238E+02  0.49672904238E+02  0.00000000000E+00 0.  1.
          2   -1    0    0  502    0  0.00000000000E+00 -0.00000000000E+00 -0.10374624055E+04  0.10374624055E+04  0.00000000000E+00 0. -1.
          6    2    1    2  502    0  0.21111582345E+02  0.11982959876E+03 -0.29282648935E+03  0.36058409438E+03  0.17166451178E+03 0.  0.
         24    2    3    3    0    0 -0.18911754636E+02  0.83325426753E+02 -0.27765632446E+03  0.30413370926E+03  0.90019427847E+02 0.  0.
         -6    2    1    2    0  501 -0.21111582345E+02 -0.11982959876E+03 -0.69496301195E+03  0.72655121540E+03  0.17348846928E+03 0.  0.
        -24    2    5    5    0    0 -0.70807385860E+02 -0.65056612304E+02 -0.30819567963E+03  0.33274820337E+03  0.80565136436E+02 0.  0.
          5    1    3    3  502    0  0.40023336981E+02  0.36504172004E+02 -0.15170164894E+02  0.56450385116E+02  0.47000000000E+01 0. -1.
        -11    1    4    4    0    0  0.13698229899E+02  0.43373678880E+02 -0.38837770438E+02  0.59810450045E+02  0.00000000000E+00 0.  1.
         12    1    4    4    0    0 -0.32609984535E+02  0.39951747873E+02 -0.23881855402E+03  0.24432325922E+03  0.00000000000E+00 0. -1.
         -5    1    5    5    0  501  0.49695803515E+02 -0.54772986453E+02 -0.38676733232E+03  0.39380301203E+03  0.47000000000E+01 0.  1.
         11    1    6    6    0    0 -0.43391272385E+02  0.99448453746E+01 -0.13191149203E+03  0.13922048771E+03  0.00000000000E+00 0. -1.
        -12    1    6    6    0    0 -0.27416113475E+02 -0.75001457679E+02 -0.17628418760E+03  0.19352771566E+03  0.00000000000E+00 0.  1.
<mgrwt>
<rscale>  2 0.21115681E+03</rscale>
<asrwt>0</asrwt>
<pdfrwt beam="2">  1        2 0.15960960E+00 0.21115681E+03</pdfrwt>
<pdfrwt beam="1">  1       -2 0.76419854E-02 0.21115681E+03</pdfrwt>
<totfact> 0.25203976E+03</totfact>
</mgrwt>
</event>
<event>
12    1  0.4404304E-002  0.2359665E+03  0.7546771E-02  0.1122509E+00
         -1   -1    0    0    0  501 -0.00000000000E+00  0.00000000000E+00  0.57080864191E+02  0.57080864191E+02  0.00000000000E+00 0.  1.
          1   -1    0    0  502    0  0.00000000000E+00 -0.00000000000E+00 -0.10190467765E+04  0.10190467765E+04  0.00000000000E+00 0. -1.
          6    2    1    2  502    0  0.28831264346E+02  0.15722775320E+03 -0.37217071722E+03  0.44134085212E+03  0.17526807129E+03 0.  0.
         24    2    3    3    0    0 -0.44804151540E+02  0.78481419526E+02 -0.13648459740E+03  0.18212434683E+03  0.79840385608E+02 0.  0.
         -6    2    1    2    0  501 -0.28831264346E+02 -0.15722775320E+03 -0.58979519509E+03  0.63478678857E+03  0.17188393356E+03 0.  0.
        -24    2    5    5    0    0 -0.47641185227E+02 -0.14408518476E+02 -0.20801931745E+03  0.22671074458E+03  0.75156086530E+02 0.  0.
          5    1    3    3  502    0  0.73635415886E+02  0.78746333671E+02 -0.23568611982E+03  0.25921650529E+03  0.47000000000E+01 0. -1.
        -13    1    4    4    0    0 -0.49861256753E+02  0.77769372741E+02 -0.14515675254E+03  0.17206017282E+03  0.00000000000E+00 0.  1.
         14    1    4    4    0    0  0.50571052136E+01  0.71204678471E+00  0.86721551401E+01  0.10064174012E+02  0.00000000000E+00 0. -1.
         -5    1    5    5    0  501  0.18809920881E+02 -0.14281923472E+03 -0.38177587764E+03  0.40807604399E+03  0.47000000000E+01 0.  1.
         11    1    6    6    0    0  0.13691916161E+02  0.16052431386E+02 -0.60445485157E+02  0.64021916540E+02  0.00000000000E+00 0. -1.
        -12    1    6    6    0    0 -0.61333101389E+02 -0.30460949862E+02 -0.14757383229E+03  0.16268882804E+03  0.00000000000E+00 0.  1.
<mgrwt>
<rscale>  2 0.23596653E+03</rscale>
<asrwt>0</asrwt>
<pdfrwt beam="2">  1        1 0.15677643E+00 0.23596653E+03</pdfrwt>
<pdfrwt beam="1">  1       -1 0.87816711E-02 0.23596653E+03</pdfrwt>
<totfact> 0.11559461E+03</totfact>
</mgrwt>
</event>
<event>
12    1  0.4404304E-002  0.1998970E+03  0.7546771E-02  0.1149826E+00
         -1   -1    0    0    0  501 -0.00000000000E+00  0.00000000000E+00  0.31332270804E+02  0.31332270804E+02  0.00000000000E+00 0.  1.
          1   -1    0    0  502    0  0.00000000000E+00 -0.00000000000E+00 -0.12756864308E+04  0.12756864308E+04  0.00000000000E+00 0. -1.
          6    2    1    2  502    0  0.91014370388E+02 -0.48478200759E+02 -0.61075237482E+03  0.64258989536E+03  0.17108348459E+03 0.  0.
         24    2    3    3    0    0 -0.58211201101E+01 -0.17458391210E+02 -0.15503177537E+03  0.17563947447E+03  0.80471689147E+02 0.  0.
         -6    2    1    2    0  501 -0.91014370388E+02  0.48478200759E+02 -0.63360178514E+03  0.66442880621E+03  0.17140789021E+03 0.  0.
        -24    2    5    5    0    0 -0.47436113514E+02 -0.20495264163E+00 -0.55181041162E+03  0.55963838356E+03  0.80312907508E+02 0.  0.
          5    1    3    3  502    0  0.96835490498E+02 -0.31019809548E+02 -0.45572059945E+03  0.46695042089E+03  0.47000000000E+01 0. -1.
        -13    1    4    4    0    0 -0.57744519728E+00 -0.32634485603E+02 -0.15616840939E+03  0.15954283182E+03  0.00000000000E+00 0.  1.
         14    1    4    4    0    0 -0.52436749128E+01  0.15176094393E+02  0.11366340217E+01  0.16096642647E+02  0.00000000000E+00 0. -1.
         -5    1    5    5    0  501 -0.43578256874E+02  0.48683153400E+02 -0.81791373526E+02  0.10479042266E+03  0.47000000000E+01 0.  1.
         13    1    6    6    0    0 -0.61646403408E+02  0.23220560160E+02 -0.39159083985E+03  0.39709301092E+03  0.00000000000E+00 0. -1.
        -14    1    6    6    0    0  0.14210289894E+02 -0.23425512802E+02 -0.16021957176E+03  0.16254537263E+03  0.00000000000E+00 0.  1.
<mgrwt>
<rscale>  2 0.19989704E+03</rscale>
<asrwt>0</asrwt>
<pdfrwt beam="2">  1        1 0.19625940E+00 0.19989704E+03</pdfrwt>
<pdfrwt beam="1">  1       -1 0.48203507E-02 0.19989704E+03</pdfrwt>
<totfact> 0.18851556E+03</totfact>
</mgrwt>
</event>
<event>
12    1  0.4404304E-002  0.1786730E+03  0.7546771E-02  0.1169093E+00
         -2   -1    0    0    0  501 -0.00000000000E+00  0.00000000000E+00  0.67756387813E+02  0.67756387813E+02  0.00000000000E+00 0.  1.
          2   -1    0    0  502    0  0.00000000000E+00 -0.00000000000E+00 -0.16891451108E+04  0.16891451108E+04  0.00000000000E+00 0. -1.
          6    2    1    2  502    0 -0.21531337612E+02 -0.21749596862E+02 -0.61696757437E+02  0.18672601237E+03  0.17356114299E+03 0.  0.
         24    2    3    3    0    0 -0.14721860297E+02  0.47074327060E+02 -0.71294221465E+02  0.11674528073E+03  0.78191234293E+02 0.  0.
         -6    2    1    2    0  501  0.21531337612E+02  0.21749596862E+02 -0.15596919655E+04  0.15701754862E+04  0.17853679375E+03 0.  0.
        -24    2    5    5    0    0 -0.51884874525E+02 -0.67691055380E+01 -0.67009290948E+03  0.67708432227E+03  0.81736229058E+02 0.  0.
          5    1    3    3  502    0 -0.68094773149E+01 -0.68823923922E+02  0.95974640287E+01  0.69980731641E+02  0.47000000000E+01 0. -1.
        -11    1    4    4    0    0 -0.41295322955E+02  0.18066631534E+02 -0.13911341953E+02  0.47172368054E+02  0.00000000000E+00 0.  1.
         12    1    4    4    0    0  0.26573462658E+02  0.29007695526E+02 -0.57382879513E+02  0.69572912678E+02  0.00000000000E+00 0. -1.
         -5    1    5    5    0  501  0.73416212137E+02  0.28518702400E+02 -0.88959905603E+03  0.89309116392E+03  0.47000000000E+01 0.  1.
         11    1    6    6    0    0  0.53827687498E+01  0.24164729077E+02 -0.32257308777E+03  0.32352172305E+03  0.00000000000E+00 0. -1.
        -12    1    6    6    0    0 -0.57267643275E+02 -0.30933834615E+02 -0.34751982170E+03  0.35356259922E+03  0.00000000000E+00 0.  1.
<mgrwt>
<rscale>  2 0.17867304E+03</rscale>
<asrwt>0</asrwt>
<pdfrwt beam="2">  1        2 0.25986844E+00 0.17867304E+03</pdfrwt>
<pdfrwt beam="1">  1       -2 0.10424061E-01 0.17867304E+03</pdfrwt>
<totfact> 0.68287875E+02</totfact>
</mgrwt>
</event>
<event>
12    1  0.4404304E-002  0.2427198E+03  0.7546771E-02  0.1117994E+00
          2   -1    0    0  502    0  0.00000000000E+00  0.00000000000E+00  0.67715361201E+03  0.67715361201E+03  0.00000000000E+00 0. -1.
         -2   -1    0    0    0  501 -0.00000000000E+00 -0.00000000000E+00 -0.90762969792E+02  0.90762969792E+02  0.00000000000E+00 0.  1.
          6    2    1    2  502    0 -0.54695858586E+02 -0.16209038731E+03  0.37115883594E+03  0.44337903406E+03  0.17193357943E+03 0.  0.
         24    2    3    3    0    0  0.29553858053E+02 -0.50946914071E+02  0.19116351447E+03  0.21562633451E+03  0.80512162377E+02 0.  0.
         -6    2    1    2    0  501  0.54695858586E+02  0.16209038731E+03  0.21523180628E+03  0.32453754775E+03  0.17243827550E+03 0.  0.
        -24    2    5    5    0    0  0.34661937999E+02  0.13019672620E+03  0.23435102189E+03  0.28203815953E+03  0.80451752679E+02 0.  0.
          5    1    3    3  502    0 -0.84249716640E+02 -0.11114347324E+03  0.17999532147E+03  0.22775269955E+03  0.47000000000E+01 0. -1.
        -11    1    4    4    0    0  0.45087602879E+02 -0.57912783431E+02  0.10696441677E+03  0.12972343224E+03  0.00000000000E+00 0.  1.
         12    1    4    4    0    0 -0.15533744826E+02  0.69658693600E+01  0.84199097701E+02  0.85902902268E+02  0.00000000000E+00 0. -1.
         -5    1    5    5    0  501  0.20033920588E+02  0.31893661115E+02 -0.19119215613E+02  0.42499388220E+02  0.47000000000E+01 0.  1.
         11    1    6    6    0    0  0.56598545309E+02  0.77120004834E+02  0.11498212484E+03  0.14957198772E+03  0.00000000000E+00 0. -1.
        -12    1    6    6    0    0 -0.21936607310E+02  0.53076721365E+02  0.11936889705E+03  0.13246617181E+03  0.00000000000E+00 0.  1.
<mgrwt>
<rscale>  2 0.24271985E+03</rscale>
<asrwt>0</asrwt>
<pdfrwt beam="1">  1        2 0.10417748E+00 0.24271985E+03</pdfrwt>
<pdfrwt beam="2">  1       -2 0.13963534E-01 0.24271985E+03</pdfrwt>
<totfact> 0.16809274E+03</totfact>
</mgrwt>
</event>
<event>
12    1  0.4404304E-002  0.3192893E+03  0.7546771E-02  0.1075977E+00
         -1   -1    0    0    0  501 -0.00000000000E+00  0.00000000000E+00  0.98684776620E+02  0.98684776620E+02  0.00000000000E+00 0. -1.
          1   -1    0    0  502    0  0.00000000000E+00 -0.00000000000E+00 -0.10523880155E+04  0.10523880155E+04  0.00000000000E+00 0.  1.
          6    2    1    2  502    0  0.12048691627E+03 -0.24562286775E+03 -0.39275277086E+03  0.50340721956E+03  0.15593716534E+03 0.  0.
         24    2    3    3    0    0  0.61790918595E+02 -0.20117161200E+03 -0.21685919773E+03  0.31266715206E+03  0.80278896634E+02 0.  0.
         -6    2    1    2    0  501 -0.12048691627E+03  0.24562286775E+03 -0.56095046806E+03  0.64766557259E+03  0.17308257033E+03 0.  0.
        -24    2    5    5    0    0 -0.49777421987E+02  0.70154718141E+02 -0.11945072900E+03  0.16731880858E+03  0.79546406763E+02 0.  0.
          5    1    3    3  502    0  0.58695997676E+02 -0.44451255755E+02 -0.17589357313E+03  0.19074006750E+03  0.47000000000E+01 0. -1.
        -11    1    4    4    0    0  0.59197770744E+02 -0.14671999089E+03 -0.20119033045E+03  0.25594663673E+03  0.00000000000E+00 0.  1.
         12    1    4    4    0    0  0.25931478510E+01 -0.54451621112E+02 -0.15668867272E+02  0.56720515328E+02  0.00000000000E+00 0. -1.
         -5    1    5    5    0  501 -0.70709494284E+02  0.17546814961E+03 -0.44149973905E+03  0.48034676401E+03  0.47000000000E+01 0.  1.
         11    1    6    6    0    0 -0.46785209321E+02  0.87447452283E+02 -0.96002638863E+02  0.13803050167E+03  0.00000000000E+00 0. -1.
        -12    1    6    6    0    0 -0.29922126655E+01 -0.17292734141E+02 -0.23448090140E+02  0.29288306915E+02  0.00000000000E+00 0.  1.
<mgrwt>
<rscale>  2 0.31928931E+03</rscale>
<asrwt>0</asrwt>
<pdfrwt beam="2">  1        1 0.16190586E+00 0.31928931E+03</pdfrwt>
<pdfrwt beam="1">  1       -1 0.15182272E-01 0.31928931E+03</pdfrwt>
<totfact> 0.46088367E+02</totfact>
</mgrwt>
</event>
<event>
12    1  0.4404304E-002  0.1825984E+03  0.7546771E-02  0.1165312E+00
          2   -1    0    0  502    0  0.00000000000E+00  0.00000000000E+00  0.32317616162E+03  0.32317616162E+03  0.00000000000E+00 0. -1.
         -2   -1    0    0    0  501 -0.00000000000E+00 -0.00000000000E+00 -0.28370476302E+03  0.28370476302E+03  0.00000000000E+00 0.  1.
          6    2    1    2  502    0 -0.18887461636E+02 -0.72799077793E+02 -0.22204848734E+03  0.29066535418E+03  0.17182658542E+03 0.  0.
         24    2    3    3    0    0 -0.62589793455E+02 -0.91673321122E+02 -0.18184258250E+03  0.22817747014E+03  0.81711400798E+02 0.  0.
         -6    2    1    2    0  501  0.18887461636E+02  0.72799077793E+02  0.26151988594E+03  0.31621557046E+03  0.16106891172E+03 0.  0.
        -24    2    5    5    0    0  0.51296612779E+02  0.40295752726E+02  0.85408365940E+02  0.13416014841E+03  0.80307323946E+02 0.  0.
          5    1    3    3  502    0  0.43702331819E+02  0.18874243330E+02 -0.40205904840E+02  0.62487884039E+02  0.47000000000E+01 0. -1.
        -13    1    4    4    0    0 -0.66490582205E+01  0.35831198114E+01 -0.71995590467E+02  0.72390702231E+02  0.00000000000E+00 0.  1.
         14    1    4    4    0    0 -0.55940735235E+02 -0.95256440934E+02 -0.10984699204E+03  0.15578676791E+03  0.00000000000E+00 0. -1.
         -5    1    5    5    0  501 -0.32409151143E+02  0.32503325067E+02  0.17611152000E+03  0.18205542204E+03  0.47000000000E+01 0.  1.
         11    1    6    6    0    0  0.10952465204E+02  0.52518219807E+02  0.72268583095E+02  0.90004822139E+02  0.00000000000E+00 0. -1.
        -12    1    6    6    0    0  0.40344147575E+02 -0.12222467081E+02  0.13139782845E+02  0.44155326274E+02  0.00000000000E+00 0.  1.
<mgrwt>
<rscale>  2 0.18259841E+03</rscale>
<asrwt>0</asrwt>
<pdfrwt beam="1">  1        2 0.49719409E-01 0.18259841E+03</pdfrwt>
<pdfrwt beam="2">  1       -2 0.43646887E-01 0.18259841E+03</pdfrwt>
<totfact> 0.50928032E+02</totfact>
</mgrwt>
</event>
<event>
12    1  0.4404304E-002  0.1862174E+03  0.7546771E-02  0.1161918E+00
         -1   -1    0    0    0  501 -0.00000000000E+00  0.00000000000E+00  0.13183463539E+03  0.13183463539E+03  0.00000000000E+00 0. -1.
          1   -1    0    0  502    0  0.00000000000E+00 -0.00000000000E+00 -0.45038273203E+03  0.45038273203E+03  0.00000000000E+00 0.  1.
          6    2    1    2  502    0 -0.14474309144E+02 -0.65909642911E+02  0.28513065808E+02  0.18832298036E+03  0.17349052814E+03 0.  0.
         24    2    3    3    0    0  0.11287954515E+01  0.11844094628E+02 -0.35463214886E+02  0.86322220236E+02  0.77796718052E+02 0.  0.
         -6    2    1    2    0  501  0.14474309144E+02  0.65909642911E+02 -0.34706116245E+03  0.39389438707E+03  0.17363107737E+03 0.  0.
        -24    2    5    5    0    0  0.80294636252E+01  0.96733534084E+02 -0.33705009955E+03  0.36051835254E+03  0.83359846481E+02 0.  0.
          5    1    3    3  502    0 -0.15603104596E+02 -0.77753737539E+02  0.63976280694E+02  0.10200076012E+03  0.47000000000E+01 0. -1.
        -13    1    4    4    0    0 -0.91333892657E+01 -0.30511905459E+02 -0.30232818911E+01  0.31992739921E+02  0.00000000000E+00 0.  1.
         14    1    4    4    0    0  0.10262184717E+02  0.42356000087E+02 -0.32439932995E+02  0.54329480315E+02  0.00000000000E+00 0. -1.
         -5    1    5    5    0  501  0.64448455190E+01 -0.30823891173E+02 -0.10011062900E+02  0.33376034534E+02  0.47000000000E+01 0.  1.
         11    1    6    6    0    0 -0.26900348994E+02  0.57267486535E+02 -0.10526257077E+03  0.12281450483E+03  0.00000000000E+00 0. -1.
        -12    1    6    6    0    0  0.34929812619E+02  0.39466047548E+02 -0.23178752878E+03  0.23770384771E+03  0.00000000000E+00 0.  1.
<mgrwt>
<rscale>  2 0.18621744E+03</rscale>
<asrwt>0</asrwt>
<pdfrwt beam="2">  1        1 0.69289652E-01 0.18621744E+03</pdfrwt>
<pdfrwt beam="1">  1       -1 0.20282251E-01 0.18621744E+03</pdfrwt>
<totfact> 0.10217059E+03</totfact>
</mgrwt>
</event>
<event>
12    1  0.4404304E-002  0.1737971E+03  0.7546771E-02  0.1173945E+00
         -2   -1    0    0    0  501 -0.00000000000E+00  0.00000000000E+00  0.85814497776E+02  0.85814497776E+02  0.00000000000E+00 0.  1.
          2   -1    0    0  502    0  0.00000000000E+00 -0.00000000000E+00 -0.11934109203E+04  0.11934109203E+04  0.00000000000E+00 0. -1.
          6    2    1    2  502    0 -0.44115787940E+01 -0.47522381772E+01 -0.10901448834E+04  0.11037919831E+04  0.17291277924E+03 0.  0.
         24    2    3    3    0    0  0.40130017175E+02 -0.71533453148E+01 -0.32726764124E+03  0.33959731170E+03  0.80997756070E+02 0.  0.
         -6    2    1    2    0  501  0.44115787940E+01  0.47522381772E+01 -0.17451539126E+02  0.17543343504E+03  0.17444279325E+03 0.  0.
        -24    2    5    5    0    0  0.31082595209E+02 -0.57919700067E+02 -0.75400812663E+01  0.10644472613E+03  0.83383496654E+02 0.  0.
          5    1    3    3  502    0 -0.44541595969E+02  0.24011071376E+01 -0.76287724219E+03  0.76419467136E+03  0.47000000000E+01 0. -1.
        -11    1    4    4    0    0 -0.19926563158E+02 -0.58272174427E+01 -0.31059451578E+02  0.37359254740E+02  0.00000000000E+00 0.  1.
         12    1    4    4    0    0  0.60056580333E+02 -0.13261278721E+01 -0.29620818966E+03  0.30223805696E+03  0.00000000000E+00 0. -1.
         -5    1    5    5    0  501 -0.26671016415E+02  0.62671938244E+02 -0.99114578595E+01  0.68988708908E+02  0.47000000000E+01 0.  1.
         13    1    6    6    0    0 -0.52355238716E+01 -0.14536004432E+02 -0.38829529524E+02  0.41790411557E+02  0.00000000000E+00 0. -1.
        -14    1    6    6    0    0  0.36318119081E+02 -0.43383695636E+02  0.31289448257E+02  0.64654314572E+02  0.00000000000E+00 0.  1.
<mgrwt>
<rscale>  2 0.17379711E+03</rscale>
<asrwt>0</asrwt>
<pdfrwt beam="2">  1        2 0.18360168E+00 0.17379711E+03</pdfrwt>
<pdfrwt beam="1">  1       -2 0.13202231E-01 0.17379711E+03</pdfrwt>
<totfact> 0.86054599E+02</totfact>
</mgrwt>
</event>
<event>
12    1  0.4404304E-002  0.1832778E+03  0.7546771E-02  0.1164668E+00
          4   -1    0    0  502    0  0.00000000000E+00  0.00000000000E+00  0.10351388698E+03  0.10351388698E+03  0.00000000000E+00 0.  1.
         -4   -1    0    0    0  501 -0.00000000000E+00 -0.00000000000E+00 -0.32451470052E+03  0.32451470052E+03  0.00000000000E+00 0. -1.
          6    2    1    2  502    0  0.29205676298E+02 -0.51533757088E+02 -0.11183119718E+03  0.21513703646E+03  0.17397996478E+03 0.  0.
         24    2    3    3    0    0 -0.34930783823E+02  0.68951091474E+01 -0.24177344703E+02  0.91716188216E+02  0.80991437790E+02 0.  0.
         -6    2    1    2    0  501 -0.29205676298E+02  0.51533757088E+02 -0.10916961636E+03  0.21289155104E+03  0.17290490947E+03 0.  0.
        -24    2    5    5    0    0 -0.49914028300E+02  0.17858765179E+01 -0.12381464191E+03  0.15685357965E+03  0.82330919596E+02 0.  0.
          5    1    3    3  502    0  0.64136460121E+02 -0.58428866236E+02 -0.87653852479E+02  0.12342084824E+03  0.47000000000E+01 0. -1.
        -13    1    4    4    0    0 -0.82220529550E+01 -0.25832686496E+02  0.17585819324E+02  0.32313942620E+02  0.00000000000E+00 0.  1.
         14    1    4    4    0    0 -0.26708730868E+02  0.32727795643E+02 -0.41763164027E+02  0.59402245596E+02  0.00000000000E+00 0. -1.
         -5    1    5    5    0  501  0.20708352002E+02  0.49747880570E+02  0.14645025549E+02  0.56037971388E+02  0.47000000000E+01 0.  1.
         11    1    6    6    0    0  0.19802116683E+02 -0.14676943618E+02 -0.30517487543E+02  0.39228223832E+02  0.00000000000E+00 0. -1.
        -12    1    6    6    0    0 -0.69716144983E+02  0.16462820136E+02 -0.93297154367E+02  0.11762535582E+03  0.00000000000E+00 0.  1.
<mgrwt>
<rscale>  2 0.18327779E+03</rscale>
<asrwt>0</asrwt>
<pdfrwt beam="1">  1        4 0.15925214E-01 0.18327779E+03</pdfrwt>
<pdfrwt beam="2">  1       -4 0.49925338E-01 0.18327779E+03</pdfrwt>
<totfact> 0.23151030E+02</totfact>
</mgrwt>
</event>
<event>
12    1  0.4404304E-002  0.2131698E+03  0.7546771E-02  0.1139080E+00
          1   -1    0    0  502    0  0.00000000000E+00  0.00000000000E+00  0.65142237333E+03  0.65142237333E+03  0.00000000000E+00 0. -1.
         -1   -1    0    0    0  501 -0.00000000000E+00 -0.00000000000E+00 -0.72969918606E+02  0.72969918606E+02  0.00000000000E+00 0.  1.
          6    2    1    2  502    0  0.83586329671E+02  0.91868934922E+02  0.36251835250E+03  0.41952907832E+03  0.17075864821E+03 0.  0.
         24    2    3    3    0    0  0.96521724376E+02  0.11073539568E+03  0.22708161314E+03  0.28209375481E+03  0.80200101905E+02 0.  0.
         -6    2    1    2    0  501 -0.83586329671E+02 -0.91868934922E+02  0.21593410222E+03  0.30486321362E+03  0.17574830527E+03 0.  0.
        -24    2    5    5    0    0 -0.10847089149E+03 -0.10417545290E+03  0.13030735454E+03  0.21472597537E+03  0.80677001435E+02 0.  0.
          5    1    3    3  502    0 -0.12935394705E+02 -0.18866460754E+02  0.13543673936E+03  0.13743532350E+03  0.47000000000E+01 0. -1.
        -13    1    4    4    0    0  0.98394782694E+00  0.55053144227E+02  0.57224950193E+02  0.79413549015E+02  0.00000000000E+00 0.  1.
         14    1    4    4    0    0  0.95537776549E+02  0.55682251449E+02  0.16985666295E+03  0.20268020580E+03  0.00000000000E+00 0. -1.
         -5    1    5    5    0  501  0.24884561823E+02  0.12306517981E+02  0.85626747678E+02  0.90137238253E+02  0.47000000000E+01 0.  1.
         13    1    6    6    0    0 -0.90685381986E+02 -0.88369813547E+02  0.14023731754E+03  0.18894329224E+03  0.00000000000E+00 0. -1.
        -14    1    6    6    0    0 -0.17785509508E+02 -0.15805639356E+02 -0.99299629994E+01  0.25782683124E+02  0.00000000000E+00 0.  1.
<mgrwt>
<rscale>  2 0.21316976E+03</rscale>
<asrwt>0</asrwt>
<pdfrwt beam="1">  1        1 0.10021882E+00 0.21316976E+03</pdfrwt>
<pdfrwt beam="2">  1       -1 0.11226142E-01 0.21316976E+03</pdfrwt>
<totfact> 0.15875568E+03</totfact>
</mgrwt>
</event>
<event>
12    1  0.4404304E-002  0.2167277E+03  0.7546771E-02  0.1136346E+00
          2   -1    0    0  502    0  0.00000000000E+00  0.00000000000E+00  0.52339971166E+03  0.52339971166E+03  0.00000000000E+00 0. -1.
         -2   -1    0    0    0  501 -0.00000000000E+00 -0.00000000000E+00 -0.10759602239E+03  0.10759602239E+03  0.00000000000E+00 0.  1.
          6    2    1    2  502    0 -0.12788506436E+03  0.28818386047E+02  0.79738825159E+02  0.23134719157E+03  0.17314200458E+03 0.  0.
         24    2    3    3    0    0 -0.41390037896E+02  0.48104605184E+02 -0.13372742612E+02  0.10271903795E+03  0.79656652172E+02 0.  0.
         -6    2    1    2    0  501  0.12788506436E+03 -0.28818386047E+02  0.33606486412E+03  0.39964854247E+03  0.17202986818E+03 0.  0.
        -24    2    5    5    0    0  0.14435224703E+03  0.12948473609E+02  0.29740234182E+03  0.34021354184E+03  0.79321289302E+02 0.  0.
          5    1    3    3  502    0 -0.86495026468E+02 -0.19286219136E+02  0.93111567771E+02  0.12862815363E+03  0.47000000000E+01 0. -1.
        -13    1    4    4    0    0 -0.59233892361E+02  0.56098626573E+02 -0.59302017159E+01  0.81797782366E+02  0.00000000000E+00 0.  1.
         14    1    4    4    0    0  0.17843854465E+02 -0.79940213894E+01 -0.74425408961E+01  0.20921255582E+02  0.00000000000E+00 0. -1.
         -5    1    5    5    0  501 -0.16467182663E+02 -0.41766859657E+02  0.38662522293E+02  0.59435000635E+02  0.47000000000E+01 0.  1.
         13    1    6    6    0    0  0.12024331687E+03  0.40586823685E+02  0.20911804659E+03  0.24461419198E+03  0.00000000000E+00 0. -1.
        -14    1    6    6    0    0  0.24108930159E+02 -0.27638350076E+02  0.88284295230E+02  0.95599349855E+02  0.00000000000E+00 0.  1.
<mgrwt>
<rscale>  2 0.21672774E+03</rscale>
<asrwt>0</asrwt>
<pdfrwt beam="1">  1        2 0.80523031E-01 0.21672774E+03</pdfrwt>
<pdfrwt beam="2">  1       -2 0.16553235E-01 0.21672774E+03</pdfrwt>
<totfact> 0.17071792E+03</totfact>
</mgrwt>
</event>
<event>
12    1  0.4404304E-002  0.1767927E+03  0.7546771E-02  0.1170944E+00
          2   -1    0    0  502    0  0.00000000000E+00  0.00000000000E+00  0.97421942834E+03  0.97421942834E+03  0.00000000000E+00 0.  1.
         -2   -1    0    0    0  501 -0.00000000000E+00 -0.00000000000E+00 -0.32372487738E+02  0.32372487738E+02  0.00000000000E+00 0. -1.
          6    2    1    2  502    0  0.10263783907E+02 -0.53688122979E+02  0.52973041559E+03  0.56011083099E+03  0.17355710871E+03 0.  0.
         24    2    3    3    0    0  0.33821215180E+02  0.31639878187E+02  0.25278670025E+03  0.26932614808E+03  0.80563650158E+02 0.  0.
         -6    2    1    2    0  501 -0.10263783907E+02  0.53688122979E+02  0.41211652501E+03  0.44648108509E+03  0.16284216083E+03 0.  0.
        -24    2    5    5    0    0 -0.28988101210E+01  0.45777542796E+02  0.14087429599E+03  0.17498291396E+03  0.93109969307E+02 0.  0.
          5    1    3    3  502    0 -0.23557431273E+02 -0.85328001166E+02  0.27694371534E+03  0.29078468292E+03  0.47000000000E+01 0. -1.
        -13    1    4    4    0    0 -0.24230446524E+02  0.15912755535E+02  0.49864275955E+02  0.57678213772E+02  0.00000000000E+00 0.  1.
         14    1    4    4    0    0  0.58051661704E+02  0.15727122653E+02  0.20292242429E+03  0.21164793430E+03  0.00000000000E+00 0. -1.
         -5    1    5    5    0  501 -0.73649737859E+01  0.79105801830E+01  0.27124222902E+03  0.27149817112E+03  0.47000000000E+01 0.  1.
         11    1    6    6    0    0 -0.35105603912E+02  0.57633306212E+02  0.76345083154E+02  0.10189491220E+03  0.00000000000E+00 0. -1.
        -12    1    6    6    0    0  0.32206793791E+02 -0.11855763416E+02  0.64529212834E+02  0.73088001761E+02  0.00000000000E+00 0.  1.
<mgrwt>
<rscale>  2 0.17679271E+03</rscale>
<asrwt>0</asrwt>
<pdfrwt beam="1">  1        2 0.14987989E+00 0.17679271E+03</pdfrwt>
<pdfrwt beam="2">  1       -2 0.49803835E-02 0.17679271E+03</pdfrwt>
<totfact> 0.52824890E+03</totfact>
</mgrwt>
</event>
<event>
12    1  0.4404304E-002  0.1894478E+03  0.7546771E-02  0.1158960E+00
         -1   -1    0    0    0  501 -0.00000000000E+00  0.00000000000E+00  0.31891651170E+02  0.31891651170E+02  0.00000000000E+00 0.  1.
          1   -1    0    0  502    0  0.00000000000E+00 -0.00000000000E+00 -0.17808469921E+04  0.17808469921E+04  0.00000000000E+00 0. -1.
          6    2    1    2  502    0  0.25187341448E+02  0.70871868590E+02 -0.32471639378E+03  0.37596026059E+03  0.17391997363E+03 0.  0.
         24    2    3    3    0    0  0.27889015127E+01  0.26497218325E+02 -0.57237592820E+02  0.10386138397E+03  0.82469173011E+02 0.  0.
         -6    2    1    2    0  501 -0.25187341448E+02 -0.70871868590E+02 -0.14242389471E+04  0.14367783826E+04  0.17383416933E+03 0.  0.
        -24    2    5    5    0    0  0.53945172531E+02 -0.26621930064E+02 -0.68236792368E+03  0.68937305938E+03  0.77397822535E+02 0.  0.
          5    1    3    3  502    0  0.22398439935E+02  0.44374650266E+02 -0.26747880096E+03  0.27209887663E+03  0.47000000000E+01 0. -1.
        -11    1    4    4    0    0 -0.13757797049E+02 -0.26097387233E+02 -0.96819450935E+01  0.31049809353E+02  0.00000000000E+00 0.  1.
         12    1    4    4    0    0  0.16546698562E+02  0.52594605558E+02 -0.47555647727E+02  0.72811574614E+02  0.00000000000E+00 0. -1.
         -5    1    5    5    0  501 -0.79132513979E+02 -0.44249938526E+02 -0.74187102344E+03  0.74740532327E+03  0.47000000000E+01 0.  1.
         11    1    6    6    0    0  0.62525787642E+02 -0.45397246673E+02 -0.55167859747E+03  0.55706342460E+03  0.00000000000E+00 0. -1.
        -12    1    6    6    0    0 -0.85806151106E+01  0.18775316609E+02 -0.13068932621E+03  0.13230963478E+03  0.00000000000E+00 0.  1.
<mgrwt>
<rscale>  2 0.18944777E+03</rscale>
<asrwt>0</asrwt>
<pdfrwt beam="2">  1        1 0.27397638E+00 0.18944777E+03</pdfrwt>
<pdfrwt beam="1">  1       -1 0.49064093E-02 0.18944777E+03</pdfrwt>
<totfact> 0.85527118E+02</totfact>
</mgrwt>
</event>
<event>
12    1  0.4404304E-002  0.2965442E+03  0.7546771E-02  0.1086981E+00
          2   -1    0    0  502    0  0.00000000000E+00  0.00000000000E+00  0.77695690590E+03  0.77695690590E+03  0.00000000000E+00 0. -1.
         -2   -1    0    0    0  501 -0.00000000000E+00 -0.00000000000E+00 -0.11351073347E+03  0.11351073347E+03  0.00000000000E+00 0.  1.
          6    2    1    2  502    0  0.11588752686E+03  0.21206767488E+03  0.30682721342E+03  0.42607716169E+03  0.17028268030E+03 0.  0.
         24    2    3    3    0    0  0.15029449889E+03  0.16529341820E+03  0.24693813714E+03  0.34252800090E+03  0.80228656530E+02 0.  0.
         -6    2    1    2    0  501 -0.11588752686E+03 -0.21206767488E+03  0.35661895901E+03  0.46439047767E+03  0.17343245432E+03 0.  0.
        -24    2    5    5    0    0 -0.12312794368E+03 -0.19153174832E+03  0.22311325223E+03  0.32903904007E+03  0.81500094744E+02 0.  0.
          5    1    3    3  502    0 -0.34406972025E+02  0.46774256685E+02  0.59889076281E+02  0.83549160798E+02  0.47000000000E+01 0. -1.
        -11    1    4    4    0    0  0.13200251613E+03  0.16591825446E+03  0.19729528988E+03  0.28961865070E+03  0.00000000000E+00 0.  1.
         12    1    4    4    0    0  0.18291982754E+02 -0.62483626000E+00  0.49642847262E+02  0.52909350192E+02  0.00000000000E+00 0. -1.
         -5    1    5    5    0  501  0.72404168205E+01 -0.20535926565E+02  0.13350570678E+03  0.13535143760E+03  0.47000000000E+01 0.  1.
         13    1    6    6    0    0 -0.16442251221E+02 -0.69802918157E+02  0.11096160211E+03  0.13211840202E+03  0.00000000000E+00 0. -1.
        -14    1    6    6    0    0 -0.10668569246E+03 -0.12172883016E+03  0.11215165012E+03  0.19692063806E+03  0.00000000000E+00 0.  1.
<mgrwt>
<rscale>  2 0.29654419E+03</rscale>
<asrwt>0</asrwt>
<pdfrwt beam="1">  1        2 0.11953183E+00 0.29654419E+03</pdfrwt>
<pdfrwt beam="2">  1       -2 0.17463190E-01 0.29654419E+03</pdfrwt>
<totfact> 0.97785903E+02</totfact>
</mgrwt>
</event>
<event>
12    1  0.4404304E-002  0.2900881E+03  0.7546771E-02  0.1090303E+00
          2   -1    0    0  502    0  0.00000000000E+00  0.00000000000E+00  0.16875048477E+04  0.16875048477E+04  0.00000000000E+00 0. -1.
         -2   -1    0    0    0  501 -0.00000000000E+00 -0.00000000000E+00 -0.50802587087E+02  0.50802587087E+02  0.00000000000E+00 0.  1.
          6    2    1    2  502    0  0.21140324759E+03 -0.95301934356E+02  0.93723835453E+03  0.98120675673E+03  0.17486330226E+03 0.  0.
         24    2    3    3    0    0  0.92004238525E+02  0.15857667625E+02  0.33673645454E+03  0.35892289677E+03  0.81963165401E+02 0.  0.
         -6    2    1    2    0  501 -0.21140324759E+03  0.95301934356E+02  0.69946390609E+03  0.75710067806E+03  0.17371784310E+03 0.  0.
        -24    2    5    5    0    0 -0.11990584325E+03  0.55173412491E+02  0.58237150379E+03  0.60310459388E+03  0.84599444653E+02 0.  0.
          5    1    3    3  502    0  0.11939900906E+03 -0.11115960198E+03  0.60050189999E+03  0.62228385996E+03  0.47000000000E+01 0. -1.
        -11    1    4    4    0    0 -0.26008184649E+00 -0.23803890646E+02  0.63865229978E+02  0.68157614780E+02  0.00000000000E+00 0.  1.
         12    1    4    4    0    0  0.92264320371E+02  0.39661558271E+02  0.27287122456E+03  0.29076528199E+03  0.00000000000E+00 0. -1.
         -5    1    5    5    0  501 -0.91497404333E+02  0.40128521865E+02  0.11709240229E+03  0.15399608418E+03  0.47000000000E+01 0.  1.
         11    1    6    6    0    0 -0.49606306612E+02  0.33778327197E+02  0.42740954592E+03  0.43160245712E+03  0.00000000000E+00 0. -1.
        -12    1    6    6    0    0 -0.70299536643E+02  0.21395085294E+02  0.15496195787E+03  0.17150213676E+03  0.00000000000E+00 0.  1.
<mgrwt>
<rscale>  2 0.29008807E+03</rscale>
<asrwt>0</asrwt>
<pdfrwt beam="1">  1        2 0.25961609E+00 0.29008807E+03</pdfrwt>
<pdfrwt beam="2">  1       -2 0.78157839E-02 0.29008807E+03</pdfrwt>
<totfact> 0.10629875E+03</totfact>
</mgrwt>
</event>
<event>
12    1  0.4404304E-002  0.1792148E+03  0.7546771E-02  0.1168565E+00
          2   -1    0    0  502    0  0.00000000000E+00  0.00000000000E+00  0.88827543707E+03  0.88827543707E+03  0.00000000000E+00 0. -1.
         -2   -1    0    0    0  501 -0.00000000000E+00 -0.00000000000E+00 -0.36338950437E+02  0.36338950437E+02  0.00000000000E+00 0.  1.
          6    2    1    2  502    0  0.40750949066E+02  0.21425477066E+02  0.39262742248E+03  0.43147337992E+03  0.17289677203E+03 0.  0.
         24    2    3    3    0    0  0.53411901989E+02  0.37538469914E+02  0.12216243668E+03  0.16019247973E+03  0.80473608262E+02 0.  0.
         -6    2    1    2    0  501 -0.40750949066E+02 -0.21425477066E+02  0.45930906416E+03  0.49314100759E+03  0.17350373493E+03 0.  0.
        -24    2    5    5    0    0 -0.40917097226E+02 -0.15530579083E+01  0.10743527328E+03  0.14067512931E+03  0.81058825719E+02 0.  0.
          5    1    3    3  502    0 -0.12660952924E+02 -0.16112992848E+02  0.27046498580E+03  0.27128090019E+03  0.47000000000E+01 0. -1.
        -13    1    4    4    0    0 -0.45112035389E+01 -0.15672187044E+02  0.17974976822E+01  0.16407297218E+02  0.00000000000E+00 0.  1.
         14    1    4    4    0    0  0.57923105528E+02  0.53210656958E+02  0.12036493900E+03  0.14378518251E+03  0.00000000000E+00 0. -1.
         -5    1    5    5    0  501  0.16614815995E+00 -0.19872419158E+02  0.35187379088E+03  0.35246587828E+03  0.47000000000E+01 0.  1.
         11    1    6    6    0    0 -0.32239714719E+02  0.20555616413E+02  0.11031246692E+03  0.11675090120E+03  0.00000000000E+00 0. -1.
        -12    1    6    6    0    0 -0.86773825066E+01 -0.22108674321E+02 -0.28771936467E+01  0.23924228110E+02  0.00000000000E+00 0.  1.
<mgrwt>
<rscale>  2 0.17921478E+03</rscale>
<asrwt>0</asrwt>
<pdfrwt beam="1">  1        2 0.13665774E+00 0.17921478E+03</pdfrwt>
<pdfrwt beam="2">  1       -2 0.55906084E-02 0.17921478E+03</pdfrwt>
<totfact> 0.50213835E+03</totfact>
</mgrwt>
</event>
<event>
12    1  0.4404304E-002  0.1828918E+03  0.7546771E-02  0.1165033E+00
         -2   -1    0    0    0  501 -0.00000000000E+00  0.00000000000E+00  0.23981194048E+02  0.23981194048E+02  0.00000000000E+00 0. -1.
          2   -1    0    0  502    0  0.00000000000E+00 -0.00000000000E+00 -0.14095914892E+04  0.14095914892E+04  0.00000000000E+00 0.  1.
          6    2    1    2  502    0  0.26547740815E+02 -0.55617707104E+02 -0.61712739312E+03  0.64348140340E+03  0.17153421027E+03 0.  0.
         24    2    3    3    0    0  0.57029930217E+02  0.29185398039E+01 -0.23209793427E+03  0.25280835562E+03  0.82350973076E+02 0.  0.
         -6    2    1    2    0  501 -0.26547740815E+02  0.55617707104E+02 -0.76848290198E+03  0.79009127980E+03  0.17285875128E+03 0.  0.
        -24    2    5    5    0    0 -0.78223872794E+02  0.66783595075E+02 -0.57800650273E+03  0.59235800404E+03  0.78850903023E+02 0.  0.
          5    1    3    3  502    0 -0.30482189402E+02 -0.58536246908E+02 -0.38502945885E+03  0.39067304777E+03  0.47000000000E+01 0. -1.
        -13    1    4    4    0    0  0.20741644051E+02  0.52050757983E+00 -0.20833512249E+03  0.20936573260E+03  0.00000000000E+00 0.  1.
         14    1    4    4    0    0  0.36288286166E+02  0.23980322240E+01 -0.23762811784E+02  0.43442623025E+02  0.00000000000E+00 0. -1.
         -5    1    5    5    0  501  0.51676131979E+02 -0.11165887971E+02 -0.19047639925E+03  0.19773327576E+03  0.47000000000E+01 0.  1.
         11    1    6    6    0    0  0.44065759897E+01  0.43541944918E+02 -0.19544217998E+03  0.20028221238E+03  0.00000000000E+00 0. -1.
        -12    1    6    6    0    0 -0.82630448784E+02  0.23241650157E+02 -0.38256432275E+03  0.39207579166E+03  0.00000000000E+00 0.  1.
<mgrwt>
<rscale>  2 0.18289177E+03</rscale>
<asrwt>0</asrwt>
<pdfrwt beam="2">  1        2 0.21686027E+00 0.18289177E+03</pdfrwt>
<pdfrwt beam="1">  1       -2 0.36894138E-02 0.18289177E+03</pdfrwt>
<totfact> 0.47058562E+03</totfact>
</mgrwt>
</event>
<event>
12    1  0.4404304E-002  0.3122646E+03  0.7546771E-02  0.1079265E+00
         -1   -1    0    0    0  501 -0.00000000000E+00  0.00000000000E+00  0.28983807916E+03  0.28983807916E+03  0.00000000000E+00 0.  1.
          1   -1    0    0  502    0  0.00000000000E+00 -0.00000000000E+00 -0.33722715123E+03  0.33722715123E+03  0.00000000000E+00 0. -1.
          6    2    1    2  502    0  0.83719810955E+02  0.24622204385E+03 -0.84009100750E+01  0.31215734996E+03  0.17244516293E+03 0.  0.
         24    2    3    3    0    0  0.94934093499E+02  0.16425069692E+03  0.48450688788E+02  0.21166229464E+03  0.80390821491E+02 0.  0.
         -6    2    1    2    0  501 -0.83719810955E+02 -0.24622204385E+03 -0.38988161995E+02  0.31490788043E+03  0.17324143487E+03 0.  0.
        -24    2    5    5    0    0 -0.15628444571E+02 -0.38520470467E+02  0.79706929012E+00  0.92688771462E+02  0.82840196227E+02 0.  0.
          5    1    3    3  502    0 -0.11214282544E+02  0.81971346926E+02 -0.56851598863E+02  0.10049505532E+03  0.47000000000E+01 0. -1.
        -11    1    4    4    0    0  0.45767288374E+02  0.10925662756E+03  0.66325092281E+02  0.13575961556E+03  0.00000000000E+00 0.  1.
         12    1    4    4    0    0  0.49166805125E+02  0.54994069367E+02 -0.17874403493E+02  0.75902679083E+02  0.00000000000E+00 0. -1.
         -5    1    5    5    0  501 -0.68091366384E+02 -0.20770157338E+03 -0.39785231285E+02  0.22221910897E+03  0.47000000000E+01 0.  1.
         11    1    6    6    0    0 -0.45669341353E+02 -0.41875276788E+02  0.50339129546E+01  0.62165648274E+02  0.00000000000E+00 0. -1.
        -12    1    6    6    0    0  0.30040896782E+02  0.33548063204E+01 -0.42368436645E+01  0.30523123188E+02  0.00000000000E+00 0.  1.
<mgrwt>
<rscale>  2 0.31226458E+03</rscale>
<asrwt>0</asrwt>
<pdfrwt beam="2">  1        1 0.51881100E-01 0.31226458E+03</pdfrwt>
<pdfrwt beam="1">  1       -1 0.44590474E-01 0.31226458E+03</pdfrwt>
<totfact> 0.38444669E+02</totfact>
</mgrwt>
</event>
<event>
12    1  0.4404304E-002  0.2078600E+03  0.7546771E-02  0.1143272E+00
         -2   -1    0    0    0  501 -0.00000000000E+00  0.00000000000E+00  0.10856018929E+03  0.10856018929E+03  0.00000000000E+00 0. -1.
          2   -1    0    0  502    0  0.00000000000E+00 -0.00000000000E+00 -0.42204991526E+03  0.42204991526E+03  0.00000000000E+00 0.  1.
          6    2    1    2  502    0 -0.83076707154E+02  0.79791462908E+02 -0.94262053784E+02  0.22932056526E+03  0.17445391954E+03 0.  0.
         24    2    3    3    0    0 -0.11057799140E+03  0.18796433046E+02 -0.41167160480E+02  0.14377600379E+03  0.79975034136E+02 0.  0.
         -6    2    1    2    0  501  0.83076707154E+02 -0.79791462908E+02 -0.21922767219E+03  0.30128953928E+03  0.17159894348E+03 0.  0.
        -24    2    5    5    0    0  0.86387631990E+02  0.21259166397E+01 -0.92514334974E+02  0.15029358198E+03  0.81005654896E+02 0.  0.
          5    1    3    3  502    0  0.27501284246E+02  0.60995029862E+02 -0.53094893304E+02  0.85544561475E+02  0.47000000000E+01 0. -1.
        -13    1    4    4    0    0 -0.95551463145E+02  0.20505127628E+02 -0.63688486518E+02  0.11664804192E+03  0.00000000000E+00 0.  1.
         14    1    4    4    0    0 -0.15026528256E+02 -0.17086945819E+01  0.22521326038E+02  0.27127961868E+02  0.00000000000E+00 0. -1.
         -5    1    5    5    0  501 -0.33109248353E+01 -0.81917379548E+02 -0.12671333721E+03  0.15099595731E+03  0.47000000000E+01 0.  1.
         11    1    6    6    0    0  0.34248543698E+02 -0.35663339880E+02 -0.61233745662E+02  0.78704562540E+02  0.00000000000E+00 0. -1.
        -12    1    6    6    0    0  0.52139088291E+02  0.37789256519E+02 -0.31280589313E+02  0.71589019436E+02  0.00000000000E+00 0.  1.
<mgrwt>
<rscale>  2 0.20785999E+03</rscale>
<asrwt>0</asrwt>
<pdfrwt beam="2">  1        2 0.64930757E-01 0.20785999E+03</pdfrwt>
<pdfrwt beam="1">  1       -2 0.16701567E-01 0.20785999E+03</pdfrwt>
<totfact> 0.21321453E+03</totfact>
</mgrwt>
</event>
<event>
12    1  0.4404304E-002  0.2604384E+03  0.7546771E-02  0.1106880E+00
          2   -1    0    0  502    0  0.00000000000E+00  0.00000000000E+00  0.15175492597E+03  0.15175492597E+03  0.00000000000E+00 0.  1.
         -2   -1    0    0    0  501 -0.00000000000E+00 -0.00000000000E+00 -0.45036533818E+03  0.45036533818E+03  0.00000000000E+00 0. -1.
          6    2    1    2  502    0 -0.61873929287E+02  0.18401812520E+03 -0.17616567175E+03  0.31546977187E+03  0.17548726316E+03 0.  0.
         24    2    3    3    0    0 -0.29724286382E+02  0.20546761854E+03 -0.15043975737E+03  0.26880508528E+03  0.80768668473E+02 0.  0.
         -6    2    1    2    0  501  0.61873929287E+02 -0.18401812520E+03 -0.12244474046E+03  0.28665049228E+03  0.17171120152E+03 0.  0.
        -24    2    5    5    0    0  0.61648560448E+02 -0.17670188172E+03 -0.15280851655E+03  0.25506525667E+03  0.81754158425E+02 0.  0.
          5    1    3    3  502    0 -0.32149642905E+02 -0.21449493340E+02 -0.25725914389E+02  0.46664686591E+02  0.47000000000E+01 0. -1.
        -13    1    4    4    0    0 -0.25593908399E+02  0.57382909601E+02 -0.80815444415E+01  0.63349489516E+02  0.00000000000E+00 0.  1.
         14    1    4    4    0    0 -0.41303779821E+01  0.14808470894E+03 -0.14235821292E+03  0.20545559577E+03  0.00000000000E+00 0. -1.
         -5    1    5    5    0  501  0.22536883867E+00 -0.73162434816E+01  0.30363776092E+02  0.31585235607E+02  0.47000000000E+01 0.  1.
         11    1    6    6    0    0 -0.83548689970E+01  0.34205718157E+01 -0.15730584366E+02  0.18137128549E+02  0.00000000000E+00 0. -1.
        -12    1    6    6    0    0  0.70003429445E+02 -0.18012245354E+03 -0.13707793219E+03  0.23692812812E+03  0.00000000000E+00 0.  1.
<mgrwt>
<rscale>  2 0.26043837E+03</rscale>
<asrwt>0</asrwt>
<pdfrwt beam="1">  1        2 0.23346912E-01 0.26043837E+03</pdfrwt>
<pdfrwt beam="2">  1       -2 0.69286975E-01 0.26043837E+03</pdfrwt>
<totfact> 0.45451980E+02</totfact>
</mgrwt>
</event>
<event>
12    1  0.4404304E-002  0.2495533E+03  0.7546771E-02  0.1113587E+00
         -2   -1    0    0    0  501 -0.00000000000E+00  0.00000000000E+00  0.10237981345E+03  0.10237981345E+03  0.00000000000E+00 0. -1.
          2   -1    0    0  502    0  0.00000000000E+00 -0.00000000000E+00 -0.20959001743E+04  0.20959001743E+04  0.00000000000E+00 0.  1.
          6    2    1    2  502    0  0.28675850134E+02 -0.17790274617E+03 -0.19223266671E+04  0.19384090602E+04  0.17209932674E+03 0.  0.
         24    2    3    3    0    0  0.75421991412E+02 -0.66476339954E+02 -0.96842582934E+03  0.97687385858E+03  0.79538469239E+02 0.  0.
         -6    2    1    2    0  501 -0.28675850134E+02  0.17790274617E+03 -0.71193693749E+02  0.25987092751E+03  0.17318390647E+03 0.  0.
        -24    2    5    5    0    0 -0.62979562139E+02  0.16060558149E+03 -0.14825891639E+02  0.19149435493E+03  0.81790603709E+02 0.  0.
          5    1    3    3  502    0 -0.46746141277E+02 -0.11142640621E+03 -0.95390083773E+03  0.96153520162E+03  0.47000000000E+01 0. -1.
        -11    1    4    4    0    0 -0.22176254189E+01 -0.36105908461E+02 -0.48199948967E+03  0.48335500673E+03  0.00000000000E+00 0.  1.
         12    1    4    4    0    0  0.77639616831E+02 -0.30370431493E+02 -0.48642633967E+03  0.49351885185E+03  0.00000000000E+00 0. -1.
         -5    1    5    5    0  501  0.34303712004E+02  0.17297164677E+02 -0.56367802110E+02  0.68376572581E+02  0.47000000000E+01 0.  1.
         11    1    6    6    0    0 -0.32341828146E+02  0.92748693245E+02 -0.48772157069E+02  0.10966784967E+03  0.00000000000E+00 0. -1.
        -12    1    6    6    0    0 -0.30637733992E+02  0.67856888242E+02  0.33946265430E+02  0.81826505258E+02  0.00000000000E+00 0.  1.
<mgrwt>
<rscale>  2 0.24955326E+03</rscale>
<asrwt>0</asrwt>
<pdfrwt beam="2">  1        2 0.32244619E+00 0.24955326E+03</pdfrwt>
<pdfrwt beam="1">  1       -2 0.15750740E-01 0.24955326E+03</pdfrwt>
<totfact> 0.21082733E+02</totfact>
</mgrwt>
</event>
<event>
12    1  0.4404304E-002  0.2196400E+03  0.7546771E-02  0.1134152E+00
         -1   -1    0    0    0  501 -0.00000000000E+00  0.00000000000E+00  0.85669407606E+02  0.85669407606E+02  0.00000000000E+00 0.  1.
          1   -1    0    0  502    0  0.00000000000E+00 -0.00000000000E+00 -0.60999063664E+03  0.60999063664E+03  0.00000000000E+00 0. -1.
          6    2    1    2  502    0 -0.10900381884E+03 -0.69333223122E+02 -0.16371129217E+03  0.27244063776E+03  0.17530996997E+03 0.  0.
         24    2    3    3    0    0 -0.43992537513E+02  0.20825883684E+02 -0.33793084770E+02  0.10139689525E+03  0.82281814510E+02 0.  0.
         -6    2    1    2    0  501  0.10900381884E+03  0.69333223122E+02 -0.36060993687E+03  0.42321940648E+03  0.17996169345E+03 0.  0.
        -24    2    5    5    0    0  0.11062395988E+03  0.62965650997E+02 -0.15380208444E+03  0.21625383288E+03  0.83116215942E+02 0.  0.
          5    1    3    3  502    0 -0.65011281332E+02 -0.90159106806E+02 -0.12991820740E+03  0.17104374252E+03  0.47000000000E+01 0. -1.
        -11    1    4    4    0    0 -0.26917347936E+02  0.11875424905E+02  0.25571465904E+02  0.38980369484E+02  0.00000000000E+00 0.  1.
         12    1    4    4    0    0 -0.17075189577E+02  0.89504587789E+01 -0.59364550674E+02  0.62416525762E+02  0.00000000000E+00 0. -1.
         -5    1    5    5    0  501 -0.16201410368E+01  0.63675721250E+01 -0.20680785243E+03  0.20696557360E+03  0.47000000000E+01 0.  1.
         11    1    6    6    0    0  0.87826247378E+02  0.79330229390E+02 -0.14429962403E+03  0.18662560520E+03  0.00000000000E+00 0. -1.
        -12    1    6    6    0    0  0.22797712503E+02 -0.16364578394E+02 -0.95024604130E+01  0.29628227677E+02  0.00000000000E+00 0.  1.
<mgrwt>
<rscale>  2 0.21964005E+03</rscale>
<asrwt>0</asrwt>
<pdfrwt beam="2">  1        1 0.93844713E-01 0.21964005E+03</pdfrwt>
<pdfrwt beam="1">  1       -1 0.13179909E-01 0.21964005E+03</pdfrwt>
<totfact> 0.13555053E+03</totfact>
</mgrwt>
</event>
<event>
12    1  0.4404304E-002  0.5109420E+03  0.7546771E-02  0.1010962E+00
         -3   -1    0    0    0  501 -0.00000000000E+00  0.00000000000E+00  0.15537463439E+04  0.15537463439E+04  0.00000000000E+00 0. -1.
          3   -1    0    0  502    0  0.00000000000E+00 -0.00000000000E+00 -0.23670934652E+03  0.23670934652E+03  0.00000000000E+00 0.  1.
          6    2    1    2  502    0 -0.30433458444E+03  0.37186219543E+03  0.17626825594E+03  0.54048739672E+03  0.17365222800E+03 0.  0.
         24    2    3    3    0    0 -0.77081692336E+02  0.10538208967E+03  0.13371930187E+02  0.15420663526E+03  0.80956196329E+02 0.  0.
         -6    2    1    2    0  501  0.30433458444E+03 -0.37186219543E+03  0.11407687415E+04  0.12499682937E+04  0.17368472046E+03 0.  0.
        -24    2    5    5    0    0  0.69159096795E+02 -0.10659737340E+03  0.42891227091E+03  0.45471068736E+03  0.81548098562E+02 0.  0.
          5    1    3    3  502    0 -0.22725289210E+03  0.26648010576E+03  0.16289632575E+03  0.38628076147E+03  0.47000000000E+01 0. -1.
        -13    1    4    4    0    0 -0.87799692787E+02  0.62309800864E+02  0.19453071688E+02  0.10940621251E+03  0.00000000000E+00 0.  1.
         14    1    4    4    0    0  0.10718000451E+02  0.43072288805E+02 -0.60811415013E+01  0.44800422749E+02  0.00000000000E+00 0. -1.
         -5    1    5    5    0  501  0.23517548765E+03 -0.26526482203E+03  0.71185647056E+03  0.79525760636E+03  0.47000000000E+01 0.  1.
         13    1    6    6    0    0  0.75718803077E+02 -0.97600083055E+02  0.28818739332E+03  0.31354598868E+03  0.00000000000E+00 0. -1.
        -14    1    6    6    0    0 -0.65597062817E+01 -0.89972903447E+01  0.14072487759E+03  0.14116469867E+03  0.00000000000E+00 0.  1.
<mgrwt>
<rscale>  2 0.51094204E+03</rscale>
<asrwt>0</asrwt>
<pdfrwt beam="2">  1        3 0.36416823E-01 0.51094204E+03</pdfrwt>
<pdfrwt beam="1">  1       -3 0.23903789E+00 0.51094204E+03</pdfrwt>
<totfact> 0.16939094E+00</totfact>
</mgrwt>
</event>
<event>
12    1  0.4404304E-002  0.1773853E+03  0.7546771E-02  0.1170358E+00
         -1   -1    0    0    0  501 -0.00000000000E+00  0.00000000000E+00  0.15915685612E+03  0.15915685612E+03  0.00000000000E+00 0.  1.
          1   -1    0    0  502    0  0.00000000000E+00 -0.00000000000E+00 -0.44723349102E+03  0.44723349102E+03  0.00000000000E+00 0. -1.
          6    2    1    2  502    0  0.28748233226E+02  0.19627875110E+02 -0.37076249341E+03  0.41131601164E+03  0.17465486113E+03 0.  0.
         24    2    3    3    0    0  0.20213459883E+02  0.39286372849E+02 -0.78496999559E+02  0.11822812757E+03  0.76577465079E+02 0.  0.
         -6    2    1    2    0  501 -0.28748233226E+02 -0.19627875110E+02  0.82685858506E+02  0.19507433550E+03  0.17322046871E+03 0.  0.
        -24    2    5    5    0    0 -0.97675613263E+01  0.14497651517E+02 -0.20772508165E+02  0.84392172945E+02  0.79905910953E+02 0.  0.
          5    1    3    3  502    0  0.85347733425E+01 -0.19658497739E+02 -0.29226549385E+03  0.29308788407E+03  0.47000000000E+01 0. -1.
        -13    1    4    4    0    0  0.11621655563E+02  0.54768699260E+02 -0.82850360620E+02  0.99994277594E+02  0.00000000000E+00 0.  1.
         14    1    4    4    0    0  0.85918043198E+01 -0.15482326412E+02  0.43533610607E+01  0.18233849981E+02  0.00000000000E+00 0. -1.
         -5    1    5    5    0  501 -0.18980671900E+02 -0.34125526627E+02  0.10345836667E+03  0.11068216255E+03  0.47000000000E+01 0.  1.
         11    1    6    6    0    0 -0.10719152298E+02  0.14635361825E+02  0.29218415995E+02  0.34392003067E+02  0.00000000000E+00 0. -1.
        -12    1    6    6    0    0  0.95159097176E+00 -0.13771030781E+00 -0.49990924160E+02  0.50000169878E+02  0.00000000000E+00 0.  1.
<mgrwt>
<rscale>  2 0.17738532E+03</rscale>
<asrwt>0</asrwt>
<pdfrwt beam="2">  1        1 0.68805153E-01 0.17738532E+03</pdfrwt>
<pdfrwt beam="1">  1       -1 0.24485670E-01 0.17738532E+03</pdfrwt>
<totfact> 0.75759969E+02</totfact>
</mgrwt>
</event>
<event>
12    1  0.4404304E-002  0.3294721E+03  0.7546771E-02  0.1071371E+00
         -2   -1    0    0    0  501 -0.00000000000E+00  0.00000000000E+00  0.12099058047E+03  0.12099058047E+03  0.00000000000E+00 0. -1.
          2   -1    0    0  502    0  0.00000000000E+00 -0.00000000000E+00 -0.91950420583E+03  0.91950420583E+03  0.00000000000E+00 0.  1.
          6    2    1    2  502    0 -0.20231119322E+03 -0.19349073678E+03 -0.32079847095E+03  0.46138089910E+03  0.17774192236E+03 0.  0.
         24    2    3    3    0    0 -0.16208155692E+03 -0.67782131118E+02 -0.14655620503E+03  0.24274070515E+03  0.81113995788E+02 0.  0.
         -6    2    1    2    0  501  0.20231119322E+03  0.19349073678E+03 -0.47771515441E+03  0.57911388719E+03  0.16968394581E+03 0.  0.
        -24    2    5    5    0    0  0.92261324336E+02  0.65351775737E+02 -0.12451805602E+03  0.18757736618E+03  0.83051282154E+02 0.  0.
          5    1    3    3  502    0 -0.40229636298E+02 -0.12570860566E+03 -0.17424226592E+03  0.21864019394E+03  0.47000000000E+01 0. -1.
        -13    1    4    4    0    0 -0.16905518433E+03 -0.61837201264E+02 -0.12453562548E+03  0.21888950825E+03  0.00000000000E+00 0.  1.
         14    1    4    4    0    0  0.69736274033E+01 -0.59449298546E+01 -0.22020579549E+02  0.23851196906E+02  0.00000000000E+00 0. -1.
         -5    1    5    5    0  501  0.11004986888E+03  0.12813896104E+03 -0.35319709838E+03  0.39153652101E+03  0.47000000000E+01 0.  1.
         13    1    6    6    0    0  0.28768579250E+02  0.23233459764E+02  0.49950143598E+01  0.37314541042E+02  0.00000000000E+00 0. -1.
        -14    1    6    6    0    0  0.63492745086E+02  0.42118315973E+02 -0.12951307038E+03  0.15026282514E+03  0.00000000000E+00 0.  1.
<mgrwt>
<rscale>  2 0.32947212E+03</rscale>
<asrwt>0</asrwt>
<pdfrwt beam="2">  1        2 0.14146219E+00 0.32947212E+03</pdfrwt>
<pdfrwt beam="1">  1       -2 0.18613935E-01 0.32947212E+03</pdfrwt>
<totfact> 0.70212881E+02</totfact>
</mgrwt>
</event>
<event>
12    1  0.4404304E-002  0.1907045E+03  0.7546771E-02  0.1157827E+00
         -2   -1    0    0    0  501 -0.00000000000E+00  0.00000000000E+00  0.59590717297E+02  0.59590717297E+02  0.00000000000E+00 0.  1.
          2   -1    0    0  502    0  0.00000000000E+00 -0.00000000000E+00 -0.61059736796E+03  0.61059736796E+03  0.00000000000E+00 0. -1.
          6    2    1    2  502    0  0.30731147686E+02  0.72455475220E+02 -0.27075134386E+03  0.33203853353E+03  0.17535420786E+03 0.  0.
         24    2    3    3    0    0 -0.30001276709E+02  0.64904651249E+02 -0.87595396774E+02  0.13887116240E+03  0.80619822943E+02 0.  0.
         -6    2    1    2    0  501 -0.30731147686E+02 -0.72455475220E+02 -0.28025530680E+03  0.33814955173E+03  0.17206941337E+03 0.  0.
        -24    2    5    5    0    0  0.35324171758E+02 -0.83236227712E+02 -0.18685972522E+03  0.22315235824E+03  0.81880103604E+02 0.  0.
          5    1    3    3  502    0  0.60732424394E+02  0.75508239711E+01 -0.18315594709E+03  0.19316737113E+03  0.47000000000E+01 0. -1.
        -11    1    4    4    0    0 -0.29257403587E+02  0.36683598122E+02 -0.87473121507E-01  0.46922166269E+02  0.00000000000E+00 0.  1.
         12    1    4    4    0    0 -0.74387312196E+00  0.28221053127E+02 -0.87507923653E+02  0.91948996127E+02  0.00000000000E+00 0. -1.
         -5    1    5    5    0  501 -0.66055319444E+02  0.10780752492E+02 -0.93395581580E+02  0.11499719349E+03  0.47000000000E+01 0.  1.
         11    1    6    6    0    0 -0.20891828420E+02 -0.87239598582E+00 -0.46400025349E+02  0.50893928144E+02  0.00000000000E+00 0. -1.
        -12    1    6    6    0    0  0.56216000178E+02 -0.82363831726E+02 -0.14045969987E+03  0.17225843010E+03  0.00000000000E+00 0.  1.
<mgrwt>
<rscale>  2 0.19070452E+03</rscale>
<asrwt>0</asrwt>
<pdfrwt beam="2">  1        2 0.93938054E-01 0.19070452E+03</pdfrwt>
<pdfrwt beam="1">  1       -2 0.91678029E-02 0.19070452E+03</pdfrwt>
<totfact> 0.37123543E+03</totfact>
</mgrwt>
</event>
<event>
12    1  0.4404304E-002  0.2002524E+03  0.7546771E-02  0.1149526E+00
         -1   -1    0    0    0  501 -0.00000000000E+00  0.00000000000E+00  0.33046210400E+03  0.33046210400E+03  0.00000000000E+00 0. -1.
          1   -1    0    0  502    0  0.00000000000E+00 -0.00000000000E+00 -0.30563398997E+03  0.30563398997E+03  0.00000000000E+00 0.  1.
          6    2    1    2  502    0  0.20003504527E+02  0.98749970559E+02 -0.23456284559E+03  0.30811912293E+03  0.17252816727E+03 0.  0.
         24    2    3    3    0    0 -0.11009490182E+01  0.10184722001E+03 -0.24654238190E+03  0.28320747498E+03  0.95127595890E+02 0.  0.
         -6    2    1    2    0  501 -0.20003504527E+02 -0.98749970559E+02  0.25939095963E+03  0.32797697105E+03  0.17359011125E+03 0.  0.
        -24    2    5    5    0    0  0.47511673755E+02 -0.17864003947E+02  0.12581697482E+03  0.15778608319E+03  0.80560878321E+02 0.  0.
          5    1    3    3  502    0  0.21104453545E+02 -0.30972494490E+01  0.11979536303E+02  0.24911647951E+02  0.47000000000E+01 0. -1.
        -13    1    4    4    0    0 -0.43397741810E+02  0.29908621159E+02 -0.12617593270E+03  0.13674156503E+03  0.00000000000E+00 0.  1.
         14    1    4    4    0    0  0.42296792792E+02  0.71938598848E+02 -0.12036644919E+03  0.14646590995E+03  0.00000000000E+00 0. -1.
         -5    1    5    5    0  501 -0.67515178282E+02 -0.80885966612E+02  0.13357398481E+03  0.17019088786E+03  0.47000000000E+01 0.  1.
         13    1    6    6    0    0  0.75599533166E+01  0.37484017768E+01  0.10903682801E+03  0.10936285143E+03  0.00000000000E+00 0. -1.
        -14    1    6    6    0    0  0.39951720438E+02 -0.21612405724E+02  0.16780146805E+02  0.48423231758E+02  0.00000000000E+00 0.  1.
<mgrwt>
<rscale>  2 0.20025240E+03</rscale>
<asrwt>0</asrwt>
<pdfrwt beam="2">  1        1 0.47020614E-01 0.20025240E+03</pdfrwt>
<pdfrwt beam="1">  1       -1 0.50840324E-01 0.20025240E+03</pdfrwt>
<totfact> 0.34458674E+02</totfact>
</mgrwt>
</event>
<event>
12    1  0.4404304E-002  0.1787892E+03  0.7546771E-02  0.1168980E+00
          2   -1    0    0  502    0  0.00000000000E+00  0.00000000000E+00  0.88445670241E+03  0.88445670241E+03  0.00000000000E+00 0.  1.
         -2   -1    0    0    0  501 -0.00000000000E+00 -0.00000000000E+00 -0.39865607152E+02  0.39865607152E+02  0.00000000000E+00 0. -1.
          6    2    1    2  502    0 -0.24270086829E+02  0.39933937466E+02  0.56469194059E+03  0.59248178636E+03  0.17312978638E+03 0.  0.
         24    2    3    3    0    0  0.42304152582E+01  0.84908266457E+02  0.28334778517E+03  0.30610512413E+03  0.78657927309E+02 0.  0.
         -6    2    1    2    0  501  0.24270086829E+02 -0.39933937466E+02  0.27989915468E+03  0.33184052320E+03  0.17201988134E+03 0.  0.
        -24    2    5    5    0    0  0.36104300045E+02  0.59430396953E+01  0.26803450032E+03  0.28277316482E+03  0.82336681841E+02 0.  0.
          5    1    3    3  502    0 -0.28500502088E+02 -0.44974328991E+02  0.28134415541E+03  0.28637666223E+03  0.47000000000E+01 0. -1.
        -13    1    4    4    0    0  0.53081035916E+01  0.30774836017E+02  0.22239532571E+03  0.22457726375E+03  0.00000000000E+00 0.  1.
         14    1    4    4    0    0 -0.10776883333E+01  0.54133430440E+02  0.60952459468E+02  0.81527860382E+02  0.00000000000E+00 0. -1.
         -5    1    5    5    0  501 -0.11834213216E+02 -0.45876977161E+02  0.11864654354E+02  0.49067358384E+02  0.47000000000E+01 0.  1.
         11    1    6    6    0    0  0.16531632666E+02  0.36285555188E+01  0.32230847589E+01  0.17229322944E+02  0.00000000000E+00 0. -1.
        -12    1    6    6    0    0  0.19572667379E+02  0.23144841765E+01  0.26481141556E+03  0.26554384188E+03  0.00000000000E+00 0.  1.
<mgrwt>
<rscale>  2 0.17878916E+03</rscale>
<asrwt>0</asrwt>
<pdfrwt beam="1">  1        2 0.13607025E+00 0.17878916E+03</pdfrwt>
<pdfrwt beam="2">  1       -2 0.61331710E-02 0.17878916E+03</pdfrwt>
<totfact> 0.43845867E+03</totfact>
</mgrwt>
</event>
<event>
12    1  0.4404304E-002  0.3070730E+03  0.7546771E-02  0.1081757E+00
          1   -1    0    0  502    0  0.00000000000E+00  0.00000000000E+00  0.55311351777E+03  0.55311351777E+03  0.00000000000E+00 0.  1.
         -1   -1    0    0    0  501 -0.00000000000E+00 -0.00000000000E+00 -0.17111278488E+03  0.17111278488E+03  0.00000000000E+00 0. -1.
          6    2    1    2  502    0  0.24890672112E+03  0.22235251647E+02  0.21100773944E+03  0.37022761534E+03  0.17347985134E+03 0.  0.
         24    2    3    3    0    0  0.23120779143E+03 -0.21726094876E+02  0.20702701061E+03  0.32243861763E+03  0.84719614020E+02 0.  0.
         -6    2    1    2    0  501 -0.24890672112E+03 -0.22235251647E+02  0.17099299345E+03  0.35399868732E+03  0.18337803735E+03 0.  0.
        -24    2    5    5    0    0 -0.39599247679E+02  0.15156310955E+01  0.93334329294E+02  0.12943982869E+03  0.80454798944E+02 0.  0.
          5    1    3    3  502    0  0.17698929691E+02  0.43961346523E+02  0.39807288333E+01  0.47788997712E+02  0.47000000000E+01 0. -1.
        -11    1    4    4    0    0  0.12273795352E+03 -0.53820773708E+02  0.11577740206E+03  0.17710360737E+03  0.00000000000E+00 0.  1.
         12    1    4    4    0    0  0.10846983790E+03  0.32094678832E+02  0.91249608553E+02  0.14533501025E+03  0.00000000000E+00 0. -1.
         -5    1    5    5    0  501 -0.20930747344E+03 -0.23750882742E+02  0.77658664154E+02  0.22455885862E+03  0.47000000000E+01 0.  1.
         11    1    6    6    0    0 -0.67957936445E+00 -0.34802426855E+02  0.25187979631E+02  0.42966324732E+02  0.00000000000E+00 0. -1.
        -12    1    6    6    0    0 -0.38919668314E+02  0.36318057950E+02  0.68146349663E+02  0.86473503962E+02  0.00000000000E+00 0.  1.
<mgrwt>
<rscale>  2 0.30707296E+03</rscale>
<asrwt>0</asrwt>
<pdfrwt beam="1">  1        1 0.85094387E-01 0.30707296E+03</pdfrwt>
<pdfrwt beam="2">  1       -1 0.26325044E-01 0.30707296E+03</pdfrwt>
<totfact> 0.50438888E+02</totfact>
</mgrwt>
</event>
<event>
12    1  0.4404304E-002  0.2062795E+03  0.7546771E-02  0.1144547E+00
          2   -1    0    0  502    0  0.00000000000E+00  0.00000000000E+00  0.10783915500E+04  0.10783915500E+04  0.00000000000E+00 0. -1.
         -2   -1    0    0    0  501 -0.00000000000E+00 -0.00000000000E+00 -0.43315653056E+02  0.43315653056E+02  0.00000000000E+00 0.  1.
          6    2    1    2  502    0 -0.97490364145E+02 -0.51076663541E+02  0.68196664954E+03  0.71211502250E+03  0.17296270559E+03 0.  0.
         24    2    3    3    0    0 -0.50788523890E+02 -0.31962673690E+02  0.63871048870E+03  0.64548475954E+03  0.71403079461E+02 0.  0.
         -6    2    1    2    0  501  0.97490364145E+02  0.51076663541E+02  0.35310924740E+03  0.40959218055E+03  0.17597277378E+03 0.  0.
        -24    2    5    5    0    0  0.12189579880E+02  0.66745018665E+02  0.11773486802E+03  0.15870393926E+03  0.81987546711E+02 0.  0.
          5    1    3    3  502    0 -0.46701840255E+02 -0.19113989851E+02  0.43256160839E+02  0.66630262957E+02  0.47000000000E+01 0. -1.
        -13    1    4    4    0    0 -0.22520154068E+02  0.15916828420E+02  0.94510702513E+02  0.98451895135E+02  0.00000000000E+00 0.  1.
         14    1    4    4    0    0 -0.28268369823E+02 -0.47879502109E+02  0.54419978619E+03  0.54703286440E+03  0.00000000000E+00 0. -1.
         -5    1    5    5    0  501  0.85300784266E+02 -0.15668355124E+02  0.23537437938E+03  0.25088824129E+03  0.47000000000E+01 0.  1.
         13    1    6    6    0    0  0.30368125912E+02  0.58455557578E+02  0.12165414371E+03  0.13834379626E+03  0.00000000000E+00 0. -1.
        -14    1    6    6    0    0 -0.18178546033E+02  0.82894610871E+01 -0.39192756907E+01  0.20360142998E+02  0.00000000000E+00 0.  1.
<mgrwt>
<rscale>  2 0.20627945E+03</rscale>
<asrwt>0</asrwt>
<pdfrwt beam="1">  1        2 0.16590637E+00 0.20627945E+03</pdfrwt>
<pdfrwt beam="2">  1       -2 0.66639474E-02 0.20627945E+03</pdfrwt>
<totfact> 0.29454190E+03</totfact>
</mgrwt>
</event>
<event>
12    1  0.4404304E-002  0.1884077E+03  0.7546771E-02  0.1159905E+00
         -2   -1    0    0    0  501 -0.00000000000E+00  0.00000000000E+00  0.61560164132E+02  0.61560164132E+02  0.00000000000E+00 0. -1.
          2   -1    0    0  502    0  0.00000000000E+00 -0.00000000000E+00 -0.13459884096E+04  0.13459884096E+04  0.00000000000E+00 0.  1.
          6    2    1    2  502    0 -0.25988309144E+02 -0.70633940464E+02 -0.11741093456E+04  0.11891100021E+04  0.17258417042E+03 0.  0.
         24    2    3    3    0    0 -0.11165473964E+02 -0.10198141941E+03 -0.10942552706E+04  0.11019254612E+04  0.79499981337E+02 0.  0.
         -6    2    1    2    0  501  0.25988309144E+02  0.70633940464E+02 -0.11031889987E+03  0.21843857164E+03  0.17286007103E+03 0.  0.
        -24    2    5    5    0    0  0.39359714442E+02  0.11153142157E+03 -0.10285170228E+03  0.17451537185E+03  0.76737847459E+02 0.  0.
          5    1    3    3  502    0 -0.14822835180E+02  0.31347478948E+02 -0.79854074937E+02  0.87184540850E+02  0.47000000000E+01 0. -1.
        -13    1    4    4    0    0  0.25774452997E+02 -0.59585753779E+02 -0.77850053663E+03  0.78120283539E+03  0.00000000000E+00 0.  1.
         14    1    4    4    0    0 -0.36939926961E+02 -0.42395665633E+02 -0.31575473402E+03  0.32072262584E+03  0.00000000000E+00 0. -1.
         -5    1    5    5    0  501 -0.13371405298E+02 -0.40897481104E+02 -0.74671975879E+01  0.43923199794E+02  0.47000000000E+01 0.  1.
         13    1    6    6    0    0 -0.21321633717E+02  0.43609041513E+02 -0.47601100343E+02  0.67986949629E+02  0.00000000000E+00 0. -1.
        -14    1    6    6    0    0  0.60681348159E+02  0.67922380055E+02 -0.55250601934E+02  0.10652842222E+03  0.00000000000E+00 0.  1.
<mgrwt>
<rscale>  2 0.18840771E+03</rscale>
<asrwt>0</asrwt>
<pdfrwt beam="2">  1        2 0.20707512E+00 0.18840771E+03</pdfrwt>
<pdfrwt beam="1">  1       -2 0.94707952E-02 0.18840771E+03</pdfrwt>
<totfact> 0.12046683E+03</totfact>
</mgrwt>
</event>
<event>
12    1  0.4404304E-002  0.1724392E+03  0.7546771E-02  0.1175328E+00
          1   -1    0    0  502    0  0.00000000000E+00  0.00000000000E+00  0.11002627832E+03  0.11002627832E+03  0.00000000000E+00 0. -1.
         -1   -1    0    0    0  501 -0.00000000000E+00 -0.00000000000E+00 -0.32531043839E+03  0.32531043839E+03  0.00000000000E+00 0.  1.
          6    2    1    2  502    0 -0.54582359992E+01  0.62389867637E+01 -0.18520945667E+02  0.17423504820E+03  0.17304944177E+03 0.  0.
         24    2    3    3    0    0 -0.26185566179E+01 -0.54415233990E+02 -0.47212892635E+02  0.10691256982E+03  0.78951667651E+02 0.  0.
         -6    2    1    2    0  501  0.54582359992E+01 -0.62389867637E+01 -0.19676321440E+03  0.26110166851E+03  0.17143395656E+03 0.  0.
        -24    2    5    5    0    0 -0.12484946143E+02 -0.37414552544E+02 -0.35202493180E+02  0.95518365221E+02  0.79553880774E+02 0.  0.
          5    1    3    3  502    0 -0.28396793812E+01  0.60654220754E+02  0.28691946968E+02  0.67322478379E+02  0.47000000000E+01 0. -1.
        -13    1    4    4    0    0 -0.25977756592E+02 -0.67940682662E+01 -0.46698965493E+02  0.53868326308E+02  0.00000000000E+00 0.  1.
         14    1    4    4    0    0  0.23359199974E+02 -0.47621165724E+02 -0.51392714270E+00  0.53044243509E+02  0.00000000000E+00 0. -1.
         -5    1    5    5    0  501  0.17943182142E+02  0.31175565780E+02 -0.16156072122E+03  0.16558330329E+03  0.47000000000E+01 0.  1.
         13    1    6    6    0    0  0.24900341277E+02  0.10097227647E+02 -0.30466029236E+01  0.27041871075E+02  0.00000000000E+00 0. -1.
        -14    1    6    6    0    0 -0.37385287420E+02 -0.47511780191E+02 -0.32155890256E+02  0.68476494146E+02  0.00000000000E+00 0.  1.
<mgrwt>
<rscale>  2 0.17243918E+03</rscale>
<asrwt>0</asrwt>
<pdfrwt beam="1">  1        1 0.16927120E-01 0.17243918E+03</pdfrwt>
<pdfrwt beam="2">  1       -1 0.50047759E-01 0.17243918E+03</pdfrwt>
<totfact> 0.12887731E+03</totfact>
</mgrwt>
</event>
<event>
12    1  0.4404304E-002  0.2115489E+03  0.7546771E-02  0.1140345E+00
          3   -1    0    0  502    0  0.00000000000E+00  0.00000000000E+00  0.23513929921E+04  0.23513929921E+04  0.00000000000E+00 0.  1.
         -3   -1    0    0    0  501 -0.00000000000E+00 -0.00000000000E+00 -0.34919179480E+02  0.34919179480E+02  0.00000000000E+00 0. -1.
          6    2    1    2  502    0 -0.59331584489E+02 -0.10473989172E+03  0.35199475676E+03  0.41042299597E+03  0.17336679322E+03 0.  0.
         24    2    3    3    0    0 -0.30368593720E+02  0.11945908762E+02  0.15288589756E+03  0.17778409406E+03  0.84664810903E+02 0.  0.
         -6    2    1    2    0  501  0.59331584489E+02  0.10473989172E+03  0.19644790559E+04  0.19758891756E+04  0.17455483830E+03 0.  0.
        -24    2    5    5    0    0  0.73499110169E+02  0.84688349843E+02  0.85213654547E+03  0.86326581907E+03  0.80727606512E+02 0.  0.
          5    1    3    3  502    0 -0.28962990769E+02 -0.11668580049E+03  0.19910885920E+03  0.23263890191E+03  0.47000000000E+01 0. -1.
        -11    1    4    4    0    0 -0.47149576483E+02 -0.22633171437E+02  0.88152808776E+02  0.10250005223E+03  0.00000000000E+00 0.  1.
         12    1    4    4    0    0  0.16780982764E+02  0.34579080199E+02  0.64733088787E+02  0.75284041827E+02  0.00000000000E+00 0. -1.
         -5    1    5    5    0  501 -0.14167525680E+02  0.20051541882E+02  0.11123425104E+04  0.11126233566E+04  0.47000000000E+01 0.  1.
         13    1    6    6    0    0  0.80042794856E+02  0.93666873188E+02  0.70293008757E+03  0.71364629906E+03  0.00000000000E+00 0. -1.
        -14    1    6    6    0    0 -0.65436846877E+01 -0.89785233452E+01  0.14920645790E+03  0.14961952001E+03  0.00000000000E+00 0.  1.
<mgrwt>
<rscale>  2 0.21154887E+03</rscale>
<asrwt>0</asrwt>
<pdfrwt beam="1">  1        3 0.36175265E+00 0.21154887E+03</pdfrwt>
<pdfrwt beam="2">  1       -3 0.53721833E-02 0.21154887E+03</pdfrwt>
<totfact> 0.10734088E+01</totfact>
</mgrwt>
</event>
<event>
12    1  0.4404304E-002  0.2064516E+03  0.7546771E-02  0.1144407E+00
         -1   -1    0    0    0  501 -0.00000000000E+00  0.00000000000E+00  0.17676747262E+03  0.17676747262E+03  0.00000000000E+00 0. -1.
          1   -1    0    0  502    0  0.00000000000E+00 -0.00000000000E+00 -0.24788778821E+03  0.24788778821E+03  0.00000000000E+00 0.  1.
          6    2    1    2  502    0 -0.63455039422E+02  0.94961825700E+02 -0.70569114491E+02  0.21778153265E+03  0.17147742031E+03 0.  0.
         24    2    3    3    0    0  0.82465830202E+01  0.88865397106E+00 -0.57028686866E+02  0.98633232282E+02  0.80046533638E+02 0.  0.
         -6    2    1    2    0  501  0.63455039422E+02 -0.94961825700E+02 -0.55120110525E+00  0.20687372818E+03  0.17248810168E+03 0.  0.
        -24    2    5    5    0    0  0.98222852645E+02 -0.10718797281E+03 -0.14428968399E+02  0.16721314404E+03  0.81332958342E+02 0.  0.
          5    1    3    3  502    0 -0.71701622442E+02  0.94073171729E+02 -0.13540427625E+02  0.11914830037E+03  0.47000000000E+01 0. -1.
        -11    1    4    4    0    0 -0.43204837521E+01 -0.19801177696E+02 -0.68794609517E+02  0.71717860513E+02  0.00000000000E+00 0.  1.
         12    1    4    4    0    0  0.12567066772E+02  0.20689831667E+02  0.11765922651E+02  0.26915371769E+02  0.00000000000E+00 0. -1.
         -5    1    5    5    0  501 -0.34767813223E+02  0.12226147111E+02  0.13877767293E+02  0.39660584143E+02  0.47000000000E+01 0.  1.
         13    1    6    6    0    0  0.67111318186E+02 -0.60179561922E+02  0.30463767655E+02  0.95150143676E+02  0.00000000000E+00 0. -1.
        -14    1    6    6    0    0  0.31111534459E+02 -0.47008410889E+02 -0.44892736054E+02  0.72063000362E+02  0.00000000000E+00 0.  1.
<mgrwt>
<rscale>  2 0.20645160E+03</rscale>
<asrwt>0</asrwt>
<pdfrwt beam="2">  1        1 0.38136583E-01 0.20645160E+03</pdfrwt>
<pdfrwt beam="1">  1       -1 0.27194996E-01 0.20645160E+03</pdfrwt>
<totfact> 0.13417847E+03</totfact>
</mgrwt>
</event>
<event>
12    1  0.4404304E-002  0.2019506E+03  0.7546771E-02  0.1148104E+00
          1   -1    0    0  502    0  0.00000000000E+00  0.00000000000E+00  0.24175099272E+04  0.24175099272E+04  0.00000000000E+00 0.  1.
         -1   -1    0    0    0  501 -0.00000000000E+00 -0.00000000000E+00 -0.23423740742E+02  0.23423740742E+02  0.00000000000E+00 0. -1.
          6    2    1    2  502    0  0.90960864302E+02 -0.45012108118E+02  0.56141762844E+03  0.59742015546E+03  0.17726003473E+03 0.  0.
         24    2    3    3    0    0  0.76653912014E+02  0.39512042005E+02  0.33569305402E+03  0.35591923551E+03  0.80942275729E+02 0.  0.
         -6    2    1    2    0  501 -0.90960864302E+02  0.45012108118E+02  0.18326685580E+04  0.18435135125E+04  0.17195365203E+03 0.  0.
        -24    2    5    5    0    0 -0.25457638602E+02  0.74276815269E+02  0.14380712811E+04  0.14424197621E+04  0.79753519434E+02 0.  0.
          5    1    3    3  502    0  0.14306952288E+02 -0.84524150122E+02  0.22572457443E+03  0.24150091995E+03  0.47000000000E+01 0. -1.
        -13    1    4    4    0    0  0.73131542551E+02 -0.17142959760E+01  0.25430907844E+03  0.26462099067E+03  0.00000000000E+00 0.  1.
         14    1    4    4    0    0  0.35223694624E+01  0.41226337981E+02  0.81383975574E+02  0.91298244836E+02  0.00000000000E+00 0. -1.
         -5    1    5    5    0  501 -0.65503225700E+02 -0.29264707151E+02  0.39459727690E+03  0.40109375038E+03  0.47000000000E+01 0.  1.
         11    1    6    6    0    0  0.21801637395E+02  0.42393656176E+02  0.40864945114E+03  0.41142059671E+03  0.00000000000E+00 0. -1.
        -12    1    6    6    0    0 -0.47259275996E+02  0.31883159093E+02  0.10294218300E+04  0.10309991654E+04  0.00000000000E+00 0.  1.
<mgrwt>
<rscale>  2 0.20195058E+03</rscale>
<asrwt>0</asrwt>
<pdfrwt beam="1">  1        1 0.37192441E+00 0.20195058E+03</pdfrwt>
<pdfrwt beam="2">  1       -1 0.36036543E-02 0.20195058E+03</pdfrwt>
<totfact> 0.52309184E+02</totfact>
</mgrwt>
</event>
<event>
12    1  0.4404304E-002  0.2281132E+03  0.7546771E-02  0.1127975E+00
         -2   -1    0    0    0  501 -0.00000000000E+00  0.00000000000E+00  0.24140984316E+02  0.24140984316E+02  0.00000000000E+00 0.  1.
          2   -1    0    0  502    0  0.00000000000E+00 -0.00000000000E+00 -0.26824589811E+04  0.26824589811E+04  0.00000000000E+00 0. -1.
          6    2    1    2  502    0  0.14172309290E+03  0.44460935816E+02 -0.19328550843E+04  0.19463672602E+04  0.17422549962E+03 0.  0.
         24    2    3    3    0    0  0.61967476767E+02  0.88002895984E+02 -0.96709004611E+03  0.97632547779E+03  0.79773450529E+02 0.  0.
         -6    2    1    2    0  501 -0.14172309290E+03 -0.44460935816E+02 -0.72546291249E+03  0.76023270525E+03  0.17203231920E+03 0.  0.
        -24    2    5    5    0    0 -0.75461929576E+02 -0.95022191097E+01 -0.62575302174E+03  0.63542563032E+03  0.80088029471E+02 0.  0.
          5    1    3    3  502    0  0.79755616130E+02 -0.43541960168E+02 -0.96576503818E+03  0.97004178238E+03  0.47000000000E+01 0. -1.
        -13    1    4    4    0    0  0.70689375855E+02  0.90843855661E+02 -0.94983033161E+03  0.95677962605E+03  0.00000000000E+00 0.  1.
         14    1    4    4    0    0 -0.87218990880E+01 -0.28409596776E+01 -0.17259714498E+02  0.19545851738E+02  0.00000000000E+00 0. -1.
         -5    1    5    5    0  501 -0.66261163320E+02 -0.34958716706E+02 -0.99709890753E+02  0.12480707493E+03  0.47000000000E+01 0.  1.
         13    1    6    6    0    0 -0.41920243789E+02  0.34302107047E+02 -0.35501530787E+03  0.35912366979E+03  0.00000000000E+00 0. -1.
        -14    1    6    6    0    0 -0.33541685787E+02 -0.43804326156E+02 -0.27073771387E+03  0.27630196052E+03  0.00000000000E+00 0.  1.
<mgrwt>
<rscale>  2 0.22811323E+03</rscale>
<asrwt>0</asrwt>
<pdfrwt beam="2">  1        2 0.41268607E+00 0.22811323E+03</pdfrwt>
<pdfrwt beam="1">  1       -2 0.37139969E-02 0.22811323E+03</pdfrwt>
<totfact> 0.98381751E+02</totfact>
</mgrwt>
</event>
<event>
12    1  0.4404304E-002  0.1849922E+03  0.7546771E-02  0.1163057E+00
         -2   -1    0    0    0  501 -0.00000000000E+00  0.00000000000E+00  0.10976350712E+02  0.10976350712E+02  0.00000000000E+00 0.  1.
          2   -1    0    0  502    0  0.00000000000E+00 -0.00000000000E+00 -0.33581965514E+04  0.33581965514E+04  0.00000000000E+00 0. -1.
          6    2    1    2  502    0 -0.69318993823E+02 -0.15848589247E+01 -0.21378808663E+04  0.21460126410E+04  0.17328595489E+03 0.  0.
         24    2    3    3    0    0 -0.55480777444E+02 -0.61306361030E+02 -0.10460176854E+04  0.10524197324E+04  0.81226278392E+02 0.  0.
         -6    2    1    2    0  501  0.69318993823E+02  0.15848589247E+01 -0.12093393344E+04  0.12231602611E+04  0.16974028391E+03 0.  0.
        -24    2    5    5    0    0  0.53522816235E+02  0.19272099713E+02 -0.32550457233E+03  0.33899492910E+03  0.75685068942E+02 0.  0.
          5    1    3    3  502    0 -0.13838216379E+02  0.59721502106E+02 -0.10918631809E+04  0.10935929087E+04  0.47000000000E+01 0. -1.
        -11    1    4    4    0    0  0.19420361064E+02 -0.10604219564E+02 -0.32475816159E+03  0.32551108033E+03  0.00000000000E+00 0.  1.
         12    1    4    4    0    0 -0.74901138508E+02 -0.50702141466E+02 -0.72125952384E+03  0.72690865205E+03  0.00000000000E+00 0. -1.
         -5    1    5    5    0  501  0.15796177588E+02 -0.17687240788E+02 -0.88383476207E+03  0.88416533202E+03  0.47000000000E+01 0.  1.
         13    1    6    6    0    0  0.24963047131E+02  0.47821365318E+02 -0.20045568906E+03  0.20758737915E+03  0.00000000000E+00 0. -1.
        -14    1    6    6    0    0  0.28559769104E+02 -0.28549265605E+02 -0.12504888327E+03  0.13140754995E+03  0.00000000000E+00 0.  1.
<mgrwt>
<rscale>  2 0.18499223E+03</rscale>
<asrwt>0</asrwt>
<pdfrwt beam="2">  1        2 0.51664535E+00 0.18499223E+03</pdfrwt>
<pdfrwt beam="1">  1       -2 0.16886702E-02 0.18499223E+03</pdfrwt>
<totfact> 0.12677321E+03</totfact>
</mgrwt>
</event>
<event>
12    1  0.4404304E-002  0.2163087E+03  0.7546771E-02  0.1136665E+00
          2   -1    0    0  502    0  0.00000000000E+00  0.00000000000E+00  0.13989492612E+04  0.13989492612E+04  0.00000000000E+00 0.  1.
         -2   -1    0    0    0  501 -0.00000000000E+00 -0.00000000000E+00 -0.81896805293E+02  0.81896805293E+02  0.00000000000E+00 0. -1.
          6    2    1    2  502    0 -0.41479369014E+02 -0.12232328463E+03  0.12276234843E+04  0.12464782445E+04  0.17310421960E+03 0.  0.
         24    2    3    3    0    0  0.10919493736E+01 -0.10353769465E+01  0.62635095611E+03  0.63160116993E+03  0.81254250853E+02 0.  0.
         -6    2    1    2    0  501  0.41479369014E+02  0.12232328463E+03  0.89428971626E+02  0.23436782199E+03  0.17391725332E+03 0.  0.
        -24    2    5    5    0    0  0.19398087095E+02  0.13091822922E+03  0.11942742510E+03  0.19585219796E+03  0.81112915481E+02 0.  0.
          5    1    3    3  502    0 -0.42571318388E+02 -0.12128790768E+03  0.60127252821E+03  0.61487707461E+03  0.47000000000E+01 0. -1.
        -13    1    4    4    0    0 -0.38831281181E+02 -0.10306309381E+02  0.32625234134E+03  0.32871671487E+03  0.00000000000E+00 0.  1.
         14    1    4    4    0    0  0.39923230555E+02  0.92709324348E+01  0.30009861477E+03  0.30288445505E+03  0.00000000000E+00 0. -1.
         -5    1    5    5    0  501  0.22081281919E+02 -0.85949445876E+01 -0.29998453469E+02  0.38515624027E+02  0.47000000000E+01 0.  1.
         11    1    6    6    0    0 -0.22212915398E+02  0.10485956301E+02  0.35890553411E+02  0.43491386667E+02  0.00000000000E+00 0. -1.
        -12    1    6    6    0    0  0.41611002493E+02  0.12043227292E+03  0.83536871684E+02  0.15236081130E+03  0.00000000000E+00 0.  1.
<mgrwt>
<rscale>  2 0.21630870E+03</rscale>
<asrwt>0</asrwt>
<pdfrwt beam="1">  1        2 0.21522295E+00 0.21630870E+03</pdfrwt>
<pdfrwt beam="2">  1       -2 0.12599510E-01 0.21630870E+03</pdfrwt>
<totfact> 0.71290944E+02</totfact>
</mgrwt>
</event>
<event>
12    1  0.4404304E-002  0.1822578E+03  0.7546771E-02  0.1165636E+00
          1   -1    0    0  502    0  0.00000000000E+00  0.00000000000E+00  0.10765103097E+03  0.10765103097E+03  0.00000000000E+00 0.  1.
         -1   -1    0    0    0  501 -0.00000000000E+00 -0.00000000000E+00 -0.34215198026E+03  0.34215198026E+03  0.00000000000E+00 0. -1.
          6    2    1    2  502    0 -0.16048734568E+02  0.11261599975E+02 -0.51957981971E+02  0.19717078565E+03  0.18918853377E+03 0.  0.
         24    2    3    3    0    0  0.78693525105E+01 -0.25118880276E+02  0.42018833663E+02  0.93491732273E+02  0.79260562487E+02 0.  0.
         -6    2    1    2    0  501  0.16048734568E+02 -0.11261599975E+02 -0.18254296731E+03  0.25263222558E+03  0.17354169808E+03 0.  0.
        -24    2    5    5    0    0 -0.19117334694E+02 -0.16500281459E+02 -0.23968207824E+02  0.90052581844E+02  0.83049748563E+02 0.  0.
          5    1    3    3  502    0 -0.23918087078E+02  0.36380480251E+02 -0.93976815634E+02  0.10367905338E+03  0.47000000000E+01 0. -1.
        -11    1    4    4    0    0  0.17530414897E+01  0.28779139589E+02  0.10081873506E+02  0.30544331771E+02  0.00000000000E+00 0.  1.
         12    1    4    4    0    0  0.61163110208E+01 -0.53898019865E+02  0.31936960157E+02  0.62947400502E+02  0.00000000000E+00 0. -1.
         -5    1    5    5    0  501  0.35166069262E+02  0.52386814838E+01 -0.15857475949E+03  0.16257964374E+03  0.47000000000E+01 0.  1.
         13    1    6    6    0    0  0.32641403692E+01 -0.70453941131E+01 -0.52217717916E+02  0.52791876789E+02  0.00000000000E+00 0. -1.
        -14    1    6    6    0    0 -0.22381475063E+02 -0.94548873459E+01  0.28249510092E+02  0.37260705054E+02  0.00000000000E+00 0.  1.
<mgrwt>
<rscale>  2 0.18225779E+03</rscale>
<asrwt>0</asrwt>
<pdfrwt beam="1">  1        1 0.16561697E-01 0.18225779E+03</pdfrwt>
<pdfrwt beam="2">  1       -1 0.52638766E-01 0.18225779E+03</pdfrwt>
<totfact> 0.12093183E+03</totfact>
</mgrwt>
</event>
<event>
12    1  0.4404304E-002  0.2025177E+03  0.7546771E-02  0.1147632E+00
          2   -1    0    0  502    0  0.00000000000E+00  0.00000000000E+00  0.25825164741E+04  0.25825164741E+04  0.00000000000E+00 0.  1.
         -2   -1    0    0    0  501 -0.00000000000E+00 -0.00000000000E+00 -0.16316921558E+02  0.16316921558E+02  0.00000000000E+00 0. -1.
          6    2    1    2  502    0 -0.80891081763E+02  0.83931144777E+02  0.10350217577E+04  0.10534479100E+04  0.15778040417E+03 0.  0.
         24    2    3    3    0    0 -0.98357567073E+02  0.38455915219E+02  0.90381052440E+03  0.91340665763E+03  0.79279188809E+02 0.  0.
         -6    2    1    2    0  501  0.80891081763E+02 -0.83931144777E+02  0.15311777948E+04  0.15453854857E+04  0.17355994867E+03 0.  0.
        -24    2    5    5    0    0 -0.60768862087E+01  0.85809577684E+01  0.59552526549E+03  0.60114522905E+03  0.81330702634E+02 0.  0.
          5    1    3    3  502    0  0.17466485309E+02  0.45475229559E+02  0.13121123332E+03  0.14004125236E+03  0.47000000000E+01 0. -1.
        -11    1    4    4    0    0  0.46438427483E-01  0.14545229623E+02  0.35711515819E+03  0.35741125062E+03  0.00000000000E+00 0.  1.
         12    1    4    4    0    0 -0.98404005500E+02  0.23910685596E+02  0.54669536620E+03  0.55599540701E+03  0.00000000000E+00 0. -1.
         -5    1    5    5    0  501  0.86967967972E+02 -0.92512102546E+02  0.93565252932E+03  0.94424025660E+03  0.47000000000E+01 0.  1.
         13    1    6    6    0    0  0.43866286214E+01 -0.35645398934E+02  0.30081938532E+03  0.30295567260E+03  0.00000000000E+00 0. -1.
        -14    1    6    6    0    0 -0.10463514830E+02  0.44226356702E+02  0.29470588017E+03  0.29818955645E+03  0.00000000000E+00 0.  1.
<mgrwt>
<rscale>  2 0.20251773E+03</rscale>
<asrwt>0</asrwt>
<pdfrwt beam="1">  1        2 0.39730990E+00 0.20251773E+03</pdfrwt>
<pdfrwt beam="2">  1       -2 0.25102977E-02 0.20251773E+03</pdfrwt>
<totfact> 0.20093006E+03</totfact>
</mgrwt>
</event>
<event>
12    1  0.4404304E-002  0.1777069E+03  0.7546771E-02  0.1170041E+00
          1   -1    0    0  502    0  0.00000000000E+00  0.00000000000E+00  0.25742929524E+03  0.25742929524E+03  0.00000000000E+00 0.  1.
         -1   -1    0    0    0  501 -0.00000000000E+00 -0.00000000000E+00 -0.13112853277E+03  0.13112853277E+03  0.00000000000E+00 0. -1.
          6    2    1    2  502    0 -0.10169284581E+02  0.38245725894E+02  0.13843070368E+02  0.17832182618E+03  0.17332308905E+03 0.  0.
         24    2    3    3    0    0  0.31997900035E+02  0.27632343668E+02  0.64327698232E+02  0.11152734294E+03  0.80702437638E+02 0.  0.
         -6    2    1    2    0  501  0.10169284581E+02 -0.38245725894E+02  0.11245769210E+03  0.21023600183E+03  0.17316551058E+03 0.  0.
        -24    2    5    5    0    0  0.48667850920E+02 -0.76746067144E+02  0.72318540791E+02  0.14242997441E+03  0.82448818863E+02 0.  0.
          5    1    3    3  502    0 -0.42167184616E+02  0.10613382227E+02 -0.50484627864E+02  0.66794483240E+02  0.47000000000E+01 0. -1.
        -11    1    4    4    0    0  0.43944798807E+02 -0.13252948391E+02  0.46543351099E+02  0.65368719697E+02  0.00000000000E+00 0.  1.
         12    1    4    4    0    0 -0.11946898773E+02  0.40885292058E+02  0.17784347133E+02  0.46158623245E+02  0.00000000000E+00 0. -1.
         -5    1    5    5    0  501 -0.38498566340E+02  0.38500341250E+02  0.40139151312E+02  0.67806027421E+02  0.47000000000E+01 0.  1.
         13    1    6    6    0    0  0.18596199214E+02 -0.63141662518E+02  0.32769830989E+01  0.65904679568E+02  0.00000000000E+00 0. -1.
        -14    1    6    6    0    0  0.30071651706E+02 -0.13604404626E+02  0.69041557692E+02  0.76525294838E+02  0.00000000000E+00 0.  1.
<mgrwt>
<rscale>  2 0.17770687E+03</rscale>
<asrwt>0</asrwt>
<pdfrwt beam="1">  1        1 0.39604507E-01 0.17770687E+03</pdfrwt>
<pdfrwt beam="2">  1       -1 0.20173620E-01 0.17770687E+03</pdfrwt>
<totfact> 0.20844438E+03</totfact>
</mgrwt>
</event>
<event>
12    1  0.4404304E-002  0.2103304E+03  0.7546771E-02  0.1141305E+00
          2   -1    0    0  502    0  0.00000000000E+00  0.00000000000E+00  0.14537604466E+04  0.14537604466E+04  0.00000000000E+00 0.  1.
         -2   -1    0    0    0  501 -0.00000000000E+00 -0.00000000000E+00 -0.10185294340E+03  0.10185294340E+03  0.00000000000E+00 0. -1.
          6    2    1    2  502    0  0.48006474580E+02 -0.10907261985E+03  0.13274640947E+04  0.13440530093E+04  0.17353994137E+03 0.  0.
         24    2    3    3    0    0  0.49204328230E+02 -0.13377467161E+03  0.12770491005E+04  0.12877024294E+04  0.83704319392E+02 0.  0.
         -6    2    1    2    0  501 -0.48006474580E+02  0.10907261985E+03  0.24443408498E+02  0.21156038065E+03  0.17308626877E+03 0.  0.
        -24    2    5    5    0    0  0.34911777079E+02  0.88359882416E+02 -0.22774167675E+02  0.11380536313E+03  0.58366916692E+02 0.  0.
          5    1    3    3  502    0 -0.11978536503E+01  0.24702051754E+02  0.50414994195E+02  0.56350579890E+02  0.47000000000E+01 0. -1.
        -11    1    4    4    0    0 -0.21889459074E+02 -0.15451122548E+02  0.24568473992E+03  0.24714141101E+03  0.00000000000E+00 0.  1.
         12    1    4    4    0    0  0.71093787304E+02 -0.11832354906E+03  0.10313643606E+04  0.10405610184E+04  0.00000000000E+00 0. -1.
         -5    1    5    5    0  501 -0.82918251658E+02  0.20712737439E+02  0.47217576174E+02  0.97755017518E+02  0.47000000000E+01 0.  1.
         11    1    6    6    0    0  0.30641029722E+02  0.57545352570E+02  0.12914392829E+02  0.66461431274E+02  0.00000000000E+00 0. -1.
        -12    1    6    6    0    0  0.42707473571E+01  0.30814529846E+02 -0.35688560504E+02  0.47343931854E+02  0.00000000000E+00 0.  1.
<mgrwt>
<rscale>  2 0.21033039E+03</rscale>
<asrwt>0</asrwt>
<pdfrwt beam="1">  1        2 0.22365544E+00 0.21033039E+03</pdfrwt>
<pdfrwt beam="2">  1       -2 0.15669685E-01 0.21033039E+03</pdfrwt>
<totfact> 0.46634998E+02</totfact>
</mgrwt>
</event>
<event>
12    1  0.4404304E-002  0.1777295E+03  0.7546771E-02  0.1170019E+00
         -2   -1    0    0    0  501 -0.00000000000E+00  0.00000000000E+00  0.25109008662E+02  0.25109008662E+02  0.00000000000E+00 0.  1.
          2   -1    0    0  502    0  0.00000000000E+00 -0.00000000000E+00 -0.12591349273E+04  0.12591349273E+04  0.00000000000E+00 0. -1.
          6    2    1    2  502    0 -0.21162889082E+02 -0.34876225164E+02 -0.59728990807E+03  0.62311641582E+03  0.17278487905E+03 0.  0.
         24    2    3    3    0    0  0.17135979385E+02  0.23983765524E+02 -0.17624938232E+03  0.19623409462E+03  0.81087066324E+02 0.  0.
         -6    2    1    2    0  501  0.21162889082E+02  0.34876225164E+02 -0.63673601056E+03  0.66112752013E+03  0.17318380922E+03 0.  0.
        -24    2    5    5    0    0 -0.37027006803E+02  0.69230210147E+02 -0.39385425407E+03  0.40897697403E+03  0.77312163354E+02 0.  0.
          5    1    3    3  502    0 -0.38298868467E+02 -0.58859990689E+02 -0.42104052575E+03  0.42688232120E+03  0.47000000000E+01 0. -1.
        -13    1    4    4    0    0  0.13157321012E+02  0.41976145275E+02 -0.17171121991E+03  0.17725646648E+03  0.00000000000E+00 0.  1.
         14    1    4    4    0    0  0.39786583726E+01 -0.17992379750E+02 -0.45381624096E+01  0.18977628133E+02  0.00000000000E+00 0. -1.
         -5    1    5    5    0  501  0.58189895885E+02 -0.34353984983E+02 -0.24288175648E+03  0.25215054610E+03  0.47000000000E+01 0.  1.
         11    1    6    6    0    0 -0.18605428915E+02  0.65400655819E+02 -0.15348133413E+03  0.16786878117E+03  0.00000000000E+00 0. -1.
        -12    1    6    6    0    0 -0.18421577888E+02  0.38295543283E+01 -0.24037291995E+03  0.24110819286E+03  0.00000000000E+00 0.  1.
<mgrwt>
<rscale>  2 0.17772948E+03</rscale>
<asrwt>0</asrwt>
<pdfrwt beam="2">  1        2 0.19371305E+00 0.17772948E+03</pdfrwt>
<pdfrwt beam="1">  1       -2 0.38629247E-02 0.17772948E+03</pdfrwt>
<totfact> 0.52981241E+03</totfact>
</mgrwt>
</event>
<event>
12    1  0.4404304E-002  0.1827358E+03  0.7546771E-02  0.1165181E+00
         -1   -1    0    0    0  501 -0.00000000000E+00  0.00000000000E+00  0.28899370915E+02  0.28899370915E+02  0.00000000000E+00 0.  1.
          1   -1    0    0  502    0  0.00000000000E+00 -0.00000000000E+00 -0.11716785520E+04  0.11716785520E+04  0.00000000000E+00 0. -1.
          6    2    1    2  502    0 -0.55303404979E+02  0.42572567820E+00 -0.63381626553E+03  0.65895019199E+03  0.17156237705E+03 0.  0.
         24    2    3    3    0    0  0.63917921663E+01  0.55268491465E+02 -0.29614034252E+03  0.31129929627E+03  0.78183682652E+02 0.  0.
         -6    2    1    2    0  501  0.55303404979E+02 -0.42572567820E+00 -0.50896291555E+03  0.54162773093E+03  0.17680130560E+03 0.  0.
        -24    2    5    5    0    0  0.33377871690E+02  0.57497347454E+02 -0.41754936549E+03  0.43110923227E+03  0.84188302311E+02 0.  0.
          5    1    3    3  502    0 -0.61695197145E+02 -0.54842765787E+02 -0.33767592301E+03  0.34765089572E+03  0.47000000000E+01 0. -1.
        -13    1    4    4    0    0 -0.16979059354E+02  0.29419159765E+02 -0.38621981992E+02  0.51433772084E+02  0.00000000000E+00 0.  1.
         14    1    4    4    0    0  0.23370851520E+02  0.25849331700E+02 -0.25751836053E+03  0.25986552419E+03  0.00000000000E+00 0. -1.
         -5    1    5    5    0  501  0.21925533289E+02 -0.57923073132E+02 -0.91413550066E+02  0.11051849866E+03  0.47000000000E+01 0.  1.
         11    1    6    6    0    0  0.43288255264E+01  0.12070712693E+02 -0.31488772892E+03  0.31514873101E+03  0.00000000000E+00 0. -1.
        -12    1    6    6    0    0  0.29049046164E+02  0.45426634761E+02 -0.10266163657E+03  0.11596050126E+03  0.00000000000E+00 0.  1.
<mgrwt>
<rscale>  2 0.18273576E+03</rscale>
<asrwt>0</asrwt>
<pdfrwt beam="2">  1        1 0.18025823E+00 0.18273576E+03</pdfrwt>
<pdfrwt beam="1">  1       -1 0.44460573E-02 0.18273576E+03</pdfrwt>
<totfact> 0.25055051E+03</totfact>
</mgrwt>
</event>
<event>
12    1  0.4404304E-002  0.2465217E+03  0.7546771E-02  0.1115523E+00
          1   -1    0    0  502    0  0.00000000000E+00  0.00000000000E+00  0.10009570079E+04  0.10009570079E+04  0.00000000000E+00 0. -1.
         -1   -1    0    0    0  501 -0.00000000000E+00 -0.00000000000E+00 -0.67775139926E+02  0.67775139926E+02  0.00000000000E+00 0.  1.
          6    2    1    2  502    0  0.69705044774E+02 -0.16347297985E+03  0.63800834760E+03  0.68375703383E+03  0.16996123468E+03 0.  0.
         24    2    3    3    0    0 -0.31641320611E+01 -0.11259842765E+03  0.50612300161E+03  0.52465338371E+03  0.80076604819E+02 0.  0.
         -6    2    1    2    0  501 -0.69705044774E+02  0.16347297985E+03  0.29517352040E+03  0.38497511402E+03  0.17174464435E+03 0.  0.
        -24    2    5    5    0    0 -0.48857546013E+02  0.92062198064E+02  0.70663568512E+02  0.14841449503E+03  0.78555803769E+02 0.  0.
          5    1    3    3  502    0  0.72869176835E+02 -0.50874552198E+02  0.13188534599E+03  0.15910365012E+03  0.47000000000E+01 0. -1.
        -13    1    4    4    0    0  0.16916583421E+02  0.59740163994E+01  0.64376881973E+02  0.66829952859E+02  0.00000000000E+00 0.  1.
         14    1    4    4    0    0 -0.20080715482E+02 -0.11857244405E+03  0.44174611964E+03  0.45782343085E+03  0.00000000000E+00 0. -1.
         -5    1    5    5    0  501 -0.20847498761E+02  0.71410781787E+02  0.22450995189E+03  0.23656061899E+03  0.47000000000E+01 0.  1.
         13    1    6    6    0    0  0.72479843249E+01  0.55432611855E+02  0.57370981946E+02  0.80104539842E+02  0.00000000000E+00 0. -1.
        -14    1    6    6    0    0 -0.56105530338E+02  0.36629586210E+02  0.13292586566E+02  0.68309955190E+02  0.00000000000E+00 0.  1.
<mgrwt>
<rscale>  2 0.24652174E+03</rscale>
<asrwt>0</asrwt>
<pdfrwt beam="1">  1        1 0.15399338E+00 0.24652174E+03</pdfrwt>
<pdfrwt beam="2">  1       -1 0.10426945E-01 0.24652174E+03</pdfrwt>
<totfact> 0.91432091E+02</totfact>
</mgrwt>
</event>
<event>
12    1  0.4404304E-002  0.2028510E+03  0.7546771E-02  0.1147356E+00
          2   -1    0    0  502    0  0.00000000000E+00  0.00000000000E+00  0.22959671043E+04  0.22959671043E+04  0.00000000000E+00 0.  1.
         -2   -1    0    0    0  501 -0.00000000000E+00 -0.00000000000E+00 -0.18206675951E+02  0.18206675951E+02  0.00000000000E+00 0. -1.
          6    2    1    2  502    0 -0.53563428303E+02 -0.94219044302E+02  0.12881272910E+04  0.13041334842E+04  0.17247016481E+03 0.  0.
         24    2    3    3    0    0 -0.33101091709E+02  0.41055146429E+00  0.89365845515E+03  0.89793006221E+03  0.80975992362E+02 0.  0.
         -6    2    1    2    0  501  0.53563428303E+02  0.94219044302E+02  0.98963313741E+03  0.10100402961E+04  0.17047399760E+03 0.  0.
        -24    2    5    5    0    0  0.84585109110E+02  0.11160083188E+03  0.70116500910E+03  0.71935073266E+03  0.78890558638E+02 0.  0.
          5    1    3    3  502    0 -0.20462336593E+02 -0.94629595766E+02  0.39446883581E+03  0.40620342199E+03  0.47000000000E+01 0. -1.
        -13    1    4    4    0    0  0.11843928272E+02 -0.29164753925E+02  0.43241616508E+03  0.43356037796E+03  0.00000000000E+00 0.  1.
         14    1    4    4    0    0 -0.44945019982E+02  0.29575305390E+02  0.46124229006E+03  0.46436968425E+03  0.00000000000E+00 0. -1.
         -5    1    5    5    0  501 -0.31021680807E+02 -0.17381787574E+02  0.28846812831E+03  0.29068956340E+03  0.47000000000E+01 0.  1.
         13    1    6    6    0    0  0.73905547837E+02  0.11427595972E+03  0.69129868928E+03  0.70456717407E+03  0.00000000000E+00 0. -1.
        -14    1    6    6    0    0  0.10679561272E+02 -0.26751278494E+01  0.98663198114E+01  0.14783558591E+02  0.00000000000E+00 0.  1.
<mgrwt>
<rscale>  2 0.20285097E+03</rscale>
<asrwt>0</asrwt>
<pdfrwt beam="1">  1        2 0.35322548E+00 0.20285097E+03</pdfrwt>
<pdfrwt beam="2">  1       -2 0.28010289E-02 0.20285097E+03</pdfrwt>
<totfact> 0.24381330E+03</totfact>
</mgrwt>
</event>
<event>
12    1  0.4404304E-002  0.3835449E+03  0.7546771E-02  0.1049631E+00
         -1   -1    0    0    0  501 -0.00000000000E+00  0.00000000000E+00  0.49312978686E+02  0.49312978686E+02  0.00000000000E+00 0.  1.
          1   -1    0    0  502    0  0.00000000000E+00 -0.00000000000E+00 -0.29831623345E+04  0.29831623345E+04  0.00000000000E+00 0. -1.
          6    2    1    2  502    0  0.33678618315E+03 -0.58872846758E+02 -0.14728827999E+04  0.15220342119E+04  0.17410759565E+03 0.  0.
         24    2    3    3    0    0  0.27768508608E+03 -0.10126410394E+03 -0.10858626536E+04  0.11282111019E+04  0.79994763661E+02 0.  0.
         -6    2    1    2    0  501 -0.33678618315E+03  0.58872846758E+02 -0.14609665559E+04  0.15104411012E+04  0.17354566415E+03 0.  0.
        -24    2    5    5    0    0 -0.34427206286E+03  0.76313366429E+02 -0.14132598666E+04  0.14588830919E+04  0.81789009762E+02 0.  0.
          5    1    3    3  502    0  0.59101097078E+02  0.42391257186E+02 -0.38702014626E+03  0.39382311001E+03  0.47000000000E+01 0. -1.
        -13    1    4    4    0    0  0.16765354009E+03 -0.71538646320E+02 -0.79915615875E+03  0.81968045816E+03  0.00000000000E+00 0.  1.
         14    1    4    4    0    0  0.11003154599E+03 -0.29725457624E+02 -0.28670649485E+03  0.30853064375E+03  0.00000000000E+00 0. -1.
         -5    1    5    5    0  501  0.74858797043E+01 -0.17440519670E+02 -0.47706689285E+02  0.51558009309E+02  0.47000000000E+01 0.  1.
         13    1    6    6    0    0 -0.18745164794E+03  0.76554987256E+02 -0.70709205449E+03  0.73551203927E+03  0.00000000000E+00 0. -1.
        -14    1    6    6    0    0 -0.15682041492E+03 -0.24162082787E+00 -0.70616781215E+03  0.72337105267E+03  0.00000000000E+00 0.  1.
<mgrwt>
<rscale>  2 0.38354490E+03</rscale>
<asrwt>0</asrwt>
<pdfrwt beam="2">  1        1 0.45894813E+00 0.38354490E+03</pdfrwt>
<pdfrwt beam="1">  1       -1 0.75866107E-02 0.38354490E+03</pdfrwt>
<totfact> 0.67331075E+01</totfact>
</mgrwt>
</event>
<event>
12    1  0.4404304E-002  0.2198761E+03  0.7546771E-02  0.1133975E+00
          2   -1    0    0  502    0  0.00000000000E+00  0.00000000000E+00  0.14030741807E+04  0.14030741807E+04  0.00000000000E+00 0. -1.
         -2   -1    0    0    0  501 -0.00000000000E+00 -0.00000000000E+00 -0.36448974087E+02  0.36448974087E+02  0.00000000000E+00 0.  1.
          6    2    1    2  502    0 -0.12929268538E+03 -0.17591624042E+02  0.52310658464E+03  0.56848337982E+03  0.18029639628E+03 0.  0.
         24    2    3    3    0    0 -0.99551466021E+02  0.56871078697E+02  0.29770052006E+03  0.32919439517E+03  0.81231374393E+02 0.  0.
         -6    2    1    2    0  501  0.12929268538E+03  0.17591624042E+02  0.84351862201E+03  0.87103977500E+03  0.17366795971E+03 0.  0.
        -24    2    5    5    0    0  0.56751198531E+02  0.65156070234E+02  0.65209542873E+03  0.66082661466E+03  0.63224634828E+02 0.  0.
          5    1    3    3  502    0 -0.29741219358E+02 -0.74462702738E+02  0.22540606458E+03  0.23928898466E+03  0.47000000000E+01 0. -1.
        -13    1    4    4    0    0  0.12504679059E+02  0.17960913316E+02  0.47515967200E+02  0.52313751007E+02  0.00000000000E+00 0.  1.
         14    1    4    4    0    0 -0.11205614508E+03  0.38910165381E+02  0.25018455286E+03  0.27688064416E+03  0.00000000000E+00 0. -1.
         -5    1    5    5    0  501  0.72541486849E+02 -0.47564446192E+02  0.19142319328E+03  0.21021316034E+03  0.47000000000E+01 0.  1.
         11    1    6    6    0    0  0.93320835145E+01 -0.11714246422E+02  0.57887092534E+02  0.59793200567E+02  0.00000000000E+00 0. -1.
        -12    1    6    6    0    0  0.47419115017E+02  0.76870316656E+02  0.59420833619E+03  0.60103341409E+03  0.00000000000E+00 0.  1.
<mgrwt>
<rscale>  2 0.21987612E+03</rscale>
<asrwt>0</asrwt>
<pdfrwt beam="1">  1        2 0.21585753E+00 0.21987612E+03</pdfrwt>
<pdfrwt beam="2">  1       -2 0.56075355E-02 0.21987612E+03</pdfrwt>
<totfact> 0.25273315E+03</totfact>
</mgrwt>
</event>
<event>
11    1  0.4404304E-002  0.2082921E+03  0.7546771E-02  0.1142926E+00
          1   -1    0    0  502    0  0.00000000000E+00  0.00000000000E+00  0.15195159473E+03  0.15195159473E+03  0.00000000000E+00 0. -1.
         -1   -1    0    0    0  501 -0.00000000000E+00 -0.00000000000E+00 -0.29747908052E+03  0.29747908052E+03  0.00000000000E+00 0.  1.
          6    2    1    2  502    0 -0.11628791370E+03 -0.17290055578E+02 -0.11732239186E+03  0.23785102921E+03  0.17025493699E+03 0.  0.
         -6    2    1    2    0  501  0.11628791370E+03  0.17290055578E+02 -0.28205093927E+02  0.21157964604E+03  0.17363350598E+03 0.  0.
        -24    2    4    4    0    0 -0.52112978105E+01 -0.46099333311E+01 -0.34355384214E+02  0.87880074562E+02  0.80586636426E+02 0.  0.
          5    1    3    3  502    0 -0.83380276614E+02 -0.21006568315E+02 -0.47114783586E+02  0.98160273395E+02  0.47000000000E+01 0. -1.
        -11    1    3    3    0    0 -0.66299203897E+01 -0.36682774138E+02 -0.82000000081E+02  0.90075422709E+02  0.00000000000E+00 0.  1.
         12    1    3    3    0    0 -0.26277716697E+02  0.40399286875E+02  0.11792391809E+02  0.49615333108E+02  0.00000000000E+00 0. -1.
         -5    1    4    4    0  501  0.12149921151E+03  0.21899988909E+02  0.61502902869E+01  0.12369957147E+03  0.47000000000E+01 0.  1.
         11    1    5    5    0    0 -0.16728287332E+02 -0.32836856906E+02  0.59647646207E+01  0.37331932518E+02  0.00000000000E+00 0. -1.
        -12    1    5    5    0    0  0.11516989521E+02  0.28226923575E+02 -0.40320148834E+02  0.50548142045E+02  0.00000000000E+00 0.  1.
<mgrwt>
<rscale>  2 0.20829211E+03</rscale>
<asrwt>0</asrwt>
<pdfrwt beam="1">  1        1 0.23377169E-01 0.20829211E+03</pdfrwt>
<pdfrwt beam="2">  1       -1 0.45766011E-01 0.20829211E+03</pdfrwt>
<totfact> 0.10061623E+03</totfact>
</mgrwt>
</event>
<event>
12    1  0.4404304E-002  0.2058461E+03  0.7546771E-02  0.1144898E+00
          2   -1    0    0  502    0  0.00000000000E+00  0.00000000000E+00  0.97190355568E+02  0.97190355568E+02  0.00000000000E+00 0.  1.
         -2   -1    0    0    0  501 -0.00000000000E+00 -0.00000000000E+00 -0.91947824121E+03  0.91947824121E+03  0.00000000000E+00 0. -1.
          6    2    1    2  502    0  0.50222490258E+02  0.96200965498E+02 -0.44695982185E+02  0.21286431760E+03  0.17758536706E+03 0.  0.
         24    2    3    3    0    0  0.55494034112E+02  0.75772583487E+02 -0.97965432031E+02  0.15537664715E+03  0.75654506658E+02 0.  0.
         -6    2    1    2    0  501 -0.50222490258E+02 -0.96200965498E+02 -0.77759190346E+03  0.80380427918E+03  0.17226498952E+03 0.  0.
        -24    2    5    5    0    0 -0.67843781816E+02 -0.54899714530E+01 -0.50753628438E+03  0.51833778071E+03  0.80299790934E+02 0.  0.
          5    1    3    3  502    0 -0.52715438544E+01  0.20428382011E+02  0.53269449846E+02  0.57487670444E+02  0.47000000000E+01 0. -1.
        -13    1    4    4    0    0  0.85951657260E+01  0.16764376307E+00  0.11472881025E+02  0.14336386480E+02  0.00000000000E+00 0.  1.
         14    1    4    4    0    0  0.46898868386E+02  0.75604939724E+02 -0.10943831306E+03  0.14104026067E+03  0.00000000000E+00 0. -1.
         -5    1    5    5    0  501  0.17621291559E+02 -0.90710994045E+02 -0.27005561908E+03  0.28546649848E+03  0.47000000000E+01 0.  1.
         13    1    6    6    0    0 -0.40840296344E+02 -0.21323312969E+02 -0.10595357338E+03  0.11553689105E+03  0.00000000000E+00 0. -1.
        -14    1    6    6    0    0 -0.27003485473E+02  0.15833341516E+02 -0.40158271100E+03  0.40280088966E+03  0.00000000000E+00 0.  1.
<mgrwt>
<rscale>  2 0.20584606E+03</rscale>
<asrwt>0</asrwt>
<pdfrwt beam="1">  1        2 0.14952362E-01 0.20584606E+03</pdfrwt>
<pdfrwt beam="2">  1       -2 0.14145820E+00 0.20584606E+03</pdfrwt>
<totfact> 0.14497937E+02</totfact>
</mgrwt>
</event>
<event>
12    1  0.4404304E-002  0.1975938E+03  0.7546771E-02  0.1151785E+00
         -1   -1    0    0    0  501 -0.00000000000E+00  0.00000000000E+00  0.18647960146E+02  0.18647960146E+02  0.00000000000E+00 0.  1.
          1   -1    0    0  502    0  0.00000000000E+00 -0.00000000000E+00 -0.21562423991E+04  0.21562423991E+04  0.00000000000E+00 0. -1.
          6    2    1    2  502    0 -0.95829660601E+02 -0.11267480262E+02 -0.88505297724E+03  0.90690189826E+03  0.17274837363E+03 0.  0.
         24    2    3    3    0    0 -0.67899772445E+02 -0.57418686061E+02 -0.68955039439E+03  0.70403898310E+03  0.11083257061E+03 0.  0.
         -6    2    1    2    0  501  0.95829660601E+02  0.11267480262E+02 -0.12525414617E+04  0.12679884610E+04  0.17211723885E+03 0.  0.
        -24    2    5    5    0    0  0.90448199512E+02 -0.49169965473E+01 -0.12407571427E+04  0.12467315189E+04  0.81585165991E+02 0.  0.
          5    1    3    3  502    0 -0.27929888155E+02  0.46151205798E+02 -0.19550258284E+03  0.20286291516E+03  0.47000000000E+01 0. -1.
        -13    1    4    4    0    0 -0.76355772812E+02 -0.44445812421E+00 -0.27127619192E+03  0.28181762523E+03  0.00000000000E+00 0.  1.
         14    1    4    4    0    0  0.84560003666E+01 -0.56974227937E+02 -0.41827420247E+03  0.42222135787E+03  0.00000000000E+00 0. -1.
         -5    1    5    5    0  501  0.53814610888E+01  0.16184476810E+02 -0.11784318978E+02  0.21256942085E+02  0.47000000000E+01 0.  1.
         13    1    6    6    0    0  0.31374943845E+02  0.28446773823E+02 -0.76381723743E+03  0.76499044323E+03  0.00000000000E+00 0. -1.
        -14    1    6    6    0    0  0.59073255667E+02 -0.33363770370E+02 -0.47693990528E+03  0.48174107564E+03  0.00000000000E+00 0.  1.
<mgrwt>
<rscale>  2 0.19759378E+03</rscale>
<asrwt>0</asrwt>
<pdfrwt beam="2">  1        1 0.33172980E+00 0.19759378E+03</pdfrwt>
<pdfrwt beam="1">  1       -1 0.28689152E-02 0.19759378E+03</pdfrwt>
<totfact> 0.10832308E+03</totfact>
</mgrwt>
</event>
<event>
12    1  0.4404304E-002  0.2446467E+03  0.7546771E-02  0.1116735E+00
         -2   -1    0    0    0  501 -0.00000000000E+00  0.00000000000E+00  0.12517760457E+03  0.12517760457E+03  0.00000000000E+00 0.  1.
          2   -1    0    0  502    0  0.00000000000E+00 -0.00000000000E+00 -0.66716412083E+03  0.66716412083E+03  0.00000000000E+00 0. -1.
          6    2    1    2  502    0 -0.10599411676E+03 -0.13660072554E+03 -0.48214079393E+03  0.54081355466E+03  0.17356567842E+03 0.  0.
         24    2    3    3    0    0 -0.56101198276E+02 -0.39002581315E+02 -0.16596750155E+03  0.20614604520E+03  0.10140234014E+03 0.  0.
         -6    2    1    2    0  501  0.10599411676E+03  0.13660072554E+03 -0.59845722334E+02  0.25152817075E+03  0.17259895478E+03 0.  0.
        -24    2    5    5    0    0  0.13923067653E+03  0.84152661464E+02 -0.52167860973E+02  0.18878657461E+03  0.80324549901E+02 0.  0.
          5    1    3    3  502    0 -0.49892918485E+02 -0.97598144226E+02 -0.31617329238E+03  0.33466750945E+03  0.47000000000E+01 0. -1.
        -11    1    4    4    0    0  0.14396254789E+01  0.24852396569E+02 -0.83105018757E+02  0.86753433819E+02  0.00000000000E+00 0.  1.
         12    1    4    4    0    0 -0.57540823755E+02 -0.63854977883E+02 -0.82862482794E+02  0.11939261139E+03  0.00000000000E+00 0. -1.
         -5    1    5    5    0  501 -0.33236559766E+02  0.52448064077E+02 -0.76778613613E+01  0.62741596135E+02  0.47000000000E+01 0.  1.
         13    1    6    6    0    0  0.19135224644E+02  0.30676870517E+02 -0.44169314543E+02  0.57080255378E+02  0.00000000000E+00 0. -1.
        -14    1    6    6    0    0  0.12009545188E+03  0.53475790947E+02 -0.79985464296E+01  0.13170631923E+03  0.00000000000E+00 0.  1.
<mgrwt>
<rscale>  2 0.24464668E+03</rscale>
<asrwt>0</asrwt>
<pdfrwt beam="2">  1        2 0.10264064E+00 0.24464668E+03</pdfrwt>
<pdfrwt beam="1">  1       -2 0.19258093E-01 0.24464668E+03</pdfrwt>
<totfact> 0.99950323E+02</totfact>
</mgrwt>
</event>
<event>
12    1  0.4404304E-002  0.1897952E+03  0.7546771E-02  0.1158646E+00
          1   -1    0    0  502    0  0.00000000000E+00  0.00000000000E+00  0.19103572548E+04  0.19103572548E+04  0.00000000000E+00 0. -1.
         -1   -1    0    0    0  501 -0.00000000000E+00 -0.00000000000E+00 -0.20535412832E+02  0.20535412832E+02  0.00000000000E+00 0.  1.
          6    2    1    2  502    0 -0.36635526318E+02 -0.72011748542E+02  0.66608253135E+03  0.69242941530E+03  0.17106929265E+03 0.  0.
         24    2    3    3    0    0  0.11581265117E+02 -0.35048904232E+01  0.49784423899E+03  0.50442871955E+03  0.80330796422E+02 0.  0.
         -6    2    1    2    0  501  0.36635526318E+02  0.72011748542E+02  0.12237393107E+04  0.12384632524E+04  0.17241076912E+03 0.  0.
        -24    2    5    5    0    0  0.84043555823E+02  0.21675460930E+02  0.70690271281E+03  0.71700048095E+03  0.82735115947E+02 0.  0.
          5    1    3    3  502    0 -0.48216791435E+02 -0.68506858119E+02  0.16823829235E+03  0.18800069574E+03  0.47000000000E+01 0. -1.
        -13    1    4    4    0    0  0.76330965184E+01 -0.37660778325E+02  0.14830267820E+03  0.15320013952E+03  0.00000000000E+00 0.  1.
         14    1    4    4    0    0  0.39481685989E+01  0.34155887902E+02  0.34954156079E+03  0.35122858004E+03  0.00000000000E+00 0. -1.
         -5    1    5    5    0  501 -0.47408029506E+02  0.50336287612E+02  0.51683659785E+03  0.52146277143E+03  0.47000000000E+01 0.  1.
         11    1    6    6    0    0  0.22723008235E+02 -0.22926187097E+02  0.38224906632E+03  0.38360955914E+03  0.00000000000E+00 0. -1.
        -12    1    6    6    0    0  0.61320547588E+02  0.44601648027E+02  0.32465364649E+03  0.33339092181E+03  0.00000000000E+00 0.  1.
<mgrwt>
<rscale>  2 0.18979517E+03</rscale>
<asrwt>0</asrwt>
<pdfrwt beam="1">  1        1 0.29390098E+00 0.18979517E+03</pdfrwt>
<pdfrwt beam="2">  1       -1 0.31592958E-02 0.18979517E+03</pdfrwt>
<totfact> 0.13545581E+03</totfact>
</mgrwt>
</event>
<event>
12    1  0.4404304E-002  0.2569204E+03  0.7546771E-02  0.1109008E+00
          1   -1    0    0  502    0  0.00000000000E+00  0.00000000000E+00  0.44282539110E+03  0.44282539110E+03  0.00000000000E+00 0. -1.
         -1   -1    0    0    0  501 -0.00000000000E+00 -0.00000000000E+00 -0.29455288038E+03  0.29455288038E+03  0.00000000000E+00 0.  1.
          6    2    1    2  502    0 -0.15192560990E+03  0.11484678240E+03  0.33315676210E+03  0.42031363847E+03  0.17146122645E+03 0.  0.
         24    2    3    3    0    0 -0.11414402422E+03  0.83857095847E+02  0.33379100791E+03  0.37121882045E+03  0.79536814751E+02 0.  0.
         -6    2    1    2    0  501  0.15192560990E+03 -0.11484678240E+03 -0.18488425138E+03  0.31706463301E+03  0.17342612469E+03 0.  0.
        -24    2    5    5    0    0  0.17306681269E+03 -0.11942284452E+03 -0.18877178205E+03  0.29459034337E+03  0.83275129890E+02 0.  0.
          5    1    3    3  502    0 -0.37781585678E+02  0.30989686551E+02 -0.63424580991E+00  0.49094818022E+02  0.47000000000E+01 0. -1.
        -13    1    4    4    0    0 -0.49150348464E+02 -0.50614012569E+01  0.73277140693E+02  0.88379374771E+02  0.00000000000E+00 0.  1.
         14    1    4    4    0    0 -0.64993675754E+02  0.88918497104E+02  0.26051386722E+03  0.28283944568E+03  0.00000000000E+00 0. -1.
         -5    1    5    5    0  501 -0.21141202793E+02  0.45760621225E+01  0.38875306723E+01  0.22474289640E+02  0.47000000000E+01 0.  1.
         13    1    6    6    0    0  0.10468895403E+03 -0.62323775521E+02 -0.54536735775E+02  0.13348515138E+03  0.00000000000E+00 0. -1.
        -14    1    6    6    0    0  0.68377858665E+02 -0.57099069000E+02 -0.13423504628E+03  0.16110519199E+03  0.00000000000E+00 0.  1.
<mgrwt>
<rscale>  2 0.25692040E+03</rscale>
<asrwt>0</asrwt>
<pdfrwt beam="1">  1        1 0.68126984E-01 0.25692040E+03</pdfrwt>
<pdfrwt beam="2">  1       -1 0.45315827E-01 0.25692040E+03</pdfrwt>
<totfact> 0.26393433E+02</totfact>
</mgrwt>
</event>
<event>
12    1  0.4404304E-002  0.1926318E+03  0.7546771E-02  0.1156109E+00
         -3   -1    0    0    0  501 -0.00000000000E+00  0.00000000000E+00  0.46538722959E+02  0.46538722959E+02  0.00000000000E+00 0. -1.
          3   -1    0    0  502    0  0.00000000000E+00 -0.00000000000E+00 -0.17336230215E+04  0.17336230215E+04  0.00000000000E+00 0.  1.
          6    2    1    2  502    0  0.85036916668E+02 -0.14144382165E+02 -0.14967921942E+04  0.15090820018E+04  0.17178554881E+03 0.  0.
         24    2    3    3    0    0  0.28244828698E+02  0.53746042779E+02 -0.67359673446E+03  0.68112831589E+03  0.80726789725E+02 0.  0.
         -6    2    1    2    0  501 -0.85036916668E+02  0.14144382165E+02 -0.19029210435E+03  0.27107974267E+03  0.17274779641E+03 0.  0.
        -24    2    5    5    0    0 -0.59056499846E+02  0.68876557204E+02 -0.16523905801E+03  0.20535046325E+03  0.81444558791E+02 0.  0.
          5    1    3    3  502    0  0.56792087970E+02 -0.67890424943E+02 -0.82319545972E+03  0.82795368588E+03  0.47000000000E+01 0. -1.
        -13    1    4    4    0    0  0.49089529736E+02  0.14422747898E+02 -0.46685362240E+03  0.46964891391E+03  0.00000000000E+00 0.  1.
         14    1    4    4    0    0 -0.20844701038E+02  0.39323294880E+02 -0.20674311206E+03  0.21147940199E+03  0.00000000000E+00 0. -1.
         -5    1    5    5    0  501 -0.25980416822E+02 -0.54732175039E+02 -0.25053046336E+02  0.65729279423E+02  0.47000000000E+01 0.  1.
         11    1    6    6    0    0 -0.70144180494E+02  0.55057522712E+02 -0.85050454630E+02  0.12322790551E+03  0.00000000000E+00 0. -1.
        -12    1    6    6    0    0  0.11087680647E+02  0.13819034492E+02 -0.80188603381E+02  0.82122557733E+02  0.00000000000E+00 0.  1.
<mgrwt>
<rscale>  2 0.19263180E+03</rscale>
<asrwt>0</asrwt>
<pdfrwt beam="2">  1        3 0.26671121E+00 0.19263180E+03</pdfrwt>
<pdfrwt beam="1">  1       -3 0.71598043E-02 0.19263180E+03</pdfrwt>
<totfact> 0.21146025E+01</totfact>
</mgrwt>
</event>
<event>
12    1  0.4404304E-002  0.2203320E+03  0.7546771E-02  0.1133636E+00
         -1   -1    0    0    0  501 -0.00000000000E+00  0.00000000000E+00  0.44044067606E+02  0.44044067606E+02  0.00000000000E+00 0.  1.
          1   -1    0    0  502    0  0.00000000000E+00 -0.00000000000E+00 -0.11030450757E+04  0.11030450757E+04  0.00000000000E+00 0. -1.
          6    2    1    2  502    0 -0.99577728021E+02 -0.96497764788E+02 -0.54000194879E+03  0.58252905733E+03  0.16885039359E+03 0.  0.
         24    2    3    3    0    0 -0.85433275229E+02 -0.10413875370E+03 -0.27512828329E+03  0.31712634647E+03  0.82035497343E+02 0.  0.
         -6    2    1    2    0  501  0.99577728021E+02  0.96497764788E+02 -0.51899905932E+03  0.56456008599E+03  0.17361026637E+03 0.  0.
        -24    2    5    5    0    0  0.85154981158E+02  0.12817229095E+03 -0.48640534857E+03  0.51664629658E+03  0.81570372501E+02 0.  0.
          5    1    3    3  502    0 -0.14144452792E+02  0.76409889133E+01 -0.26487366550E+03  0.26540271086E+03  0.47000000000E+01 0. -1.
        -11    1    4    4    0    0  0.37986194700E+01  0.20614097652E+01 -0.66218053222E+02  0.66358944330E+02  0.00000000000E+00 0.  1.
         12    1    4    4    0    0 -0.89231894699E+02 -0.10620016347E+03 -0.20891023007E+03  0.25076740214E+03  0.00000000000E+00 0. -1.
         -5    1    5    5    0  501  0.14422746863E+02 -0.31674526166E+02 -0.32593710759E+02  0.47913789413E+02  0.47000000000E+01 0.  1.
         13    1    6    6    0    0 -0.17866176262E+00  0.50058601698E+02 -0.22948026284E+03  0.23487674759E+03  0.00000000000E+00 0. -1.
        -14    1    6    6    0    0  0.85333642921E+02  0.78113689255E+02 -0.25692508572E+03  0.28176954899E+03  0.00000000000E+00 0.  1.
<mgrwt>
<rscale>  2 0.22033200E+03</rscale>
<asrwt>0</asrwt>
<pdfrwt beam="2">  1        1 0.16969923E+00 0.22033200E+03</pdfrwt>
<pdfrwt beam="1">  1       -1 0.67760109E-02 0.22033200E+03</pdfrwt>
<totfact> 0.14913359E+03</totfact>
</mgrwt>
</event>
<event>
12    1  0.4404304E-002  0.2891263E+03  0.7546771E-02  0.1090806E+00
          2   -1    0    0  502    0  0.00000000000E+00  0.00000000000E+00  0.70039183701E+02  0.70039183701E+02  0.00000000000E+00 0. -1.
         -2   -1    0    0    0  501 -0.00000000000E+00 -0.00000000000E+00 -0.12557685560E+04  0.12557685560E+04  0.00000000000E+00 0.  1.
          6    2    1    2  502    0 -0.14904218337E+03  0.17651044371E+03 -0.44481698785E+03  0.53039250537E+03  0.17344897782E+03 0.  0.
         24    2    3    3    0    0 -0.29553826847E+02  0.13820196170E+03 -0.26071346940E+03  0.30754456922E+03  0.81479678646E+02 0.  0.
         -6    2    1    2    0  501  0.14904218337E+03 -0.17651044371E+03 -0.74091238441E+03  0.79541523430E+03  0.17425476869E+03 0.  0.
        -24    2    5    5    0    0  0.15447966433E+03 -0.91772055107E+02 -0.42667252697E+03  0.46987116860E+03  0.80270748239E+02 0.  0.
          5    1    3    3  502    0 -0.11948835653E+03  0.38308482018E+02 -0.18410351845E+03  0.22284793615E+03  0.47000000000E+01 0. -1.
        -11    1    4    4    0    0 -0.83858270105E+01  0.12873653487E+03 -0.16712318909E+03  0.21112455527E+03  0.00000000000E+00 0.  1.
         12    1    4    4    0    0 -0.21167999837E+02  0.94654268224E+01 -0.93590280302E+02  0.96420013944E+02  0.00000000000E+00 0. -1.
         -5    1    5    5    0  501 -0.54374809562E+01 -0.84738388608E+02 -0.31423985744E+03  0.32554406569E+03  0.47000000000E+01 0.  1.
         13    1    6    6    0    0  0.64108427118E+02 -0.82427898893E+02 -0.19884441303E+03  0.22459596955E+03  0.00000000000E+00 0. -1.
        -14    1    6    6    0    0  0.90371237211E+02 -0.93441562147E+01 -0.22782811393E+03  0.24527519905E+03  0.00000000000E+00 0.  1.
<mgrwt>
<rscale>  2 0.28912632E+03</rscale>
<asrwt>0</asrwt>
<pdfrwt beam="1">  1        2 0.10775260E-01 0.28912632E+03</pdfrwt>
<pdfrwt beam="2">  1       -2 0.19319514E+00 0.28912632E+03</pdfrwt>
<totfact> 0.92969901E+01</totfact>
</mgrwt>
</event>
<event>
12    1  0.4404304E-002  0.2980551E+03  0.7546771E-02  0.1086217E+00
         -3   -1    0    0    0  501 -0.00000000000E+00  0.00000000000E+00  0.21318971059E+03  0.21318971059E+03  0.00000000000E+00 0. -1.
          3   -1    0    0  502    0  0.00000000000E+00 -0.00000000000E+00 -0.55088870459E+03  0.55088870459E+03  0.00000000000E+00 0.  1.
          6    2    1    2  502    0  0.23194570102E+03  0.72104226083E+02  0.19941267751E+02  0.29816053403E+03  0.17176793139E+03 0.  0.
         24    2    3    3    0    0  0.16094714941E+03  0.70818041809E+02  0.75388735615E+02  0.20794434761E+03  0.81475212761E+02 0.  0.
         -6    2    1    2    0  501 -0.23194570102E+03 -0.72104226083E+02 -0.35764026176E+03  0.46591788115E+03  0.17370977954E+03 0.  0.
        -24    2    5    5    0    0 -0.99138467508E+02 -0.91970374921E+02 -0.14440470409E+03  0.21387836402E+03  0.81266539427E+02 0.  0.
          5    1    3    3  502    0  0.70998551608E+02  0.12861842740E+01 -0.55447467864E+02  0.90216186425E+02  0.47000000000E+01 0. -1.
        -13    1    4    4    0    0  0.80634823366E+01 -0.15786319120E+02  0.33464512500E+01  0.18039577454E+02  0.00000000000E+00 0.  1.
         14    1    4    4    0    0  0.15288366707E+03  0.86604360929E+02  0.72042284365E+02  0.18990477015E+03  0.00000000000E+00 0. -1.
         -5    1    5    5    0  501 -0.13280723351E+03  0.19866148838E+02 -0.21323555766E+03  0.25203951713E+03  0.47000000000E+01 0.  1.
         11    1    6    6    0    0 -0.35310294346E+02 -0.45266403481E+02 -0.10501903722E+02  0.58362266515E+02  0.00000000000E+00 0. -1.
        -12    1    6    6    0    0 -0.63828173162E+02 -0.46703971440E+02 -0.13390280037E+03  0.15551609751E+03  0.00000000000E+00 0.  1.
<mgrwt>
<rscale>  2 0.29805511E+03</rscale>
<asrwt>0</asrwt>
<pdfrwt beam="2">  1        3 0.84752108E-01 0.29805511E+03</pdfrwt>
<pdfrwt beam="1">  1       -3 0.32798417E-01 0.29805511E+03</pdfrwt>
<totfact> 0.29841856E+01</totfact>
</mgrwt>
</event>
<event>
12    1  0.4404304E-002  0.1939144E+03  0.7546771E-02  0.1154977E+00
          2   -1    0    0  502    0  0.00000000000E+00  0.00000000000E+00  0.34718169590E+04  0.34718169590E+04  0.00000000000E+00 0. -1.
         -2   -1    0    0    0  501 -0.00000000000E+00 -0.00000000000E+00 -0.15600190499E+02  0.15600190499E+02  0.00000000000E+00 0.  1.
          6    2    1    2  502    0 -0.66948774192E+02  0.57287371114E+02  0.76741037280E+03  0.79166704240E+03  0.17336102356E+03 0.  0.
         24    2    3    3    0    0 -0.15391728865E+01  0.10737157834E+02  0.16222475745E+03  0.18116146722E+03  0.79905880037E+02 0.  0.
         -6    2    1    2    0  501  0.66948774192E+02 -0.57287371114E+02  0.26888063957E+04  0.26957501071E+04  0.17211863672E+03 0.  0.
        -24    2    5    5    0    0  0.21099704137E+02 -0.93136415274E+02  0.21852854597E+04  0.21888549363E+04  0.80584132460E+02 0.  0.
          5    1    3    3  502    0 -0.65409601306E+02  0.46550213280E+02  0.60518561535E+03  0.61050557518E+03  0.47000000000E+01 0. -1.
        -13    1    4    4    0    0  0.30206281141E+01 -0.34753997873E+02  0.72848619448E+02  0.80770575817E+02  0.00000000000E+00 0.  1.
         14    1    4    4    0    0 -0.45598010006E+01  0.45491155707E+02  0.89376138003E+02  0.10039089140E+03  0.00000000000E+00 0. -1.
         -5    1    5    5    0  501  0.45849070056E+02  0.35849044160E+02  0.50352093597E+03  0.50689517077E+03  0.47000000000E+01 0.  1.
         11    1    6    6    0    0  0.32656017570E+02 -0.34287607765E+01  0.75377977164E+03  0.75449460967E+03  0.00000000000E+00 0. -1.
        -12    1    6    6    0    0 -0.11556313434E+02 -0.89707654498E+02  0.14315056881E+04  0.14343603266E+04  0.00000000000E+00 0.  1.
<mgrwt>
<rscale>  2 0.19391442E+03</rscale>
<asrwt>0</asrwt>
<pdfrwt beam="1">  1        2 0.53412507E+00 0.19391442E+03</pdfrwt>
<pdfrwt beam="2">  1       -2 0.24000321E-02 0.19391442E+03</pdfrwt>
<totfact> 0.63894341E+02</totfact>
</mgrwt>
</event>
<event>
12    1  0.4404304E-002  0.3037900E+03  0.7546771E-02  0.1083361E+00
         -1   -1    0    0    0  501 -0.00000000000E+00  0.00000000000E+00  0.34656306890E+03  0.34656306890E+03  0.00000000000E+00 0. -1.
          1   -1    0    0  502    0  0.00000000000E+00 -0.00000000000E+00 -0.27611804697E+03  0.27611804697E+03  0.00000000000E+00 0.  1.
          6    2    1    2  502    0  0.28222320682E+02 -0.24796647808E+03 -0.23486329904E+02  0.30479669125E+03  0.17339418003E+03 0.  0.
         24    2    3    3    0    0  0.53198012368E+02 -0.15830789633E+03 -0.73175965490E+02  0.19918610304E+03  0.80180815403E+02 0.  0.
         -6    2    1    2    0  501 -0.28222320682E+02  0.24796647808E+03  0.93931351834E+02  0.31788442462E+03  0.17304200335E+03 0.  0.
        -24    2    5    5    0    0  0.12221764130E+02  0.22444442068E+03  0.34787826148E+02  0.24232611726E+03  0.83588783731E+02 0.  0.
          5    1    3    3  502    0 -0.24975691685E+02 -0.89658581753E+02  0.49689635586E+02  0.10561058821E+03  0.47000000000E+01 0. -1.
        -11    1    4    4    0    0  0.46648632433E+02 -0.27430929326E+02 -0.24391937737E+02  0.59359223530E+02  0.00000000000E+00 0.  1.
         12    1    4    4    0    0  0.65493799348E+01 -0.13087696700E+03 -0.48784027754E+02  0.13982687951E+03  0.00000000000E+00 0. -1.
         -5    1    5    5    0  501 -0.40444084812E+02  0.23522057404E+02  0.59143525686E+02  0.75558307362E+02  0.47000000000E+01 0.  1.
         13    1    6    6    0    0 -0.13925918583E+01  0.87793094399E+02  0.54868341092E+02  0.10353792344E+03  0.00000000000E+00 0. -1.
        -14    1    6    6    0    0  0.13614355988E+02  0.13665132628E+03 -0.20080514944E+02  0.13878819382E+03  0.00000000000E+00 0.  1.
<mgrwt>
<rscale>  2 0.30379005E+03</rscale>
<asrwt>0</asrwt>
<pdfrwt beam="2">  1        1 0.42479699E-01 0.30379005E+03</pdfrwt>
<pdfrwt beam="1">  1       -1 0.53317395E-01 0.30379005E+03</pdfrwt>
<totfact> 0.35606310E+02</totfact>
</mgrwt>
</event>
<event>
12    1  0.4404304E-002  0.2077521E+03  0.7546771E-02  0.1143359E+00
          2   -1    0    0  502    0  0.00000000000E+00  0.00000000000E+00  0.58058840733E+03  0.58058840733E+03  0.00000000000E+00 0.  1.
         -2   -1    0    0    0  501 -0.00000000000E+00 -0.00000000000E+00 -0.75178897428E+02  0.75178897428E+02  0.00000000000E+00 0. -1.
          6    2    1    2  502    0 -0.94357223311E+02  0.70858716106E+02  0.21933415518E+03  0.30281157615E+03  0.17222989225E+03 0.  0.
         24    2    3    3    0    0  0.14700514667E+02  0.44501174180E+02  0.72123139932E+02  0.11765898168E+03  0.80283429308E+02 0.  0.
         -6    2    1    2    0  501  0.94357223311E+02 -0.70858716106E+02  0.28607535473E+03  0.35295572861E+03  0.16974803250E+03 0.  0.
        -24    2    5    5    0    0  0.74817025661E+02 -0.28402291720E+02  0.72469299416E+02  0.13424586564E+03  0.79786437315E+02 0.  0.
          5    1    3    3  502    0 -0.10905773798E+03  0.26357541926E+02  0.14721101525E+03  0.18515259447E+03  0.47000000000E+01 0. -1.
        -13    1    4    4    0    0  0.25993344113E+02  0.48074667979E+02  0.84432233362E+02  0.10057648667E+03  0.00000000000E+00 0.  1.
         14    1    4    4    0    0 -0.11292829446E+02 -0.35734937983E+01 -0.12309093431E+02  0.17082495014E+02  0.00000000000E+00 0. -1.
         -5    1    5    5    0  501  0.19540197650E+02 -0.42456424386E+02  0.21360605531E+03  0.21870986297E+03  0.47000000000E+01 0.  1.
         13    1    6    6    0    0  0.21423683720E+02 -0.33353787040E+02  0.70146873606E+02  0.80573154405E+02  0.00000000000E+00 0. -1.
        -14    1    6    6    0    0  0.53393341941E+02  0.49514953198E+01  0.23224258102E+01  0.53672711234E+02  0.00000000000E+00 0.  1.
<mgrwt>
<rscale>  2 0.20775207E+03</rscale>
<asrwt>0</asrwt>
<pdfrwt beam="1">  1        2 0.89321290E-01 0.20775207E+03</pdfrwt>
<pdfrwt beam="2">  1       -2 0.11565985E-01 0.20775207E+03</pdfrwt>
<totfact> 0.27263891E+03</totfact>
</mgrwt>
</event>
<event>
12    1  0.4404304E-002  0.2510586E+03  0.7546771E-02  0.1112638E+00
         -2   -1    0    0    0  501 -0.00000000000E+00  0.00000000000E+00  0.74483766038E+02  0.74483766038E+02  0.00000000000E+00 0. -1.
          2   -1    0    0  502    0  0.00000000000E+00 -0.00000000000E+00 -0.11625307900E+04  0.11625307900E+04  0.00000000000E+00 0.  1.
          6    2    1    2  502    0 -0.18014003732E+03  0.20960415366E+02 -0.86651069792E+03  0.90212449946E+03  0.17348789829E+03 0.  0.
         24    2    3    3    0    0 -0.67797533532E+02 -0.22166068914E+02 -0.60445219727E+03  0.61371943784E+03  0.78748012242E+02 0.  0.
         -6    2    1    2    0  501  0.18014003732E+03 -0.20960415366E+02 -0.22153632607E+03  0.33489005661E+03  0.17373322707E+03 0.  0.
        -24    2    5    5    0    0  0.87820627951E+02 -0.23855810999E+02 -0.37662287547E+02  0.12906729619E+03  0.83416764688E+02 0.  0.
          5    1    3    3  502    0 -0.11234250379E+03  0.43126484280E+02 -0.26205850065E+03  0.28840506162E+03  0.47000000000E+01 0. -1.
        -11    1    4    4    0    0 -0.45167395641E+02  0.26634562989E+02 -0.30462403672E+03  0.30910402347E+03  0.00000000000E+00 0.  1.
         12    1    4    4    0    0 -0.22630137891E+02 -0.48800631904E+02 -0.29982816054E+03  0.30461541437E+03  0.00000000000E+00 0. -1.
         -5    1    5    5    0  501  0.92319409373E+02  0.28953956334E+01 -0.18387403852E+03  0.20582276041E+03  0.47000000000E+01 0.  1.
         13    1    6    6    0    0 -0.10650537812E+02 -0.40490161687E+01  0.12399376496E+02  0.16839626632E+02  0.00000000000E+00 0. -1.
        -14    1    6    6    0    0  0.98471165763E+02 -0.19806794830E+02 -0.50061664043E+02  0.11222766956E+03  0.00000000000E+00 0.  1.
<mgrwt>
<rscale>  2 0.25105856E+03</rscale>
<asrwt>0</asrwt>
<pdfrwt beam="2">  1        2 0.17885090E+00 0.25105856E+03</pdfrwt>
<pdfrwt beam="1">  1       -2 0.11459040E-01 0.25105856E+03</pdfrwt>
<totfact> 0.11214601E+03</totfact>
</mgrwt>
</event>
<event>
12    1  0.4404304E-002  0.2164126E+03  0.7546771E-02  0.1136586E+00
          2   -1    0    0  502    0  0.00000000000E+00  0.00000000000E+00  0.75146270402E+03  0.75146270402E+03  0.00000000000E+00 0.  1.
         -2   -1    0    0    0  501 -0.00000000000E+00 -0.00000000000E+00 -0.62753616370E+02  0.62753616370E+02  0.00000000000E+00 0. -1.
          6    2    1    2  502    0  0.82408504376E+02  0.10196122446E+03  0.30970176362E+03  0.37745937449E+03  0.17138595074E+03 0.  0.
         24    2    3    3    0    0  0.12363421375E+02  0.18897809175E+02  0.22501398438E+03  0.23961905178E+03  0.79221306674E+02 0.  0.
         -6    2    1    2    0  501 -0.82408504376E+02 -0.10196122446E+03  0.37900732403E+03  0.43675694590E+03  0.17298215295E+03 0.  0.
        -24    2    5    5    0    0 -0.40540519279E+02 -0.88265288988E+01  0.96508545819E+02  0.13633283005E+03  0.86898215279E+02 0.  0.
          5    1    3    3  502    0  0.70045083001E+02  0.83063415283E+02  0.84687779245E+02  0.13784032271E+03  0.47000000000E+01 0. -1.
        -13    1    4    4    0    0  0.23754883009E+02  0.31900547802E+02  0.21691087407E+03  0.22052724708E+03  0.00000000000E+00 0.  1.
         14    1    4    4    0    0 -0.11391461634E+02 -0.13002738627E+02  0.81031103099E+01  0.19091804699E+02  0.00000000000E+00 0. -1.
         -5    1    5    5    0  501 -0.41867985097E+02 -0.93134695559E+02  0.28249877821E+03  0.30042411585E+03  0.47000000000E+01 0.  1.
         13    1    6    6    0    0 -0.50256219156E+02  0.20855023893E+02  0.88832488778E+02  0.10417212030E+03  0.00000000000E+00 0. -1.
        -14    1    6    6    0    0  0.97156998769E+01 -0.29681552791E+02  0.76760570417E+01  0.32160709754E+02  0.00000000000E+00 0.  1.
<mgrwt>
<rscale>  2 0.21641264E+03</rscale>
<asrwt>0</asrwt>
<pdfrwt beam="1">  1        2 0.11560964E+00 0.21641264E+03</pdfrwt>
<pdfrwt beam="2">  1       -2 0.96544030E-02 0.21641264E+03</pdfrwt>
<totfact> 0.26786402E+03</totfact>
</mgrwt>
</event>
<event>
12    1  0.4404304E-002  0.1732746E+03  0.7546771E-02  0.1174475E+00
         -1   -1    0    0    0  501 -0.00000000000E+00  0.00000000000E+00  0.23700850443E+03  0.23700850443E+03  0.00000000000E+00 0.  1.
          1   -1    0    0  502    0  0.00000000000E+00 -0.00000000000E+00 -0.14541570483E+03  0.14541570483E+03  0.00000000000E+00 0. -1.
          6    2    1    2  502    0 -0.48213633394E+01 -0.19734911012E+01 -0.22661349688E+02  0.17549793635E+03  0.17395070762E+03 0.  0.
         24    2    3    3    0    0 -0.31260942683E+02 -0.64678209461E+01  0.49063298455E+02  0.98779193478E+02  0.79567848806E+02 0.  0.
         -6    2    1    2    0  501  0.48213633394E+01  0.19734911012E+01  0.11425414929E+03  0.20692627291E+03  0.17244515528E+03 0.  0.
        -24    2    5    5    0    0 -0.58470109630E+02  0.18705077758E+02  0.41913273161E+02  0.10924798002E+03  0.80061008100E+02 0.  0.
          5    1    3    3  502    0  0.26439579344E+02  0.44943298449E+01 -0.71724648142E+02  0.76718742871E+02  0.47000000000E+01 0. -1.
        -13    1    4    4    0    0  0.22240850868E+02 -0.13174414497E+02 -0.41155587161E-01  0.25849996876E+02  0.00000000000E+00 0.  1.
         14    1    4    4    0    0 -0.53501793552E+02  0.67065935510E+01  0.49104454042E+02  0.72929196602E+02  0.00000000000E+00 0. -1.
         -5    1    5    5    0  501  0.63291472969E+02 -0.16731586657E+02  0.72340876129E+02  0.97678292889E+02  0.47000000000E+01 0.  1.
         13    1    6    6    0    0  0.78302598305E+01 -0.16152972199E+02 -0.75615182857E+01  0.19478399284E+02  0.00000000000E+00 0. -1.
        -14    1    6    6    0    0 -0.66300369460E+02  0.34858049957E+02  0.49474791446E+02  0.89769580739E+02  0.00000000000E+00 0.  1.
<mgrwt>
<rscale>  2 0.17327463E+03</rscale>
<asrwt>0</asrwt>
<pdfrwt beam="2">  1        1 0.22371647E-01 0.17327463E+03</pdfrwt>
<pdfrwt beam="1">  1       -1 0.36462847E-01 0.17327463E+03</pdfrwt>
<totfact> 0.15861735E+03</totfact>
</mgrwt>
</event>
<event>
12    1  0.4404304E-002  0.2015500E+03  0.7546771E-02  0.1148438E+00
         -1   -1    0    0    0  501 -0.00000000000E+00  0.00000000000E+00  0.33828034078E+03  0.33828034078E+03  0.00000000000E+00 0. -1.
          1   -1    0    0  502    0  0.00000000000E+00 -0.00000000000E+00 -0.15436924824E+03  0.15436924824E+03  0.00000000000E+00 0.  1.
          6    2    1    2  502    0  0.81844218707E+02  0.52837147468E+02  0.20888817547E+03  0.29201985201E+03  0.17930723306E+03 0.  0.
         24    2    3    3    0    0  0.22214134469E+02  0.95336149300E+02  0.10795188344E+03  0.16723148255E+03  0.82038469538E+02 0.  0.
         -6    2    1    2    0  501 -0.81844218707E+02 -0.52837147468E+02 -0.24977082934E+02  0.20062973701E+03  0.17360356106E+03 0.  0.
        -24    2    5    5    0    0 -0.12304720790E+03 -0.40706751972E+02 -0.34035098151E+02  0.15648259154E+03  0.80813108595E+02 0.  0.
          5    1    3    3  502    0  0.59630084239E+02 -0.42499001832E+02  0.10093629204E+03  0.12478836946E+03  0.47000000000E+01 0. -1.
        -13    1    4    4    0    0 -0.12833830190E+02  0.50858973371E+02  0.89961113389E+01  0.53219097972E+02  0.00000000000E+00 0.  1.
         14    1    4    4    0    0  0.35047964659E+02  0.44477175929E+02  0.98955772097E+02  0.11401238458E+03  0.00000000000E+00 0. -1.
         -5    1    5    5    0  501  0.41202989195E+02 -0.12130395496E+02  0.90580152167E+01  0.44147145470E+02  0.47000000000E+01 0.  1.
         13    1    6    6    0    0 -0.29697072492E+02  0.91039667103E+01  0.20728221994E+02  0.37342435800E+02  0.00000000000E+00 0. -1.
        -14    1    6    6    0    0 -0.93350135410E+02 -0.49810718683E+02 -0.54763320145E+02  0.11914015574E+03  0.00000000000E+00 0.  1.
<mgrwt>
<rscale>  2 0.20155003E+03</rscale>
<asrwt>0</asrwt>
<pdfrwt beam="2">  1        1 0.23749115E-01 0.20155003E+03</pdfrwt>
<pdfrwt beam="1">  1       -1 0.52043129E-01 0.20155003E+03</pdfrwt>
<totfact> 0.77863385E+02</totfact>
</mgrwt>
</event>
<event>
12    1  0.4404304E-002  0.1967025E+03  0.7546771E-02  0.1152551E+00
         -3   -1    0    0    0  501 -0.00000000000E+00  0.00000000000E+00  0.14399441877E+03  0.14399441877E+03  0.00000000000E+00 0. -1.
          3   -1    0    0  502    0  0.00000000000E+00 -0.00000000000E+00 -0.33148097301E+03  0.33148097301E+03  0.00000000000E+00 0.  1.
          6    2    1    2  502    0  0.67941099167E+02 -0.61215384368E+02 -0.19697743424E+03  0.27796720996E+03  0.17350027082E+03 0.  0.
         24    2    3    3    0    0 -0.97548395870E+01  0.95919744085E+00 -0.14577947812E+03  0.16595980738E+03  0.78707842494E+02 0.  0.
         -6    2    1    2    0  501 -0.67941099167E+02  0.61215384368E+02  0.94908800000E+01  0.19750818182E+03  0.17480300010E+03 0.  0.
        -24    2    5    5    0    0 -0.10267946203E+03  0.76682256425E+02 -0.14845466589E+02  0.15211737052E+03  0.80598177151E+02 0.  0.
          5    1    3    3  502    0  0.77695938754E+02 -0.62174581809E+02 -0.51197956124E+02  0.11200740258E+03  0.47000000000E+01 0. -1.
        -11    1    4    4    0    0  0.19302020290E+02  0.77271494303E+01 -0.13104670883E+03  0.13268578191E+03  0.00000000000E+00 0.  1.
         12    1    4    4    0    0 -0.29056859877E+02 -0.67679519895E+01 -0.14732769285E+02  0.33274025468E+02  0.00000000000E+00 0. -1.
         -5    1    5    5    0  501  0.34738362867E+02 -0.15466872057E+02  0.24336346589E+02  0.45390811308E+02  0.47000000000E+01 0.  1.
         13    1    6    6    0    0 -0.43132349099E+02  0.49216791586E+02  0.30690812187E+02  0.72281519530E+02  0.00000000000E+00 0. -1.
        -14    1    6    6    0    0 -0.59547112935E+02  0.27465464838E+02 -0.45536278776E+02  0.79835850985E+02  0.00000000000E+00 0.  1.
<mgrwt>
<rscale>  2 0.19670248E+03</rscale>
<asrwt>0</asrwt>
<pdfrwt beam="2">  1        3 0.50997073E-01 0.19670248E+03</pdfrwt>
<pdfrwt beam="1">  1       -3 0.22152988E-01 0.19670248E+03</pdfrwt>
<totfact> 0.17510158E+02</totfact>
</mgrwt>
</event>
<event>
12    1  0.4404304E-002  0.2795339E+03  0.7546771E-02  0.1095944E+00
          2   -1    0    0  502    0  0.00000000000E+00  0.00000000000E+00  0.12913722223E+04  0.12913722223E+04  0.00000000000E+00 0. -1.
         -2   -1    0    0    0  501 -0.00000000000E+00 -0.00000000000E+00 -0.68400683547E+02  0.68400683547E+02  0.00000000000E+00 0.  1.
          6    2    1    2  502    0  0.18703075514E+03 -0.11420266166E+03  0.37976523833E+03  0.47131221757E+03  0.17288961473E+03 0.  0.
         24    2    3    3    0    0  0.38011600943E+02 -0.83092928471E+01  0.17839309388E+03  0.19929577608E+03  0.79879811378E+02 0.  0.
         -6    2    1    2    0  501 -0.18703075514E+03  0.11420266166E+03  0.84320630041E+03  0.88846068827E+03  0.17419178582E+03 0.  0.
        -24    2    5    5    0    0 -0.17166991695E+03  0.37641254886E+02  0.68809127175E+03  0.71473571460E+03  0.80561274942E+02 0.  0.
          5    1    3    3  502    0  0.14901915420E+03 -0.10589336881E+03  0.20137214445E+03  0.27201644149E+03  0.47000000000E+01 0. -1.
        -13    1    4    4    0    0  0.40385683540E+02  0.23731756230E+02  0.14736345476E+03  0.15462919352E+03  0.00000000000E+00 0.  1.
         14    1    4    4    0    0 -0.23740825967E+01 -0.32041049077E+02  0.31029639122E+02  0.44666582567E+02  0.00000000000E+00 0. -1.
         -5    1    5    5    0  501 -0.15360838193E+02  0.76561406776E+02  0.15511502867E+03  0.17372497367E+03  0.47000000000E+01 0.  1.
         13    1    6    6    0    0 -0.10828094471E+03  0.61986160670E+02  0.47312646913E+03  0.48930123942E+03  0.00000000000E+00 0. -1.
        -14    1    6    6    0    0 -0.63388972239E+02 -0.24344905784E+02  0.21496480261E+03  0.22543447518E+03  0.00000000000E+00 0.  1.
<mgrwt>
<rscale>  2 0.27953394E+03</rscale>
<asrwt>0</asrwt>
<pdfrwt beam="1">  1        2 0.19867263E+00 0.27953394E+03</pdfrwt>
<pdfrwt beam="2">  1       -2 0.10523183E-01 0.27953394E+03</pdfrwt>
<totfact> 0.10860183E+03</totfact>
</mgrwt>
</event>
<event>
12    1  0.4404304E-002  0.3448771E+03  0.7546771E-02  0.1064738E+00
         -2   -1    0    0    0  501 -0.00000000000E+00  0.00000000000E+00  0.93543928972E+02  0.93543928972E+02  0.00000000000E+00 0. -1.
          2   -1    0    0  502    0  0.00000000000E+00 -0.00000000000E+00 -0.16222042595E+04  0.16222042595E+04  0.00000000000E+00 0.  1.
          6    2    1    2  502    0 -0.29021818179E+03  0.69347304506E+02 -0.11634788001E+04  0.12135600959E+04  0.17323263614E+03 0.  0.
         24    2    3    3    0    0 -0.24654077200E+03  0.46940842015E+02 -0.11099404773E+04  0.11407713076E+04  0.80034480832E+02 0.  0.
         -6    2    1    2    0  501  0.29021818179E+03 -0.69347304506E+02 -0.36518153035E+03  0.50218809256E+03  0.17262586283E+03 0.  0.
        -24    2    5    5    0    0  0.58442203862E+02 -0.45013380051E+02 -0.94235617101E+02  0.14477233783E+03  0.81467678834E+02 0.  0.
          5    1    3    3  502    0 -0.43677409793E+02  0.22406462490E+02 -0.53538322791E+02  0.72788788250E+02  0.47000000000E+01 0. -1.
        -13    1    4    4    0    0 -0.13142766319E+03  0.47923650400E+02 -0.74786149307E+03  0.76083291184E+03  0.00000000000E+00 0.  1.
         14    1    4    4    0    0 -0.11511310881E+03 -0.98280838469E+00 -0.36207898427E+03  0.37993839577E+03  0.00000000000E+00 0. -1.
         -5    1    5    5    0  501  0.23177597793E+03 -0.24333924455E+02 -0.27094591325E+03  0.35741575473E+03  0.47000000000E+01 0.  1.
         11    1    6    6    0    0  0.10222711261E+02  0.13717702168E+01  0.14082508087E+02  0.17455732958E+02  0.00000000000E+00 0. -1.
        -12    1    6    6    0    0  0.48219492601E+02 -0.46385150268E+02 -0.10831812519E+03  0.12731660487E+03  0.00000000000E+00 0.  1.
<mgrwt>
<rscale>  2 0.34487710E+03</rscale>
<asrwt>0</asrwt>
<pdfrwt beam="2">  1        2 0.24956987E+00 0.34487710E+03</pdfrwt>
<pdfrwt beam="1">  1       -2 0.14391375E-01 0.34487710E+03</pdfrwt>
<totfact> 0.42807442E+02</totfact>
</mgrwt>
</event>
<event>
12    1  0.4404304E-002  0.2197973E+03  0.7546771E-02  0.1134034E+00
          2   -1    0    0  502    0  0.00000000000E+00  0.00000000000E+00  0.52486715830E+03  0.52486715830E+03  0.00000000000E+00 0.  1.
         -2   -1    0    0    0  501 -0.00000000000E+00 -0.00000000000E+00 -0.12577138311E+03  0.12577138311E+03  0.00000000000E+00 0. -1.
          6    2    1    2  502    0 -0.92999082115E+02 -0.95344557774E+02  0.36883617244E+03  0.43000570162E+03  0.17642382875E+03 0.  0.
         24    2    3    3    0    0 -0.18818442626E+02 -0.99220971359E+02  0.30772481965E+03  0.33370159321E+03  0.80394363848E+02 0.  0.
         -6    2    1    2    0  501  0.92999082115E+02  0.95344557774E+02  0.30259602746E+02  0.22063283979E+03  0.17327375007E+03 0.  0.
        -24    2    5    5    0    0  0.82846091687E+02  0.24391674967E+02 -0.36436506221E+02  0.12261316960E+03  0.79043922328E+02 0.  0.
          5    1    3    3  502    0 -0.74180639489E+02  0.38764135847E+01  0.61111352791E+02  0.96304108413E+02  0.47000000000E+01 0. -1.
        -11    1    4    4    0    0 -0.61842141233E+01 -0.39701555612E+02  0.32064840235E+02  0.51406342038E+02  0.00000000000E+00 0.  1.
         12    1    4    4    0    0 -0.12634228502E+02 -0.59519415746E+02  0.27565997942E+03  0.28229525117E+03  0.00000000000E+00 0. -1.
         -5    1    5    5    0  501  0.10152990428E+02  0.70952882806E+02  0.66696108967E+02  0.98019670192E+02  0.47000000000E+01 0.  1.
         13    1    6    6    0    0  0.34623481875E+02  0.17903701456E+02  0.23421197257E+02  0.45473954127E+02  0.00000000000E+00 0. -1.
        -14    1    6    6    0    0  0.48222609812E+02  0.64879735116E+01 -0.59857703478E+02  0.77139215468E+02  0.00000000000E+00 0.  1.
<mgrwt>
<rscale>  2 0.21979730E+03</rscale>
<asrwt>0</asrwt>
<pdfrwt beam="1">  1        2 0.80748793E-01 0.21979730E+03</pdfrwt>
<pdfrwt beam="2">  1       -2 0.19349444E-01 0.21979730E+03</pdfrwt>
<totfact> 0.13083993E+03</totfact>
</mgrwt>
</event>
<event>
12    1  0.4404304E-002  0.2420998E+03  0.7546771E-02  0.1118402E+00
         -2   -1    0    0    0  501 -0.00000000000E+00  0.00000000000E+00  0.33129382628E+02  0.33129382628E+02  0.00000000000E+00 0.  1.
          2   -1    0    0  502    0  0.00000000000E+00 -0.00000000000E+00 -0.18091707661E+04  0.18091707661E+04  0.00000000000E+00 0. -1.
          6    2    1    2  502    0  0.63736340478E+02  0.15596892935E+03 -0.74971731422E+03  0.78771956965E+03  0.17331313035E+03 0.  0.
         24    2    3    3    0    0 -0.31999810262E+02  0.60355472989E+02 -0.34618584087E+03  0.36208230204E+03  0.81192278303E+02 0.  0.
         -6    2    1    2    0  501 -0.63736340478E+02 -0.15596892935E+03 -0.10263240692E+04  0.10545805791E+04  0.17438599319E+03 0.  0.
        -24    2    5    5    0    0  0.86717516778E+01 -0.14789720675E+03 -0.77036188901E+03  0.78840993413E+03  0.78638420380E+02 0.  0.
          5    1    3    3  502    0  0.95736150740E+02  0.95613456358E+02 -0.40353147335E+03  0.42563726761E+03  0.47000000000E+01 0. -1.
        -13    1    4    4    0    0  0.37231925921E+00  0.11520989697E+02 -0.57598496220E+00  0.11541385701E+02  0.00000000000E+00 0.  1.
         14    1    4    4    0    0 -0.32372129521E+02  0.48834483292E+02 -0.34560985591E+03  0.35054091634E+03  0.00000000000E+00 0. -1.
         -5    1    5    5    0  501 -0.72408092155E+02 -0.80717226010E+01 -0.25596218022E+03  0.26617064493E+03  0.47000000000E+01 0.  1.
         13    1    6    6    0    0 -0.63288318220E+01  0.67040746352E+01 -0.18486576395E+02  0.20657982374E+02  0.00000000000E+00 0. -1.
        -14    1    6    6    0    0  0.15000583500E+02 -0.15460128138E+03 -0.75187531261E+03  0.76775195176E+03  0.00000000000E+00 0.  1.
<mgrwt>
<rscale>  2 0.24209975E+03</rscale>
<asrwt>0</asrwt>
<pdfrwt beam="2">  1        2 0.27833409E+00 0.24209975E+03</pdfrwt>
<pdfrwt beam="1">  1       -2 0.50968258E-02 0.24209975E+03</pdfrwt>
<totfact> 0.17825824E+03</totfact>
</mgrwt>
</event>
<event>
12    1  0.4404304E-002  0.2306027E+03  0.7546771E-02  0.1126216E+00
         -1   -1    0    0    0  501 -0.00000000000E+00  0.00000000000E+00  0.16759144947E+03  0.16759144947E+03  0.00000000000E+00 0.  1.
          1   -1    0    0  502    0  0.00000000000E+00 -0.00000000000E+00 -0.38404437010E+03  0.38404437010E+03  0.00000000000E+00 0. -1.
          6    2    1    2  502    0  0.38959957354E+02  0.14859625842E+03 -0.22333998600E+03  0.32127579410E+03  0.17244900764E+03 0.  0.
         24    2    3    3    0    0  0.47690604003E+02  0.11474941670E+02 -0.10453015137E+03  0.13957178616E+03  0.78407033800E+02 0.  0.
         -6    2    1    2    0  501 -0.38959957354E+02 -0.14859625842E+03  0.68870653743E+01  0.23036002546E+03  0.17152137875E+03 0.  0.
        -24    2    5    5    0    0  0.22003804830E+02 -0.16118755523E+02  0.14454170497E+02  0.84256568439E+02  0.78398115881E+02 0.  0.
          5    1    3    3  502    0 -0.87306466483E+01  0.13712131675E+03 -0.11880983463E+03  0.18170400795E+03  0.47000000000E+01 0. -1.
        -13    1    4    4    0    0  0.31691160074E+02 -0.24103083411E+02 -0.16152178600E+02  0.42967209942E+02  0.00000000000E+00 0.  1.
         14    1    4    4    0    0  0.15999443929E+02  0.35578025080E+02 -0.88377972771E+02  0.96604576215E+02  0.00000000000E+00 0. -1.
         -5    1    5    5    0  501 -0.60963762185E+02 -0.13247750290E+03 -0.75671051231E+01  0.14610345702E+03  0.47000000000E+01 0.  1.
         11    1    6    6    0    0  0.24342406611E+02 -0.73678617403E+01 -0.29746775391E+02  0.39137051401E+02  0.00000000000E+00 0. -1.
        -12    1    6    6    0    0 -0.23386017804E+01 -0.87508937831E+01  0.44200945888E+02  0.45119517038E+02  0.00000000000E+00 0.  1.
<mgrwt>
<rscale>  2 0.23060271E+03</rscale>
<asrwt>0</asrwt>
<pdfrwt beam="2">  1        1 0.59083749E-01 0.23060271E+03</pdfrwt>
<pdfrwt beam="1">  1       -1 0.25783300E-01 0.23060271E+03</pdfrwt>
<totfact> 0.84608256E+02</totfact>
</mgrwt>
</event>
<event>
12    1  0.4404304E-002  0.2131750E+03  0.7546771E-02  0.1139076E+00
          1   -1    0    0  502    0  0.00000000000E+00  0.00000000000E+00  0.39951048983E+03  0.39951048983E+03  0.00000000000E+00 0.  1.
         -1   -1    0    0    0  501 -0.00000000000E+00 -0.00000000000E+00 -0.11822676364E+03  0.11822676364E+03  0.00000000000E+00 0. -1.
          6    2    1    2  502    0 -0.75600026281E+02 -0.10016966459E+03  0.19085694343E+03  0.28593198689E+03  0.17199244923E+03 0.  0.
         24    2    3    3    0    0 -0.67027923159E+02 -0.14088136562E+03  0.13601513903E+03  0.21693461692E+03  0.64963130400E+02 0.  0.
         -6    2    1    2    0  501  0.75600026281E+02  0.10016966459E+03  0.90426782768E+02  0.23180526658E+03  0.17264806079E+03 0.  0.
        -24    2    5    5    0    0  0.99842992075E+02  0.38112400980E+02  0.84843524512E+02  0.16478222480E+03  0.92377377009E+02 0.  0.
          5    1    3    3  502    0 -0.85721031227E+01  0.40711701031E+02  0.54841804402E+02  0.68997369971E+02  0.47000000000E+01 0. -1.
        -13    1    4    4    0    0 -0.50578876536E+02 -0.65066812536E+02  0.34925698386E+02  0.89508196568E+02  0.00000000000E+00 0.  1.
         14    1    4    4    0    0 -0.16449046623E+02 -0.75814553082E+02  0.10108944064E+03  0.12742642035E+03  0.00000000000E+00 0. -1.
         -5    1    5    5    0  501 -0.24242965794E+02  0.62057263606E+02  0.55832582560E+01  0.67023041781E+02  0.47000000000E+01 0.  1.
         11    1    6    6    0    0  0.10070745488E+03  0.30239599842E+02  0.29965998595E+02  0.10933611453E+03  0.00000000000E+00 0. -1.
        -12    1    6    6    0    0 -0.86446280835E+00  0.78728011384E+01  0.54877525917E+02  0.55446110274E+02  0.00000000000E+00 0.  1.
<mgrwt>
<rscale>  2 0.21317496E+03</rscale>
<asrwt>0</asrwt>
<pdfrwt beam="1">  1        1 0.61463152E-01 0.21317496E+03</pdfrwt>
<pdfrwt beam="2">  1       -1 0.18188733E-01 0.21317496E+03</pdfrwt>
<totfact> 0.14236151E+03</totfact>
</mgrwt>
</event>
<event>
12    1  0.4404304E-002  0.1908459E+03  0.7546771E-02  0.1157701E+00
          1   -1    0    0  502    0  0.00000000000E+00  0.00000000000E+00  0.62659444461E+03  0.62659444461E+03  0.00000000000E+00 0.  1.
         -1   -1    0    0    0  501 -0.00000000000E+00 -0.00000000000E+00 -0.78471521748E+02  0.78471521748E+02  0.00000000000E+00 0. -1.
          6    2    1    2  502    0  0.79716053451E+02 -0.19098942670E+02  0.93254206827E+02  0.21130027677E+03  0.17097380233E+03 0.  0.
         24    2    3    3    0    0  0.49567657382E+02 -0.64514367219E+02  0.17428249892E+02  0.11779545166E+03  0.83384460797E+02 0.  0.
         -6    2    1    2    0  501 -0.79716053451E+02  0.19098942670E+02  0.45486871603E+03  0.49376568959E+03  0.17372273484E+03 0.  0.
        -24    2    5    5    0    0 -0.40297348480E+02  0.49110244101E+02  0.13352108156E+03  0.16858742356E+03  0.80982391866E+02 0.  0.
          5    1    3    3  502    0  0.30148396070E+02  0.45415424549E+02  0.75825956935E+02  0.93504825104E+02  0.47000000000E+01 0. -1.
        -13    1    4    4    0    0  0.45748729891E+02  0.22604247231E+01  0.21882937050E+02  0.50763360217E+02  0.00000000000E+00 0.  1.
         14    1    4    4    0    0  0.38189274911E+01 -0.66774791942E+02 -0.44546871582E+01  0.67032091447E+02  0.00000000000E+00 0. -1.
         -5    1    5    5    0  501 -0.39418704972E+02 -0.30011301431E+02  0.32134763447E+03  0.32517826603E+03  0.47000000000E+01 0.  1.
         11    1    6    6    0    0 -0.56527261838E+02  0.28464458192E+02  0.12642872581E+03  0.14138521642E+03  0.00000000000E+00 0. -1.
        -12    1    6    6    0    0  0.16229913359E+02  0.20645785909E+02  0.70923557464E+01  0.27202207143E+02  0.00000000000E+00 0.  1.
<mgrwt>
<rscale>  2 0.19084589E+03</rscale>
<asrwt>0</asrwt>
<pdfrwt beam="1">  1        1 0.96399142E-01 0.19084589E+03</pdfrwt>
<pdfrwt beam="2">  1       -1 0.12072542E-01 0.19084589E+03</pdfrwt>
<totfact> 0.14955509E+03</totfact>
</mgrwt>
</event>
<event>
12    1  0.4404304E-002  0.1777399E+03  0.7546771E-02  0.1170008E+00
          1   -1    0    0  502    0  0.00000000000E+00  0.00000000000E+00  0.19258104480E+03  0.19258104480E+03  0.00000000000E+00 0.  1.
         -1   -1    0    0    0  501 -0.00000000000E+00 -0.00000000000E+00 -0.28002707273E+03  0.28002707273E+03  0.00000000000E+00 0. -1.
          6    2    1    2  502    0 -0.40065868905E+02 -0.10159427951E+02 -0.19564668530E+03  0.26362733426E+03  0.17179423177E+03 0.  0.
         24    2    3    3    0    0  0.35923478953E+02  0.16755836562E+02 -0.13607717844E+03  0.16328079172E+03  0.81070118125E+02 0.  0.
         -6    2    1    2    0  501  0.40065868905E+02  0.10159427951E+02  0.10820065737E+03  0.20898078326E+03  0.17394567453E+03 0.  0.
        -24    2    5    5    0    0  0.82372218135E+01  0.70250484448E+02  0.83595700077E+02  0.13651360607E+03  0.81515281896E+02 0.  0.
          5    1    3    3  502    0 -0.75989347859E+02 -0.26915264513E+02 -0.59569506860E+02  0.10034654254E+03  0.47000000000E+01 0. -1.
        -11    1    4    4    0    0  0.58440386970E+02 -0.45015097586E+01 -0.79330280410E+02  0.98634861024E+02  0.00000000000E+00 0.  1.
         12    1    4    4    0    0 -0.22516908016E+02  0.21257346321E+02 -0.56746898035E+02  0.64645930698E+02  0.00000000000E+00 0. -1.
         -5    1    5    5    0  501  0.31828647092E+02 -0.60091056497E+02  0.24604957296E+02  0.72467177192E+02  0.47000000000E+01 0.  1.
         13    1    6    6    0    0 -0.23476040032E+02  0.71913810405E+02  0.64823477716E+02  0.99623309751E+02  0.00000000000E+00 0. -1.
        -14    1    6    6    0    0  0.31713261846E+02 -0.16633259569E+01  0.18772222360E+02  0.36890296319E+02  0.00000000000E+00 0.  1.
<mgrwt>
<rscale>  2 0.17773991E+03</rscale>
<asrwt>0</asrwt>
<pdfrwt beam="1">  1        1 0.29627853E-01 0.17773991E+03</pdfrwt>
<pdfrwt beam="2">  1       -1 0.43081088E-01 0.17773991E+03</pdfrwt>
<totfact> 0.82972467E+02</totfact>
</mgrwt>
</event>
<event>
12    1  0.4404304E-002  0.2907369E+03  0.7546771E-02  0.1089965E+00
         -2   -1    0    0    0  501 -0.00000000000E+00  0.00000000000E+00  0.33947817280E+02  0.33947817280E+02  0.00000000000E+00 0.  1.
          2   -1    0    0  502    0  0.00000000000E+00 -0.00000000000E+00 -0.27889420007E+04  0.27889420007E+04  0.00000000000E+00 0. -1.
          6    2    1    2  502    0 -0.23273141622E+03  0.65418208724E+01 -0.18410298783E+04  0.18638963398E+04  0.17467640139E+03 0.  0.
         24    2    3    3    0    0 -0.14516420365E+03 -0.27240404383E+02 -0.74132870127E+03  0.76018712800E+03  0.80632131239E+02 0.  0.
         -6    2    1    2    0  501  0.23273141622E+03 -0.65418208724E+01 -0.91396430512E+03  0.95899347818E+03  0.17358292729E+03 0.  0.
        -24    2    5    5    0    0  0.18276362275E+03  0.35210722764E+02 -0.81878550954E+03  0.84357619866E+03  0.81047859404E+02 0.  0.
          5    1    3    3  502    0 -0.87567212575E+02  0.33782225256E+02 -0.10997011771E+04  0.11037092118E+04  0.47000000000E+01 0. -1.
        -13    1    4    4    0    0 -0.18883397924E+02 -0.34556884376E+02 -0.23626616793E+03  0.23952549569E+03  0.00000000000E+00 0.  1.
         14    1    4    4    0    0 -0.12628080572E+03  0.73164799928E+01 -0.50506253334E+03  0.52066163231E+03  0.00000000000E+00 0. -1.
         -5    1    5    5    0  501  0.49967793467E+02 -0.41752543637E+02 -0.95178795573E+02  0.11541727952E+03  0.47000000000E+01 0.  1.
         13    1    6    6    0    0 -0.10991121857E+01  0.65906855500E+01 -0.12780285147E+03  0.12797739655E+03  0.00000000000E+00 0. -1.
        -14    1    6    6    0    0  0.18386273494E+03  0.28620037214E+02 -0.69098265807E+03  0.71559880211E+03  0.00000000000E+00 0.  1.
<mgrwt>
<rscale>  2 0.29073688E+03</rscale>
<asrwt>0</asrwt>
<pdfrwt beam="2">  1        2 0.42906800E+00 0.29073688E+03</pdfrwt>
<pdfrwt beam="1">  1       -2 0.52227411E-02 0.29073688E+03</pdfrwt>
<totfact> 0.50431930E+02</totfact>
</mgrwt>
</event>
<event>
12    1  0.4404304E-002  0.2115570E+03  0.7546771E-02  0.1140339E+00
         -2   -1    0    0    0  501 -0.00000000000E+00  0.00000000000E+00  0.11113055651E+03  0.11113055651E+03  0.00000000000E+00 0. -1.
          2   -1    0    0  502    0  0.00000000000E+00 -0.00000000000E+00 -0.44443764018E+03  0.44443764018E+03  0.00000000000E+00 0.  1.
          6    2    1    2  502    0 -0.10807302104E+03 -0.59622919036E+02 -0.24978836477E+03  0.32564966891E+03  0.16857879267E+03 0.  0.
         24    2    3    3    0    0 -0.40650459575E+00  0.56951167448E+01 -0.74666147922E+02  0.10989887425E+03  0.80437114047E+02 0.  0.
         -6    2    1    2    0  501  0.10807302104E+03  0.59622919036E+02 -0.83518718912E+02  0.22991852778E+03  0.17507850426E+03 0.  0.
        -24    2    5    5    0    0  0.10068715197E+03  0.41099935345E+02  0.76712329301E+01  0.13645543718E+03  0.82061752755E+02 0.  0.
          5    1    3    3  502    0 -0.10766651645E+03 -0.65318035781E+02 -0.17512221684E+03  0.21575079466E+03  0.47000000000E+01 0. -1.
        -11    1    4    4    0    0  0.24241124280E+02 -0.26269232475E+02 -0.53444728167E+02  0.64296529067E+02  0.00000000000E+00 0.  1.
         12    1    4    4    0    0 -0.24647628876E+02  0.31964349219E+02 -0.21221419755E+02  0.45602345188E+02  0.00000000000E+00 0. -1.
         -5    1    5    5    0  501  0.73858690784E+01  0.18522983691E+02 -0.91189951842E+02  0.93463090596E+02  0.47000000000E+01 0.  1.
         11    1    6    6    0    0  0.82661373240E+02 -0.36840158710E+01  0.22866441691E+02  0.85844911058E+02  0.00000000000E+00 0. -1.
        -12    1    6    6    0    0  0.18025778726E+02  0.44783951216E+02 -0.15195208761E+02  0.50610526123E+02  0.00000000000E+00 0.  1.
<mgrwt>
<rscale>  2 0.21155705E+03</rscale>
<asrwt>0</asrwt>
<pdfrwt beam="2">  1        2 0.68375021E-01 0.21155705E+03</pdfrwt>
<pdfrwt beam="1">  1       -2 0.17097009E-01 0.21155705E+03</pdfrwt>
<totfact> 0.19384846E+03</totfact>
</mgrwt>
</event>
<event>
12    1  0.4404304E-002  0.2019986E+03  0.7546771E-02  0.1148064E+00
          1   -1    0    0  502    0  0.00000000000E+00  0.00000000000E+00  0.59197865567E+03  0.59197865567E+03  0.00000000000E+00 0.  1.
         -1   -1    0    0    0  501 -0.00000000000E+00 -0.00000000000E+00 -0.17563833061E+03  0.17563833061E+03  0.00000000000E+00 0. -1.
          6    2    1    2  502    0 -0.81834684979E+02  0.62732884576E+02 -0.91122915435E+02  0.22130978557E+03  0.17332716174E+03 0.  0.
         24    2    3    3    0    0  0.53852298312E+01  0.36179204876E+02 -0.89601094457E+02  0.13000361171E+03  0.86802346538E+02 0.  0.
         -6    2    1    2    0  501  0.81834684979E+02 -0.62732884576E+02  0.50746324050E+03  0.54630720071E+03  0.17406977515E+03 0.  0.
        -24    2    5    5    0    0  0.34130315635E+02 -0.57143366709E+02  0.13726179324E+03  0.17297336737E+03  0.81539825438E+02 0.  0.
          5    1    3    3  502    0 -0.87219914810E+02  0.26553679701E+02 -0.15218209778E+01  0.91306173856E+02  0.47000000000E+01 0. -1.
        -11    1    4    4    0    0  0.84599639266E+01  0.28758396621E+02  0.88260465395E+01  0.31249247405E+02  0.00000000000E+00 0.  1.
         12    1    4    4    0    0 -0.30747340954E+01  0.74208082544E+01 -0.98427140997E+02  0.98754364307E+02  0.00000000000E+00 0. -1.
         -5    1    5    5    0  501  0.47704369344E+02 -0.55895178677E+01  0.37020144726E+03  0.37333383335E+03  0.47000000000E+01 0.  1.
         13    1    6    6    0    0 -0.68466535645E+01 -0.48398115690E+02  0.11623293369E+03  0.12609262128E+03  0.00000000000E+00 0. -1.
        -14    1    6    6    0    0  0.40976969199E+02 -0.87452510189E+01  0.21028859550E+02  0.46880746092E+02  0.00000000000E+00 0.  1.
<mgrwt>
<rscale>  2 0.20199857E+03</rscale>
<asrwt>0</asrwt>
<pdfrwt beam="1">  1        1 0.91073638E-01 0.20199857E+03</pdfrwt>
<pdfrwt beam="2">  1       -1 0.27021282E-01 0.20199857E+03</pdfrwt>
<totfact> 0.44268217E+02</totfact>
</mgrwt>
</event>
<event>
12    1  0.4404304E-002  0.2499021E+03  0.7546771E-02  0.1113367E+00
         -2   -1    0    0    0  501 -0.00000000000E+00  0.00000000000E+00  0.55120169557E+02  0.55120169557E+02  0.00000000000E+00 0.  1.
          2   -1    0    0  502    0  0.00000000000E+00 -0.00000000000E+00 -0.12321224362E+04  0.12321224362E+04  0.00000000000E+00 0. -1.
          6    2    1    2  502    0  0.11754147669E+03 -0.13807114579E+03 -0.40574858346E+03  0.47648437288E+03  0.17183074398E+03 0.  0.
         24    2    3    3    0    0  0.78287836595E+02 -0.41961653822E+02 -0.10954389118E+03  0.16257802947E+03  0.80882543359E+02 0.  0.
         -6    2    1    2    0  501 -0.11754147669E+03  0.13807114579E+03 -0.77125368314E+03  0.81075823283E+03  0.17209598575E+03 0.  0.
        -24    2    5    5    0    0 -0.12601751961E+03  0.45749766693E+02 -0.54981385922E+03  0.57064832892E+03  0.73285599578E+02 0.  0.
          5    1    3    3  502    0  0.39253640095E+02 -0.96109491966E+02 -0.29620469228E+03  0.31390634341E+03  0.47000000000E+01 0. -1.
        -11    1    4    4    0    0  0.84394816566E+02 -0.23551484810E+02 -0.11288139628E+03  0.14289635099E+03  0.00000000000E+00 0.  1.
         12    1    4    4    0    0 -0.61069799712E+01 -0.18410169012E+02  0.33375050985E+01  0.19681678478E+02  0.00000000000E+00 0. -1.
         -5    1    5    5    0  501  0.84760429160E+01  0.92321379095E+02 -0.22143982391E+03  0.24010990391E+03  0.47000000000E+01 0.  1.
         11    1    6    6    0    0 -0.10668319485E+03  0.63972361429E+02 -0.48260245441E+03  0.49837625956E+03  0.00000000000E+00 0. -1.
        -12    1    6    6    0    0 -0.19334324758E+02 -0.18222594736E+02 -0.67211404811E+02  0.72272069359E+02  0.00000000000E+00 0.  1.
<mgrwt>
<rscale>  2 0.24990206E+03</rscale>
<asrwt>0</asrwt>
<pdfrwt beam="2">  1        2 0.18955729E+00 0.24990206E+03</pdfrwt>
<pdfrwt beam="1">  1       -2 0.84800263E-02 0.24990206E+03</pdfrwt>
<totfact> 0.16534340E+03</totfact>
</mgrwt>
</event>
<event>
12    1  0.4404304E-002  0.2169212E+03  0.7546771E-02  0.1136199E+00
          1   -1    0    0  502    0  0.00000000000E+00  0.00000000000E+00  0.45926953734E+02  0.45926953734E+02  0.00000000000E+00 0. -1.
         -1   -1    0    0    0  501 -0.00000000000E+00 -0.00000000000E+00 -0.11225120620E+04  0.11225120620E+04  0.00000000000E+00 0.  1.
          6    2    1    2  502    0  0.13786613236E+02  0.13144262751E+03 -0.71101729753E+03  0.74338955024E+03  0.17209064758E+03 0.  0.
         24    2    3    3    0    0  0.53987771253E+02  0.73257061172E+02 -0.26498578945E+03  0.29176150700E+03  0.81400441658E+02 0.  0.
         -6    2    1    2    0  501 -0.13786613236E+02 -0.13144262751E+03 -0.36556781076E+03  0.42504946552E+03  0.17193018595E+03 0.  0.
        -24    2    5    5    0    0  0.46948900512E+02 -0.54700039143E+02 -0.12476900501E+03  0.16507950120E+03  0.80545909657E+02 0.  0.
          5    1    3    3  502    0 -0.40201158017E+02  0.58185566340E+02 -0.44603150809E+03  0.45162804324E+03  0.47000000000E+01 0. -1.
        -13    1    4    4    0    0  0.22017194006E+02  0.60307499788E+02 -0.24185306473E+03  0.25022920750E+03  0.00000000000E+00 0.  1.
         14    1    4    4    0    0  0.31970577247E+02  0.12949561384E+02 -0.23132724713E+02  0.41532299505E+02  0.00000000000E+00 0. -1.
         -5    1    5    5    0  501 -0.60735513748E+02 -0.76742588369E+02 -0.24079880574E+03  0.25996996432E+03  0.47000000000E+01 0.  1.
         11    1    6    6    0    0 -0.99022774928E+01 -0.41569295829E+02 -0.25019337774E+02  0.49517963588E+02  0.00000000000E+00 0. -1.
        -12    1    6    6    0    0  0.56851178005E+02 -0.13130743314E+02 -0.99749667241E+02  0.11556153761E+03  0.00000000000E+00 0.  1.
<mgrwt>
<rscale>  2 0.21692122E+03</rscale>
<asrwt>0</asrwt>
<pdfrwt beam="1">  1        1 0.70656860E-02 0.21692122E+03</pdfrwt>
<pdfrwt beam="2">  1       -1 0.17269414E+00 0.21692122E+03</pdfrwt>
<totfact> 0.26631024E+02</totfact>
</mgrwt>
</event>
<event>
12    1  0.4404304E-002  0.1772570E+03  0.7546771E-02  0.1170484E+00
         -1   -1    0    0    0  501 -0.00000000000E+00  0.00000000000E+00  0.36517431436E+02  0.36517431436E+02  0.00000000000E+00 0.  1.
          1   -1    0    0  502    0  0.00000000000E+00 -0.00000000000E+00 -0.86743856531E+03  0.86743856531E+03  0.00000000000E+00 0. -1.
          6    2    1    2  502    0  0.35052210853E+02  0.14659799054E+02 -0.45674597799E+03  0.49003093118E+03  0.17340662592E+03 0.  0.
         24    2    3    3    0    0  0.58585016663E+02  0.10550979514E+02 -0.15191598768E+03  0.18423019813E+03  0.85549817313E+02 0.  0.
         -6    2    1    2    0  501 -0.35052210853E+02 -0.14659799054E+02 -0.37417515589E+03  0.41392506556E+03  0.17286800001E+03 0.  0.
        -24    2    5    5    0    0  0.22839624534E+02 -0.28861162762E+02 -0.32079958893E+03  0.33377405507E+03  0.84487445305E+02 0.  0.
          5    1    3    3  502    0 -0.23532805810E+02  0.41088195400E+01 -0.30482999030E+03  0.30580073305E+03  0.47000000000E+01 0. -1.
        -13    1    4    4    0    0  0.53916917229E+02 -0.29255016745E+02 -0.11180515300E+03  0.12752757430E+03  0.00000000000E+00 0.  1.
         14    1    4    4    0    0  0.46680994340E+01  0.39805996259E+02 -0.40110834682E+02  0.56702623831E+02  0.00000000000E+00 0. -1.
         -5    1    5    5    0  501 -0.57891835386E+02  0.14201363708E+02 -0.53375566955E+02  0.80151010495E+02  0.47000000000E+01 0.  1.
         13    1    6    6    0    0  0.39567343652E+02  0.17188840428E+02 -0.14654550408E+03  0.15276326681E+03  0.00000000000E+00 0. -1.
        -14    1    6    6    0    0 -0.16727719118E+02 -0.46050003190E+02 -0.17425408485E+03  0.18101078826E+03  0.00000000000E+00 0.  1.
<mgrwt>
<rscale>  2 0.17725696E+03</rscale>
<asrwt>0</asrwt>
<pdfrwt beam="2">  1        1 0.13345207E+00 0.17725696E+03</pdfrwt>
<pdfrwt beam="1">  1       -1 0.56180672E-02 0.17725696E+03</pdfrwt>
<totfact> 0.29614340E+03</totfact>
</mgrwt>
</event>
<event>
12    1  0.4404304E-002  0.1738164E+03  0.7546771E-02  0.1173925E+00
          1   -1    0    0  502    0  0.00000000000E+00  0.00000000000E+00  0.57093997107E+03  0.57093997107E+03  0.00000000000E+00 0.  1.
         -1   -1    0    0    0  501 -0.00000000000E+00 -0.00000000000E+00 -0.63759876607E+02  0.63759876607E+02  0.00000000000E+00 0. -1.
          6    2    1    2  502    0  0.13914504759E+02  0.10321031055E+02  0.12282474294E+03  0.21290535437E+03  0.17303940394E+03 0.  0.
         24    2    3    3    0    0 -0.55086571823E+01 -0.60110332868E+02  0.39519565206E+02  0.10200143703E+03  0.72103395906E+02 0.  0.
         -6    2    1    2    0  501 -0.13914504759E+02 -0.10321031055E+02  0.38435535152E+03  0.42179449331E+03  0.17286243436E+03 0.  0.
        -24    2    5    5    0    0  0.33987405289E+02  0.56316385652E+01  0.34886326002E+03  0.35990055811E+03  0.81461515267E+02 0.  0.
          5    1    3    3  502    0  0.19423161941E+02  0.70431363923E+02  0.83305177737E+02  0.11090391734E+03  0.47000000000E+01 0. -1.
        -11    1    4    4    0    0 -0.21970268772E+02 -0.13014049852E+02  0.45072164640E+02  0.51803071616E+02  0.00000000000E+00 0.  1.
         12    1    4    4    0    0  0.16461611590E+02 -0.47096283016E+02 -0.55525994343E+01  0.50198365417E+02  0.00000000000E+00 0. -1.
         -5    1    5    5    0  501 -0.47901910048E+02 -0.15952669620E+02  0.35492091508E+02  0.61893935195E+02  0.47000000000E+01 0.  1.
         11    1    6    6    0    0 -0.12271699348E+02  0.18584000211E+02  0.29592945914E+02  0.37036497089E+02  0.00000000000E+00 0. -1.
        -12    1    6    6    0    0  0.46259104638E+02 -0.12952361646E+02  0.31927031410E+03  0.32286406102E+03  0.00000000000E+00 0.  1.
<mgrwt>
<rscale>  2 0.17381643E+03</rscale>
<asrwt>0</asrwt>
<pdfrwt beam="1">  1        1 0.87836915E-01 0.17381643E+03</pdfrwt>
<pdfrwt beam="2">  1       -1 0.98092122E-02 0.17381643E+03</pdfrwt>
<totfact> 0.23380123E+03</totfact>
</mgrwt>
</event>
<event>
12    1  0.4404304E-002  0.1744328E+03  0.7546771E-02  0.1173302E+00
          2   -1    0    0  502    0  0.00000000000E+00  0.00000000000E+00  0.93915748925E+03  0.93915748925E+03  0.00000000000E+00 0.  1.
         -2   -1    0    0    0  501 -0.00000000000E+00 -0.00000000000E+00 -0.32569564131E+02  0.32569564131E+02  0.00000000000E+00 0. -1.
          6    2    1    2  502    0 -0.26063890129E+02 -0.34902504851E+01  0.41472365423E+03  0.44939175402E+03  0.17107229754E+03 0.  0.
         24    2    3    3    0    0 -0.40442680145E+02  0.31584420658E+02  0.39429423871E+03  0.40607393810E+03  0.82431247199E+02 0.  0.
         -6    2    1    2    0  501  0.26063890129E+02  0.34902504851E+01  0.49186427089E+03  0.52233529936E+03  0.17381655779E+03 0.  0.
        -24    2    5    5    0    0 -0.29192940189E+01 -0.53213542359E+02  0.39007974130E+03  0.40217904464E+03  0.82131455618E+02 0.  0.
          5    1    3    3  502    0  0.14378790016E+02 -0.35074671143E+02  0.20429415522E+02  0.43317815927E+02  0.47000000000E+01 0. -1.
        -11    1    4    4    0    0 -0.94053703207E+01  0.47078055162E+02  0.11478464616E+03  0.12441993113E+03  0.00000000000E+00 0.  1.
         12    1    4    4    0    0 -0.31037309824E+02 -0.15493634504E+02  0.27950959255E+03  0.28165400697E+03  0.00000000000E+00 0. -1.
         -5    1    5    5    0  501  0.28983184148E+02  0.56703792844E+02  0.10178452959E+03  0.12015625473E+03  0.47000000000E+01 0.  1.
         13    1    6    6    0    0 -0.14518552903E+02 -0.65671515214E+01  0.94496959674E+01  0.18525998256E+02  0.00000000000E+00 0. -1.
        -14    1    6    6    0    0  0.11599258884E+02 -0.46646390837E+02  0.38063004533E+03  0.38365304638E+03  0.00000000000E+00 0.  1.
<mgrwt>
<rscale>  2 0.17443277E+03</rscale>
<asrwt>0</asrwt>
<pdfrwt beam="1">  1        2 0.14448575E+00 0.17443277E+03</pdfrwt>
<pdfrwt beam="2">  1       -2 0.50107029E-02 0.17443277E+03</pdfrwt>
<totfact> 0.54991662E+03</totfact>
</mgrwt>
</event>
<event>
12    1  0.4404304E-002  0.4222594E+03  0.7546771E-02  0.1036333E+00
          2   -1    0    0  502    0  0.00000000000E+00  0.00000000000E+00  0.84206208559E+03  0.84206208559E+03  0.00000000000E+00 0.  1.
         -2   -1    0    0    0  501 -0.00000000000E+00 -0.00000000000E+00 -0.21575676577E+03  0.21575676577E+03  0.00000000000E+00 0. -1.
          6    2    1    2  502    0  0.29418996137E+03 -0.25451221413E+03  0.38773761399E+03  0.57593094773E+03  0.17329685151E+03 0.  0.
         24    2    3    3    0    0  0.11940517270E+03 -0.55327651701E+02  0.19401732809E+03  0.24764166763E+03  0.79780496604E+02 0.  0.
         -6    2    1    2    0  501 -0.29418996137E+03  0.25451221413E+03  0.23856770583E+03  0.48188790363E+03  0.15484573253E+03 0.  0.
        -24    2    5    5    0    0 -0.16011702823E+03  0.21264745587E+03  0.15485392112E+03  0.31830826817E+03  0.80523372284E+02 0.  0.
          5    1    3    3  502    0  0.17478478868E+03 -0.19918456243E+03  0.19372028590E+03  0.32828928011E+03  0.47000000000E+01 0. -1.
        -11    1    4    4    0    0  0.37384813033E+02 -0.60336342727E+02  0.10210129881E+03  0.12434940176E+03  0.00000000000E+00 0.  1.
         12    1    4    4    0    0  0.82020359663E+02  0.50086910257E+01  0.91916029275E+02  0.12329226587E+03  0.00000000000E+00 0. -1.
         -5    1    5    5    0  501 -0.13407293314E+03  0.41864758266E+02  0.83713784707E+02  0.16357963546E+03  0.47000000000E+01 0.  1.
         13    1    6    6    0    0 -0.84540804286E+02  0.54043827362E+02  0.37934354306E+02  0.10727021069E+03  0.00000000000E+00 0. -1.
        -14    1    6    6    0    0 -0.75576223944E+02  0.15860362850E+03  0.11691956682E+03  0.21103805748E+03  0.00000000000E+00 0.  1.
<mgrwt>
<rscale>  2 0.42225940E+03</rscale>
<asrwt>0</asrwt>
<pdfrwt beam="1">  1        2 0.12954801E+00 0.42225940E+03</pdfrwt>
<pdfrwt beam="2">  1       -2 0.33193349E-01 0.42225940E+03</pdfrwt>
<totfact> 0.27999384E+02</totfact>
</mgrwt>
</event>
<event>
12    1  0.4404304E-002  0.1914149E+03  0.7546771E-02  0.1157191E+00
          1   -1    0    0  502    0  0.00000000000E+00  0.00000000000E+00  0.11653478043E+04  0.11653478043E+04  0.00000000000E+00 0. -1.
         -1   -1    0    0    0  501 -0.00000000000E+00 -0.00000000000E+00 -0.31660461127E+02  0.31660461127E+02  0.00000000000E+00 0.  1.
          6    2    1    2  502    0  0.30392116915E+02 -0.78110792391E+02  0.62062775539E+03  0.64989420828E+03  0.17366258819E+03 0.  0.
         24    2    3    3    0    0  0.15651856152E+02  0.24007222483E+02  0.35192781913E+03  0.36202772882E+03  0.79934718528E+02 0.  0.
         -6    2    1    2    0  501 -0.30392116915E+02  0.78110792391E+02  0.51305958773E+03  0.54711405710E+03  0.17052470276E+03 0.  0.
        -24    2    5    5    0    0  0.24191476046E+02  0.63019994087E+02  0.45084716203E+03  0.46285507107E+03  0.80093109194E+02 0.  0.
          5    1    3    3  502    0  0.14740260762E+02 -0.10211801487E+03  0.26869993627E+03  0.28786647946E+03  0.47000000000E+01 0. -1.
        -13    1    4    4    0    0 -0.30517848963E+02 -0.38697557159E+01  0.14065145179E+03  0.14397619597E+03  0.00000000000E+00 0.  1.
         14    1    4    4    0    0  0.46169705115E+02  0.27876978198E+02  0.21127636734E+03  0.21805153285E+03  0.00000000000E+00 0. -1.
         -5    1    5    5    0  501 -0.54583592961E+02  0.15090798304E+02  0.62212425703E+02  0.84258986025E+02  0.47000000000E+01 0.  1.
         13    1    6    6    0    0  0.30204178934E+02 -0.85307922767E+01  0.10305969169E+03  0.10773284965E+03  0.00000000000E+00 0. -1.
        -14    1    6    6    0    0 -0.60127028880E+01  0.71550786364E+02  0.34778747034E+03  0.35512222143E+03  0.00000000000E+00 0.  1.
<mgrwt>
<rscale>  2 0.19141495E+03</rscale>
<asrwt>0</asrwt>
<pdfrwt beam="1">  1        1 0.17928424E+00 0.19141495E+03</pdfrwt>
<pdfrwt beam="2">  1       -1 0.48708411E-02 0.19141495E+03</pdfrwt>
<totfact> 0.22110721E+03</totfact>
</mgrwt>
</event>
<event>
12    1  0.4404304E-002  0.1840222E+03  0.7546771E-02  0.1163966E+00
          2   -1    0    0  502    0  0.00000000000E+00  0.00000000000E+00  0.27922160305E+03  0.27922160305E+03  0.00000000000E+00 0. -1.
         -2   -1    0    0    0  501 -0.00000000000E+00 -0.00000000000E+00 -0.12323844381E+03  0.12323844381E+03  0.00000000000E+00 0.  1.
          6    2    1    2  502    0 -0.52639907425E+02 -0.33076844099E+02  0.10335656454E+03  0.21106504710E+03  0.17320749754E+03 0.  0.
         24    2    3    3    0    0 -0.58328045277E+02 -0.80177334268E+02  0.47019708775E+02  0.13726299832E+03  0.82460365618E+02 0.  0.
         -6    2    1    2    0  501  0.52639907425E+02  0.33076844099E+02  0.52626594705E+02  0.19139499976E+03  0.17319771937E+03 0.  0.
        -24    2    5    5    0    0 -0.30154402066E+02  0.25256520618E+02 -0.62955070631E+01  0.89365792081E+02  0.79996447342E+02 0.  0.
          5    1    3    3  502    0  0.56881378528E+01  0.47100490168E+02  0.56336855768E+02  0.73802048780E+02  0.47000000000E+01 0. -1.
        -11    1    4    4    0    0 -0.15727744192E+02 -0.17265173840E+02 -0.23837221303E+02  0.33371564011E+02  0.00000000000E+00 0.  1.
         12    1    4    4    0    0 -0.42600301085E+02 -0.62912160427E+02  0.70856930078E+02  0.10389143431E+03  0.00000000000E+00 0. -1.
         -5    1    5    5    0  501  0.82794309490E+02  0.78203234811E+01  0.58922101768E+02  0.10202920768E+03  0.47000000000E+01 0.  1.
         13    1    6    6    0    0 -0.50103720584E+02 -0.41211219181E+01  0.83348667317E+01  0.50959164688E+02  0.00000000000E+00 0. -1.
        -14    1    6    6    0    0  0.19949318518E+02  0.29377642536E+02 -0.14630373795E+02  0.38406627393E+02  0.00000000000E+00 0.  1.
<mgrwt>
<rscale>  2 0.18402223E+03</rscale>
<asrwt>0</asrwt>
<pdfrwt beam="1">  1        2 0.42957170E-01 0.18402223E+03</pdfrwt>
<pdfrwt beam="2">  1       -2 0.18959761E-01 0.18402223E+03</pdfrwt>
<totfact> 0.26770529E+03</totfact>
</mgrwt>
</event>
<event>
12    1  0.4404304E-002  0.1932964E+03  0.7546771E-02  0.1155521E+00
         -1   -1    0    0    0  501 -0.00000000000E+00  0.00000000000E+00  0.12171068100E+03  0.12171068100E+03  0.00000000000E+00 0. -1.
          1   -1    0    0  502    0  0.00000000000E+00 -0.00000000000E+00 -0.31685324047E+03  0.31685324047E+03  0.00000000000E+00 0.  1.
          6    2    1    2  502    0  0.58064764981E+02  0.55710337331E+02 -0.58020807898E+02  0.20003971380E+03  0.17370755404E+03 0.  0.
         24    2    3    3    0    0  0.17399798439E+02  0.13455714311E+01  0.30392645843E+02  0.88468229642E+02  0.81230235667E+02 0.  0.
         -6    2    1    2    0  501 -0.58064764981E+02 -0.55710337331E+02 -0.13712175157E+03  0.23852420767E+03  0.17780962931E+03 0.  0.
        -24    2    5    5    0    0 -0.65245332207E+02 -0.66300682482E+02 -0.16665290620E+03  0.20599890906E+03  0.77521774487E+02 0.  0.
          5    1    3    3  502    0  0.40664966542E+02  0.54364765900E+02 -0.88413453742E+02  0.11157148416E+03  0.47000000000E+01 0. -1.
        -13    1    4    4    0    0 -0.21748187016E+02 -0.10606778940E+02 -0.14104974983E+02  0.28007815289E+02  0.00000000000E+00 0.  1.
         14    1    4    4    0    0  0.39147985455E+02  0.11952350371E+02  0.44497620826E+02  0.60460414354E+02  0.00000000000E+00 0. -1.
         -5    1    5    5    0  501  0.71805672259E+01  0.10590345151E+02  0.29531154624E+02  0.32525298608E+02  0.47000000000E+01 0.  1.
         11    1    6    6    0    0  0.28960147042E+01  0.78733591627E+01  0.28231165522E+01  0.88513655861E+01  0.00000000000E+00 0. -1.
        -12    1    6    6    0    0 -0.68141346911E+02 -0.74174041644E+02 -0.16947602275E+03  0.19714754348E+03  0.00000000000E+00 0.  1.
<mgrwt>
<rscale>  2 0.19329639E+03</rscale>
<asrwt>0</asrwt>
<pdfrwt beam="2">  1        1 0.48746653E-01 0.19329639E+03</pdfrwt>
<pdfrwt beam="1">  1       -1 0.18724720E-01 0.19329639E+03</pdfrwt>
<totfact> 0.18182021E+03</totfact>
</mgrwt>
</event>
<event>
12    1  0.4404304E-002  0.2345073E+03  0.7546771E-02  0.1123507E+00
         -1   -1    0    0    0  501 -0.00000000000E+00  0.00000000000E+00  0.11501694898E+03  0.11501694898E+03  0.00000000000E+00 0.  1.
          1   -1    0    0  502    0  0.00000000000E+00 -0.00000000000E+00 -0.47926157082E+03  0.47926157082E+03  0.00000000000E+00 0. -1.
          6    2    1    2  502    0 -0.15204591600E+03 -0.43468598773E+02 -0.16768592328E+03  0.28825695510E+03  0.17310697167E+03 0.  0.
         24    2    3    3    0    0 -0.56715729868E+02 -0.37096651041E+02 -0.16368095648E+03  0.19251471852E+03  0.75350021892E+02 0.  0.
         -6    2    1    2    0  501  0.15204591600E+03  0.43468598773E+02 -0.19655869856E+03  0.30602156471E+03  0.17322354469E+03 0.  0.
        -24    2    5    5    0    0  0.15961498956E+03 -0.67483342638E+01 -0.13429755146E+03  0.22553820198E+03  0.85493644877E+02 0.  0.
          5    1    3    3  502    0 -0.95330186132E+02 -0.63719477321E+01 -0.40049668041E+01  0.95742236578E+02  0.47000000000E+01 0. -1.
        -13    1    4    4    0    0  0.13501905794E+02  0.10013068187E+01 -0.42529576134E+01  0.14191255190E+02  0.00000000000E+00 0.  1.
         14    1    4    4    0    0 -0.70217635661E+02 -0.38097957860E+02 -0.15942799887E+03  0.17832346333E+03  0.00000000000E+00 0. -1.
         -5    1    5    5    0  501 -0.75690735651E+01  0.50216933037E+02 -0.62261147104E+02  0.80483362734E+02  0.47000000000E+01 0.  1.
         11    1    6    6    0    0  0.31481425009E+02 -0.25394117331E+02 -0.70294846735E+02  0.81100596749E+02  0.00000000000E+00 0. -1.
        -12    1    6    6    0    0  0.12813356456E+03  0.18645783067E+02 -0.64002704722E+02  0.14443760523E+03  0.00000000000E+00 0.  1.
<mgrwt>
<rscale>  2 0.23450733E+03</rscale>
<asrwt>0</asrwt>
<pdfrwt beam="2">  1        1 0.73732549E-01 0.23450733E+03</pdfrwt>
<pdfrwt beam="1">  1       -1 0.17694915E-01 0.23450733E+03</pdfrwt>
<totfact> 0.11765297E+03</totfact>
</mgrwt>
</event>
<event>
12    1  0.4404304E-002  0.1759501E+03  0.7546771E-02  0.1171781E+00
          3   -1    0    0  502    0  0.00000000000E+00  0.00000000000E+00  0.55355931945E+02  0.55355931945E+02  0.00000000000E+00 0. -1.
         -3   -1    0    0    0  501 -0.00000000000E+00 -0.00000000000E+00 -0.57464077879E+03  0.57464077879E+03  0.00000000000E+00 0.  1.
          6    2    1    2  502    0  0.34383635131E+02  0.61297093490E+01 -0.20823407040E+03  0.27267214684E+03  0.17253655812E+03 0.  0.
         24    2    3    3    0    0 -0.41060124003E+02  0.15030266340E+02 -0.11180153603E+03  0.14982140654E+03  0.89638316083E+02 0.  0.
         -6    2    1    2    0  501 -0.34383635131E+02 -0.61297093490E+01 -0.31105077644E+03  0.35732456389E+03  0.17236139572E+03 0.  0.
        -24    2    5    5    0    0  0.45940471393E+02 -0.16006831234E+02 -0.14945741890E+03  0.17653733307E+03  0.80381368151E+02 0.  0.
          5    1    3    3  502    0  0.75443759134E+02 -0.89005569911E+01 -0.96432534379E+02  0.12285074031E+03  0.47000000000E+01 0. -1.
        -11    1    4    4    0    0  0.22346898761E+02 -0.13591961300E+02 -0.13614427080E+02  0.29486911010E+02  0.00000000000E+00 0.  1.
         12    1    4    4    0    0 -0.63407022764E+02  0.28622227640E+02 -0.98187108946E+02  0.12033449553E+03  0.00000000000E+00 0. -1.
         -5    1    5    5    0  501 -0.80324106524E+02  0.98771218855E+01 -0.16159335753E+03  0.18078723081E+03  0.47000000000E+01 0.  1.
         13    1    6    6    0    0  0.37293180143E+02 -0.20097853986E+01 -0.13691063930E+02  0.39777704234E+02  0.00000000000E+00 0. -1.
        -14    1    6    6    0    0  0.86472912494E+01 -0.13997045836E+02 -0.13576635497E+03  0.13675962884E+03  0.00000000000E+00 0.  1.
<mgrwt>
<rscale>  2 0.17595014E+03</rscale>
<asrwt>0</asrwt>
<pdfrwt beam="1">  1        3 0.85162980E-02 0.17595014E+03</pdfrwt>
<pdfrwt beam="2">  1       -3 0.88406266E-01 0.17595014E+03</pdfrwt>
<totfact> 0.27699738E+02</totfact>
</mgrwt>
</event>
<event>
12    1  0.4404304E-002  0.1787184E+03  0.7546771E-02  0.1169049E+00
          1   -1    0    0  502    0  0.00000000000E+00  0.00000000000E+00  0.49700169367E+03  0.49700169367E+03  0.00000000000E+00 0. -1.
         -1   -1    0    0    0  501 -0.00000000000E+00 -0.00000000000E+00 -0.69684985417E+02  0.69684985417E+02  0.00000000000E+00 0.  1.
          6    2    1    2  502    0 -0.18624238172E+02 -0.42370539136E+02  0.13414226144E+03  0.22309427676E+03  0.17214756805E+03 0.  0.
         24    2    3    3    0    0  0.77311375985E+01 -0.81396458951E+02  0.32086904037E+02  0.11059976924E+03  0.67212986289E+02 0.  0.
         -6    2    1    2    0  501  0.18624238172E+02  0.42370539136E+02  0.29317444681E+03  0.34359240232E+03  0.17309638308E+03 0.  0.
        -24    2    5    5    0    0  0.18613097533E+02 -0.33627198357E+02  0.21985825479E+03  0.23788994142E+03  0.82320933910E+02 0.  0.
          5    1    3    3  502    0 -0.26355375770E+02  0.39025919815E+02  0.10205535740E+03  0.11249450753E+03  0.47000000000E+01 0. -1.
        -11    1    4    4    0    0 -0.41270428911E+01 -0.25151523401E+02 -0.20487539625E+02  0.32701236862E+02  0.00000000000E+00 0.  1.
         12    1    4    4    0    0  0.11858180490E+02 -0.56244935550E+02  0.52574443662E+02  0.77898532373E+02  0.00000000000E+00 0. -1.
         -5    1    5    5    0  501  0.11140638611E-01  0.75997737493E+02  0.73316192017E+02  0.10570246090E+03  0.47000000000E+01 0.  1.
         13    1    6    6    0    0  0.48082833231E+02 -0.88515389078E+01  0.15432191093E+03  0.16188131698E+03  0.00000000000E+00 0. -1.
        -14    1    6    6    0    0 -0.29469735698E+02 -0.24775659449E+02  0.65536343862E+02  0.76008624445E+02  0.00000000000E+00 0.  1.
<mgrwt>
<rscale>  2 0.17871843E+03</rscale>
<asrwt>0</asrwt>
<pdfrwt beam="1">  1        1 0.76461797E-01 0.17871843E+03</pdfrwt>
<pdfrwt beam="2">  1       -1 0.10720767E-01 0.17871843E+03</pdfrwt>
<totfact> 0.24557212E+03</totfact>
</mgrwt>
</event>
<event>
12    1  0.4404304E-002  0.2707018E+03  0.7546771E-02  0.1100879E+00
         -1   -1    0    0    0  501 -0.00000000000E+00  0.00000000000E+00  0.28978532676E+03  0.28978532676E+03  0.00000000000E+00 0.  1.
          1   -1    0    0  502    0  0.00000000000E+00 -0.00000000000E+00 -0.37670982736E+03  0.37670982736E+03  0.00000000000E+00 0. -1.
          6    2    1    2  502    0  0.11601019770E+03 -0.17242626402E+03  0.14761736275E+03  0.30822859635E+03  0.17327665546E+03 0.  0.
         24    2    3    3    0    0 -0.16435855223E+01 -0.28564900549E+02  0.44968090489E+02  0.95866952678E+02  0.79684932934E+02 0.  0.
         -6    2    1    2    0  501 -0.11601019770E+03  0.17242626402E+03 -0.23454186335E+03  0.35826655777E+03  0.17365442194E+03 0.  0.
        -24    2    5    5    0    0 -0.90071313790E+02  0.33065239452E+02 -0.78558191353E+02  0.14744123482E+03  0.79758238878E+02 0.  0.
          5    1    3    3  502    0  0.11765378322E+03 -0.14386136347E+03  0.10264927227E+03  0.21236164367E+03  0.47000000000E+01 0. -1.
        -11    1    4    4    0    0 -0.19661516924E+02 -0.37223243206E+02  0.58247887214E+02  0.71867666216E+02  0.00000000000E+00 0.  1.
         12    1    4    4    0    0  0.18017931402E+02  0.86583426572E+01 -0.13279796725E+02  0.23999286461E+02  0.00000000000E+00 0. -1.
         -5    1    5    5    0  501 -0.25938883906E+02  0.13936102457E+03 -0.15598367199E+03  0.21082532295E+03  0.47000000000E+01 0.  1.
         13    1    6    6    0    0 -0.86711763431E+02  0.49693290954E+02 -0.44518521328E+02  0.10940864602E+03  0.00000000000E+00 0. -1.
        -14    1    6    6    0    0 -0.33595503599E+01 -0.16628051502E+02 -0.34039670025E+02  0.38032588799E+02  0.00000000000E+00 0.  1.
<mgrwt>
<rscale>  2 0.27070183E+03</rscale>
<asrwt>0</asrwt>
<pdfrwt beam="2">  1        1 0.57955358E-01 0.27070183E+03</pdfrwt>
<pdfrwt beam="1">  1       -1 0.44582358E-01 0.27070183E+03</pdfrwt>
<totfact> 0.33464442E+02</totfact>
</mgrwt>
</event>
<event>
12    1  0.4404304E-002  0.2478523E+03  0.7546771E-02  0.1114670E+00
          1   -1    0    0  502    0  0.00000000000E+00  0.00000000000E+00  0.25999787977E+03  0.25999787977E+03  0.00000000000E+00 0.  1.
         -1   -1    0    0    0  501 -0.00000000000E+00 -0.00000000000E+00 -0.38163156091E+03  0.38163156091E+03  0.00000000000E+00 0. -1.
          6    2    1    2  502    0 -0.45924161759E+02  0.17152094613E+03 -0.25860604817E+03  0.35730237879E+03  0.17105390420E+03 0.  0.
         24    2    3    3    0    0 -0.21970858283E+02  0.94346221389E+02 -0.52277876693E+02  0.13566505514E+03  0.79297557914E+02 0.  0.
         -6    2    1    2    0  501  0.45924161759E+02 -0.17152094613E+03  0.13697236703E+03  0.28432706190E+03  0.17479126181E+03 0.  0.
        -24    2    5    5    0    0  0.69695500430E+02 -0.14889051365E+03  0.16086283005E+03  0.24346072808E+03  0.79814962210E+02 0.  0.
          5    1    3    3  502    0 -0.23953303476E+02  0.77174724738E+02 -0.20632817148E+03  0.22163732365E+03  0.47000000000E+01 0. -1.
        -11    1    4    4    0    0  0.27374229865E+02  0.28702208079E+02 -0.27382539650E+01  0.39757555812E+02  0.00000000000E+00 0.  1.
         12    1    4    4    0    0 -0.49345088148E+02  0.65644013310E+02 -0.49539622728E+02  0.95907499330E+02  0.00000000000E+00 0. -1.
         -5    1    5    5    0  501 -0.23771338672E+02 -0.22630432480E+02 -0.23890463016E+02  0.40866333817E+02  0.47000000000E+01 0.  1.
         11    1    6    6    0    0 -0.46362497979E+00  0.95570054038E+00 -0.74003640678E+01  0.74762089310E+01  0.00000000000E+00 0. -1.
        -12    1    6    6    0    0  0.70159125410E+02 -0.14984621419E+03  0.16826319412E+03  0.23598451915E+03  0.00000000000E+00 0.  1.
<mgrwt>
<rscale>  2 0.24785233E+03</rscale>
<asrwt>0</asrwt>
<pdfrwt beam="1">  1        1 0.39999674E-01 0.24785233E+03</pdfrwt>
<pdfrwt beam="2">  1       -1 0.58712548E-01 0.24785233E+03</pdfrwt>
<totfact> 0.32090395E+02</totfact>
</mgrwt>
</event>
<event>
12    1  0.4404304E-002  0.2592318E+03  0.7546771E-02  0.1107606E+00
          3   -1    0    0  502    0  0.00000000000E+00  0.00000000000E+00  0.10678525072E+03  0.10678525072E+03  0.00000000000E+00 0. -1.
         -3   -1    0    0    0  501 -0.00000000000E+00 -0.00000000000E+00 -0.77088006037E+03  0.77088006037E+03  0.00000000000E+00 0.  1.
          6    2    1    2  502    0  0.18518524750E+03 -0.54772147217E+02 -0.52031422064E+03  0.58140539069E+03  0.17323907213E+03 0.  0.
         24    2    3    3    0    0  0.56073901673E+02  0.36102739016E+02 -0.28068536382E+03  0.29440005347E+03  0.58646635082E+02 0.  0.
         -6    2    1    2    0  501 -0.18518524750E+03  0.54772147217E+02 -0.14378058900E+03  0.29625992040E+03  0.17263695625E+03 0.  0.
        -24    2    5    5    0    0 -0.20817622127E+03  0.57816051453E+02 -0.14493649975E+03  0.27256864865E+03  0.81283727508E+02 0.  0.
          5    1    3    3  502    0  0.12911134583E+03 -0.90874886233E+02 -0.23962885683E+03  0.28700533722E+03  0.47000000000E+01 0. -1.
        -11    1    4    4    0    0  0.57193838901E+02  0.55104653116E+01 -0.20046516534E+03  0.20853724595E+03  0.00000000000E+00 0.  1.
         12    1    4    4    0    0 -0.11199372280E+01  0.30592273705E+02 -0.80220198484E+02  0.85862807517E+02  0.00000000000E+00 0. -1.
         -5    1    5    5    0  501  0.22990973768E+02 -0.30439042362E+01  0.11559107527E+01  0.23691271757E+02  0.47000000000E+01 0.  1.
         11    1    6    6    0    0 -0.13752029836E+03  0.63634112489E+02 -0.62693018570E+02  0.16398642416E+03  0.00000000000E+00 0. -1.
        -12    1    6    6    0    0 -0.70655922909E+02 -0.58180610359E+01 -0.82243481183E+02  0.10858222448E+03  0.00000000000E+00 0.  1.
<mgrwt>
<rscale>  2 0.25923181E+03</rscale>
<asrwt>0</asrwt>
<pdfrwt beam="1">  1        3 0.16428501E-01 0.25923181E+03</pdfrwt>
<pdfrwt beam="2">  1       -3 0.11859693E+00 0.25923181E+03</pdfrwt>
<totfact> 0.47927770E+01</totfact>
</mgrwt>
</event>
<event>
12    1  0.4404304E-002  0.1943647E+03  0.7546771E-02  0.1154582E+00
         -3   -1    0    0    0  501 -0.00000000000E+00  0.00000000000E+00  0.11739579123E+03  0.11739579123E+03  0.00000000000E+00 0. -1.
          3   -1    0    0  502    0  0.00000000000E+00 -0.00000000000E+00 -0.45937277333E+03  0.45937277333E+03  0.00000000000E+00 0.  1.
          6    2    1    2  502    0  0.82293078114E+02 -0.38615297992E+02 -0.32775468023E+03  0.38020205270E+03  0.16990343881E+03 0.  0.
         24    2    3    3    0    0  0.75546273574E+01  0.82656154372E+01 -0.24902580409E+03  0.26186363120E+03  0.80207963748E+02 0.  0.
         -6    2    1    2    0  501 -0.82293078114E+02  0.38615297992E+02 -0.14222301870E+02  0.19656651186E+03  0.17370327507E+03 0.  0.
        -24    2    5    5    0    0 -0.99570219307E+02 -0.58900719762E+01  0.31464760934E+02  0.13031981178E+03  0.77745100434E+02 0.  0.
          5    1    3    3  502    0  0.74738450757E+02 -0.46880913430E+02 -0.78728876147E+02  0.11833842151E+03  0.47000000000E+01 0. -1.
        -13    1    4    4    0    0  0.31307012835E+02  0.31686893783E+02 -0.17650193296E+03  0.18203604211E+03  0.00000000000E+00 0.  1.
         14    1    4    4    0    0 -0.23752385477E+02 -0.23421278346E+02 -0.72523871128E+02  0.79827589082E+02  0.00000000000E+00 0. -1.
         -5    1    5    5    0  501  0.17277141192E+02  0.44505369969E+02 -0.45687062804E+02  0.66246700080E+02  0.47000000000E+01 0.  1.
         11    1    6    6    0    0 -0.21770751048E+02 -0.14817648655E+01  0.46127073095E+02  0.51028110886E+02  0.00000000000E+00 0. -1.
        -12    1    6    6    0    0 -0.77799468259E+02 -0.44083071107E+01 -0.14662312161E+02  0.79291700895E+02  0.00000000000E+00 0.  1.
<mgrwt>
<rscale>  2 0.19436475E+03</rscale>
<asrwt>0</asrwt>
<pdfrwt beam="2">  1        3 0.70672734E-01 0.19436475E+03</pdfrwt>
<pdfrwt beam="1">  1       -3 0.18060891E-01 0.19436475E+03</pdfrwt>
<totfact> 0.12772823E+02</totfact>
</mgrwt>
</event>
<event>
12    1  0.4404304E-002  0.2089696E+03  0.7546771E-02  0.1142385E+00
          1   -1    0    0  502    0  0.00000000000E+00  0.00000000000E+00  0.45097284362E+03  0.45097284362E+03  0.00000000000E+00 0.  1.
         -1   -1    0    0    0  501 -0.00000000000E+00 -0.00000000000E+00 -0.10217820649E+03  0.10217820649E+03  0.00000000000E+00 0. -1.
          6    2    1    2  502    0 -0.10909311827E+03 -0.42728646446E+01  0.23322499871E+03  0.30977826154E+03  0.17218915609E+03 0.  0.
         24    2    3    3    0    0 -0.28894656555E+02 -0.18550749358E+02  0.20594611895E+03  0.22374409080E+03  0.80427500157E+02 0.  0.
         -6    2    1    2    0  501  0.10909311827E+03  0.42728646446E+01  0.11556963842E+03  0.24337278858E+03  0.18426721648E+03 0.  0.
        -24    2    5    5    0    0  0.65938479484E+02 -0.38457430758E+02  0.27855915248E+01  0.11519115094E+03  0.86222877921E+02 0.  0.
          5    1    3    3  502    0 -0.80198461711E+02  0.14277884714E+02  0.27278879761E+02  0.86034170734E+02  0.47000000000E+01 0. -1.
        -13    1    4    4    0    0 -0.33922230343E+02  0.22478579793E+02  0.14103616759E+03  0.14678966186E+03  0.00000000000E+00 0.  1.
         14    1    4    4    0    0  0.50275737877E+01 -0.41029329151E+02  0.64909951354E+02  0.76954428940E+02  0.00000000000E+00 0. -1.
         -5    1    5    5    0  501  0.43154638782E+02  0.42730295403E+02  0.11278404689E+03  0.12818163764E+03  0.47000000000E+01 0.  1.
         13    1    6    6    0    0 -0.85618046083E+01 -0.15767468137E+02 -0.26487568851E+02  0.31992324912E+02  0.00000000000E+00 0. -1.
        -14    1    6    6    0    0  0.74500284093E+02 -0.22689962622E+02  0.29273160376E+02  0.83198826026E+02  0.00000000000E+00 0.  1.
<mgrwt>
<rscale>  2 0.20896961E+03</rscale>
<asrwt>0</asrwt>
<pdfrwt beam="1">  1        1 0.69380436E-01 0.20896961E+03</pdfrwt>
<pdfrwt beam="2">  1       -1 0.15719724E-01 0.20896961E+03</pdfrwt>
<totfact> 0.15372406E+03</totfact>
</mgrwt>
</event>
<event>
12    1  0.4404304E-002  0.2086441E+03  0.7546771E-02  0.1142644E+00
          2   -1    0    0  502    0  0.00000000000E+00  0.00000000000E+00  0.87881450112E+02  0.87881450112E+02  0.00000000000E+00 0.  1.
         -2   -1    0    0    0  501 -0.00000000000E+00 -0.00000000000E+00 -0.49572396525E+03  0.49572396525E+03  0.00000000000E+00 0. -1.
          6    2    1    2  502    0 -0.27950775895E+02 -0.11746413627E+03 -0.20946672389E+03  0.29426093195E+03  0.16773228214E+03 0.  0.
         24    2    3    3    0    0  0.45438884655E+02 -0.86383225651E+02 -0.12893085990E+03  0.18085819535E+03  0.80992384071E+02 0.  0.
         -6    2    1    2    0  501  0.27950775895E+02  0.11746413627E+03 -0.19837579125E+03  0.28934448341E+03  0.17259260222E+03 0.  0.
        -24    2    5    5    0    0  0.61596214675E+02  0.13699427588E+03 -0.17301363669E+03  0.24266717856E+03  0.79950708460E+02 0.  0.
          5    1    3    3  502    0 -0.73389660550E+02 -0.31080910623E+02 -0.80535863989E+02  0.11340273660E+03  0.47000000000E+01 0. -1.
        -11    1    4    4    0    0  0.29149719510E+02 -0.46308779476E+01 -0.27695780193E+01  0.29644927736E+02  0.00000000000E+00 0.  1.
         12    1    4    4    0    0  0.16289165145E+02 -0.81752347703E+02 -0.12616128188E+03  0.15121326761E+03  0.00000000000E+00 0. -1.
         -5    1    5    5    0  501 -0.33645438780E+02 -0.19530139611E+02 -0.25362154555E+02  0.46677304845E+02  0.47000000000E+01 0.  1.
         11    1    6    6    0    0  0.77813283910E+02  0.12866460164E+03 -0.14273092957E+03  0.20732005480E+03  0.00000000000E+00 0. -1.
        -12    1    6    6    0    0 -0.16217069235E+02  0.83296742488E+01 -0.30282707120E+02  0.35347123761E+02  0.00000000000E+00 0.  1.
<mgrwt>
<rscale>  2 0.20864414E+03</rscale>
<asrwt>0</asrwt>
<pdfrwt beam="1">  1        2 0.13520223E-01 0.20864414E+03</pdfrwt>
<pdfrwt beam="2">  1       -2 0.76265227E-01 0.20864414E+03</pdfrwt>
<totfact> 0.69577380E+02</totfact>
</mgrwt>
</event>
<event>
12    1  0.4404304E-002  0.1929267E+03  0.7546771E-02  0.1155848E+00
          2   -1    0    0  502    0  0.00000000000E+00  0.00000000000E+00  0.25154982130E+04  0.25154982130E+04  0.00000000000E+00 0.  1.
         -2   -1    0    0    0  501 -0.00000000000E+00 -0.00000000000E+00 -0.14989244230E+02  0.14989244230E+02  0.00000000000E+00 0. -1.
          6    2    1    2  502    0 -0.13780997996E+02 -0.79985026704E+02  0.11016142236E+04  0.11182383801E+04  0.17411391891E+03 0.  0.
         24    2    3    3    0    0 -0.26008167150E+01  0.11917495456E+02  0.30390627616E+03  0.31516233800E+03  0.82580165054E+02 0.  0.
         -6    2    1    2    0  501  0.13780997996E+02  0.79985026704E+02  0.13988947452E+04  0.14122490771E+04  0.17593586132E+03 0.  0.
        -24    2    5    5    0    0  0.25582536766E+01 -0.28293163553E+02  0.63286025801E+03  0.63850425999E+03  0.79803108320E+02 0.  0.
          5    1    3    3  502    0 -0.11180181281E+02 -0.91902522161E+02  0.79770794741E+03  0.80307604210E+03  0.47000000000E+01 0. -1.
        -11    1    4    4    0    0  0.25477090207E+02  0.20916163017E+02  0.26116943126E+03  0.26324140978E+03  0.00000000000E+00 0.  1.
         12    1    4    4    0    0 -0.28077906922E+02 -0.89986675609E+01  0.42736844899E+02  0.51920928217E+02  0.00000000000E+00 0. -1.
         -5    1    5    5    0  501  0.11222744319E+02  0.10827819026E+03  0.76603448721E+03  0.77374481715E+03  0.47000000000E+01 0.  1.
         11    1    6    6    0    0  0.31639489699E+02  0.28810351204E+01  0.43214480285E+03  0.43331107568E+03  0.00000000000E+00 0. -1.
        -12    1    6    6    0    0 -0.29081236022E+02 -0.31174198674E+02  0.20071545516E+03  0.20519318432E+03  0.00000000000E+00 0.  1.
<mgrwt>
<rscale>  2 0.19292666E+03</rscale>
<asrwt>0</asrwt>
<pdfrwt beam="1">  1        2 0.38699939E+00 0.19292666E+03</pdfrwt>
<pdfrwt beam="2">  1       -2 0.23060396E-02 0.19292666E+03</pdfrwt>
<totfact> 0.24791961E+03</totfact>
</mgrwt>
</event>
<event>
12    1  0.4404304E-002  0.2421736E+03  0.7546771E-02  0.1118353E+00
         -2   -1    0    0    0  501 -0.00000000000E+00  0.00000000000E+00  0.16325578247E+03  0.16325578247E+03  0.00000000000E+00 0. -1.
          2   -1    0    0  502    0  0.00000000000E+00 -0.00000000000E+00 -0.53210714514E+03  0.53210714514E+03  0.00000000000E+00 0.  1.
          6    2    1    2  502    0  0.94584288863E+02  0.14233299717E+03 -0.38243190553E+03  0.45249145960E+03  0.17114172156E+03 0.  0.
         24    2    3    3    0    0  0.12424716241E+03  0.11892855027E+03 -0.24248689892E+03  0.30745922498E+03  0.78421434844E+02 0.  0.
         -6    2    1    2    0  501 -0.94584288863E+02 -0.14233299717E+03  0.13580542861E+02  0.24287146802E+03  0.17203851037E+03 0.  0.
        -24    2    5    5    0    0 -0.79942989809E+02 -0.69060781051E+02  0.69662045102E+02  0.14932784084E+03  0.79282598485E+02 0.  0.
          5    1    3    3  502    0 -0.29662873548E+02  0.23404446892E+02 -0.13994500661E+03  0.14503223461E+03  0.47000000000E+01 0. -1.
        -11    1    4    4    0    0 -0.18626208775E+01  0.63974839132E+01 -0.53520398427E+02  0.53933572148E+02  0.00000000000E+00 0.  1.
         12    1    4    4    0    0  0.12610978329E+03  0.11253106636E+03 -0.18896650049E+03  0.25352565284E+03  0.00000000000E+00 0. -1.
         -5    1    5    5    0  501 -0.14641299054E+02 -0.73272216115E+02 -0.56081502242E+02  0.93543627180E+02  0.47000000000E+01 0.  1.
         11    1    6    6    0    0 -0.36959219968E+01 -0.28526326315E+02  0.54541772219E+02  0.61662111942E+02  0.00000000000E+00 0. -1.
        -12    1    6    6    0    0 -0.76247067813E+02 -0.40534454736E+02  0.15120272883E+02  0.87665728896E+02  0.00000000000E+00 0.  1.
<mgrwt>
<rscale>  2 0.24217357E+03</rscale>
<asrwt>0</asrwt>
<pdfrwt beam="2">  1        2 0.81862639E-01 0.24217357E+03</pdfrwt>
<pdfrwt beam="1">  1       -2 0.25116274E-01 0.24217357E+03</pdfrwt>
<totfact> 0.81986964E+02</totfact>
</mgrwt>
</event>
<event>
11    1  0.4404304E-002  0.1967596E+03  0.7546771E-02  0.1152502E+00
         -2   -1    0    0    0  501 -0.00000000000E+00  0.00000000000E+00  0.31480711197E+02  0.31480711197E+02  0.00000000000E+00 0.  1.
          2   -1    0    0  502    0  0.00000000000E+00 -0.00000000000E+00 -0.13513177181E+04  0.13513177181E+04  0.00000000000E+00 0. -1.
          6    2    1    2  502    0  0.71279685080E+02  0.58131886615E+02 -0.86607327841E+03  0.88805630348E+03  0.17349629632E+03 0.  0.
         -6    2    1    2    0  501 -0.71279685080E+02 -0.58131886615E+02 -0.45376372854E+03  0.49474212586E+03  0.17437929928E+03 0.  0.
        -24    2    4    4    0    0 -0.52255229777E+02 -0.29298715029E+02 -0.44824416799E+03  0.45944570633E+03  0.81107947748E+02 0.  0.
          5    1    3    3  502    0 -0.20271070911E+02  0.21555800029E+02 -0.19597907529E+03  0.19825603845E+03  0.47000000000E+01 0. -1.
        -11    1    3    3    0    0  0.19500095030E+02  0.71616777556E+02 -0.20880509943E+03  0.22160502269E+03  0.00000000000E+00 0.  1.
         12    1    3    3    0    0  0.72050660961E+02 -0.35040690971E+02 -0.46128910369E+03  0.46819524235E+03  0.00000000000E+00 0. -1.
         -5    1    4    4    0  501 -0.19024455303E+02 -0.28833171586E+02 -0.55195605561E+01  0.35296419535E+02  0.47000000000E+01 0.  1.
         13    1    5    5    0    0  0.11746229336E+02  0.43111496302E+01 -0.21247186414E+03  0.21283997032E+03  0.00000000000E+00 0. -1.
        -14    1    5    5    0    0 -0.64001459113E+02 -0.33609864659E+02 -0.23577230385E+03  0.24660573601E+03  0.00000000000E+00 0.  1.
<mgrwt>
<rscale>  2 0.19675964E+03</rscale>
<asrwt>0</asrwt>
<pdfrwt beam="2">  1        2 0.20789512E+00 0.19675964E+03</pdfrwt>
<pdfrwt beam="1">  1       -2 0.48431843E-02 0.19675964E+03</pdfrwt>
<totfact> 0.33652950E+03</totfact>
</mgrwt>
</event>
<event>
12    1  0.4404304E-002  0.2057918E+03  0.7546771E-02  0.1144942E+00
         -1   -1    0    0    0  501 -0.00000000000E+00  0.00000000000E+00  0.32336604842E+03  0.32336604842E+03  0.00000000000E+00 0.  1.
          1   -1    0    0  502    0  0.00000000000E+00 -0.00000000000E+00 -0.13723478104E+03  0.13723478104E+03  0.00000000000E+00 0. -1.
          6    2    1    2  502    0  0.50034784481E+02 -0.99015183824E+02  0.43522386291E+02  0.20959002929E+03  0.17241315490E+03 0.  0.
         24    2    3    3    0    0 -0.25703805274E+02 -0.96091020019E+02  0.24803275900E+02  0.13137634886E+03  0.82160652452E+02 0.  0.
         -6    2    1    2    0  501 -0.50034784481E+02  0.99015183824E+02  0.14260888110E+03  0.25101080017E+03  0.17424592549E+03 0.  0.
        -24    2    5    5    0    0  0.11915456884E+02  0.17003647395E+02  0.29599213245E+02  0.98180830793E+02  0.91281213692E+02 0.  0.
          5    1    3    3  502    0  0.75738589755E+02 -0.29241638052E+01  0.18719110391E+02  0.78213680427E+02  0.47000000000E+01 0. -1.
        -11    1    4    4    0    0 -0.98321065157E+01  0.10168449579E+02  0.19126147298E+02  0.23788173444E+02  0.00000000000E+00 0.  1.
         12    1    4    4    0    0 -0.15871698759E+02 -0.10625946960E+03  0.56771286028E+01  0.10758817542E+03  0.00000000000E+00 0. -1.
         -5    1    5    5    0  501 -0.61950241365E+02  0.82011536429E+02  0.11300966785E+03  0.15282996938E+03  0.47000000000E+01 0.  1.
         11    1    6    6    0    0  0.65262477247E+01  0.48380706141E+02  0.41618280524E+02  0.64151117760E+02  0.00000000000E+00 0. -1.
        -12    1    6    6    0    0  0.53892091590E+01 -0.31377058746E+02 -0.12019067279E+02  0.34029713034E+02  0.00000000000E+00 0.  1.
<mgrwt>
<rscale>  2 0.20579180E+03</rscale>
<asrwt>0</asrwt>
<pdfrwt beam="2">  1        1 0.21113043E-01 0.20579180E+03</pdfrwt>
<pdfrwt beam="1">  1       -1 0.49748623E-01 0.20579180E+03</pdfrwt>
<totfact> 0.98383832E+02</totfact>
</mgrwt>
</event>
<event>
12    1  0.4532240E-002  0.1902766E+03  0.7546771E-02  0.1158212E+00
          2   -1    0    0  502    0  0.00000000000E+00  0.00000000000E+00  0.23048526281E+03  0.23048526281E+03  0.00000000000E+00 0.  1.
         -2   -1    0    0    0  501 -0.00000000000E+00 -0.00000000000E+00 -0.15867600534E+03  0.15867600534E+03  0.00000000000E+00 0. -1.
          6    2    1    2  502    0 -0.77211690175E+02 -0.19197738241E+02  0.55378283948E+02  0.19804101055E+03  0.17269420741E+03 0.  0.
         24    2    3    3    0    0 -0.29501277258E+01  0.30298960875E+02  0.65701836558E+02  0.10807785909E+03  0.80233172786E+02 0.  0.
         -6    2    1    2    0  501  0.77211690175E+02  0.19197738241E+02  0.16430973520E+02  0.19112025761E+03  0.17299357712E+03 0.  0.
        -24    2    5    5    0    0  0.15578695779E+02  0.64601056693E+02 -0.20778756232E+02  0.10587507409E+03  0.79760781810E+02 0.  0.
          5    1    3    3  502    0 -0.74261562449E+02 -0.49496699117E+02 -0.10323552610E+02  0.89963151453E+02  0.47000000000E+01 0. -1.
        -13    1    4    4    0    0 -0.15678085914E+02 -0.18749307697E+02  0.48942252635E+02  0.54705420299E+02  0.00000000000E+00 0.  1.
         14    1    4    4    0    0  0.12727958188E+02  0.49048268573E+02  0.16759583922E+02  0.53372438794E+02  0.00000000000E+00 0. -1.
         -5    1    5    5    0  501  0.61632994395E+02 -0.45403318451E+02  0.37209729752E+02  0.85245183517E+02  0.47000000000E+01 0.  1.
         11    1    6    6    0    0  0.20674406756E+02  0.14017717710E+02 -0.43521856089E+02  0.50180468929E+02  0.00000000000E+00 0. -1.
        -12    1    6    6    0    0 -0.50957109769E+01  0.50583338982E+02  0.22743099856E+02  0.55694605161E+02  0.00000000000E+00 0.  1.
<mgrwt>
<rscale>  2 0.19027663E+03</rscale>
<asrwt>0</asrwt>
<pdfrwt beam="1">  1        2 0.35459271E-01 0.19027663E+03</pdfrwt>
<pdfrwt beam="2">  1       -2 0.24411693E-01 0.19027663E+03</pdfrwt>
<totfact> 0.21321130E+03</totfact>
</mgrwt>
</event>
<event>
12    1  0.4404304E-002  0.2241077E+03  0.7546771E-02  0.1130857E+00
          1   -1    0    0  502    0  0.00000000000E+00  0.00000000000E+00  0.14767642945E+03  0.14767642945E+03  0.00000000000E+00 0. -1.
         -1   -1    0    0    0  501 -0.00000000000E+00 -0.00000000000E+00 -0.35188815562E+03  0.35188815562E+03  0.00000000000E+00 0.  1.
          6    2    1    2  502    0 -0.73416759781E+02 -0.12183755657E+03 -0.14775319150E+03  0.26828618490E+03  0.17295103527E+03 0.  0.
         24    2    3    3    0    0 -0.10812340722E+03 -0.13050387718E+03 -0.11120567165E+03  0.21692990294E+03  0.77265440115E+02 0.  0.
         -6    2    1    2    0  501  0.73416759781E+02  0.12183755657E+03 -0.56458534674E+02  0.23127840017E+03  0.17340046552E+03 0.  0.
        -24    2    5    5    0    0  0.12700825036E+02  0.13110348463E+03 -0.10813603066E+02  0.15461138030E+03  0.80239081922E+02 0.  0.
          5    1    3    3  502    0  0.34706647434E+02  0.86663206111E+01 -0.36547519851E+02  0.51356281956E+02  0.47000000000E+01 0. -1.
        -11    1    4    4    0    0 -0.29047190289E+02 -0.27393272382E+02 -0.70044415615E+02  0.80624752988E+02  0.00000000000E+00 0.  1.
         12    1    4    4    0    0 -0.79076216927E+02 -0.10311060480E+03 -0.41161256032E+02  0.13630514996E+03  0.00000000000E+00 0. -1.
         -5    1    5    5    0  501  0.60715934745E+02 -0.92659280605E+01 -0.45644931608E+02  0.76667019874E+02  0.47000000000E+01 0.  1.
         11    1    6    6    0    0  0.25762637832E+01  0.38795800200E+02  0.33864477269E+02  0.51561168227E+02  0.00000000000E+00 0. -1.
        -12    1    6    6    0    0  0.10124561253E+02  0.92307684433E+02 -0.44678080335E+02  0.10305021207E+03  0.00000000000E+00 0.  1.
<mgrwt>
<rscale>  2 0.22410766E+03</rscale>
<asrwt>0</asrwt>
<pdfrwt beam="1">  1        1 0.22719451E-01 0.22410766E+03</pdfrwt>
<pdfrwt beam="2">  1       -1 0.54136639E-01 0.22410766E+03</pdfrwt>
<totfact> 0.76611439E+02</totfact>
</mgrwt>
</event>
<event>
12    1  0.4404304E-002  0.2292842E+03  0.7546771E-02  0.1127145E+00
          2   -1    0    0  502    0  0.00000000000E+00  0.00000000000E+00  0.77469250201E+03  0.77469250201E+03  0.00000000000E+00 0. -1.
         -2   -1    0    0    0  501 -0.00000000000E+00 -0.00000000000E+00 -0.78485691194E+02  0.78485691194E+02  0.00000000000E+00 0.  1.
          6    2    1    2  502    0 -0.12769904353E+02  0.14872282981E+03  0.19136947615E+03  0.29878247350E+03  0.17426169833E+03 0.  0.
         24    2    3    3    0    0  0.36214129765E+02  0.14834149916E+03  0.11120483009E+03  0.20471844483E+03  0.78907945437E+02 0.  0.
         -6    2    1    2    0  501  0.12769904353E+02 -0.14872282981E+03  0.50483733467E+03  0.55439571970E+03  0.17381694102E+03 0.  0.
        -24    2    5    5    0    0  0.22069163616E+02 -0.16083988261E+03  0.31081756980E+03  0.35971891485E+03  0.80209850874E+02 0.  0.
          5    1    3    3  502    0 -0.48984034118E+02  0.38133065387E+00  0.80164646058E+02  0.94064028667E+02  0.47000000000E+01 0. -1.
        -11    1    4    4    0    0  0.53090766165E+02  0.87117844422E+02  0.40728403361E+02  0.10984967505E+03  0.00000000000E+00 0.  1.
         12    1    4    4    0    0 -0.16876636400E+02  0.61223654734E+02  0.70476426732E+02  0.94868769783E+02  0.00000000000E+00 0. -1.
         -5    1    5    5    0  501 -0.92992592636E+01  0.12117052804E+02  0.19401976486E+03  0.19467680486E+03  0.47000000000E+01 0.  1.
         11    1    6    6    0    0 -0.27704829622E+02 -0.73037912826E+02  0.10937101743E+03  0.13440280409E+03  0.00000000000E+00 0. -1.
        -12    1    6    6    0    0  0.49773993238E+02 -0.87801969788E+02  0.20144655237E+03  0.22531611075E+03  0.00000000000E+00 0.  1.
<mgrwt>
<rscale>  2 0.22928416E+03</rscale>
<asrwt>0</asrwt>
<pdfrwt beam="1">  1        2 0.11918346E+00 0.22928416E+03</pdfrwt>
<pdfrwt beam="2">  1       -2 0.12074722E-01 0.22928416E+03</pdfrwt>
<totfact> 0.18046822E+03</totfact>
</mgrwt>
</event>
<event>
12    1  0.4404304E-002  0.2075901E+03  0.7546771E-02  0.1143489E+00
          1   -1    0    0  502    0  0.00000000000E+00  0.00000000000E+00  0.81972460080E+03  0.81972460080E+03  0.00000000000E+00 0.  1.
         -1   -1    0    0    0  501 -0.00000000000E+00 -0.00000000000E+00 -0.62757000258E+02  0.62757000258E+02  0.00000000000E+00 0. -1.
          6    2    1    2  502    0 -0.93638505385E+02  0.65550613984E+02  0.55669672906E+03  0.59424471780E+03  0.17363894669E+03 0.  0.
         24    2    3    3    0    0 -0.10217178340E+03  0.10509723282E+03  0.44235608115E+03  0.47286668989E+03  0.80246509020E+02 0.  0.
         -6    2    1    2    0  501  0.93638505385E+02 -0.65550613984E+02  0.20027087148E+03  0.28823688325E+03  0.17293648030E+03 0.  0.
        -24    2    5    5    0    0  0.99338541705E+02 -0.20865873020E+01  0.83790804832E+02  0.15538407364E+03  0.85151697872E+02 0.  0.
          5    1    3    3  502    0  0.85332780185E+01 -0.39546618837E+02  0.11434064791E+03  0.12137802791E+03  0.47000000000E+01 0. -1.
        -11    1    4    4    0    0 -0.95327742908E+02  0.59192560412E+02  0.37221065325E+03  0.38875687540E+03  0.00000000000E+00 0.  1.
         12    1    4    4    0    0 -0.68440404954E+01  0.45904672409E+02  0.70145427901E+02  0.84109814496E+02  0.00000000000E+00 0. -1.
         -5    1    5    5    0  501 -0.57000363202E+01 -0.63464026682E+02  0.11648006665E+03  0.13285280962E+03  0.47000000000E+01 0.  1.
         11    1    6    6    0    0  0.39298221468E+02  0.79456661956E+01 -0.12032924531E+02  0.41860185077E+02  0.00000000000E+00 0. -1.
        -12    1    6    6    0    0  0.60040320237E+02 -0.10032253498E+02  0.95823729364E+02  0.11352388856E+03  0.00000000000E+00 0.  1.
<mgrwt>
<rscale>  2 0.20759007E+03</rscale>
<asrwt>0</asrwt>
<pdfrwt beam="1">  1        1 0.12611147E+00 0.20759007E+03</pdfrwt>
<pdfrwt beam="2">  1       -1 0.96549237E-02 0.20759007E+03</pdfrwt>
<totfact> 0.14268149E+03</totfact>
</mgrwt>
</event>
<event>
12    1  0.4404304E-002  0.1931933E+03  0.7546771E-02  0.1155612E+00
          2   -1    0    0  502    0  0.00000000000E+00  0.00000000000E+00  0.34689656634E+04  0.34689656634E+04  0.00000000000E+00 0. -1.
         -2   -1    0    0    0  501 -0.00000000000E+00 -0.00000000000E+00 -0.10778859059E+02  0.10778859059E+02  0.00000000000E+00 0.  1.
          6    2    1    2  502    0 -0.77225944094E+02 -0.37535896456E+02  0.18063466057E+04  0.18166867322E+04  0.17346421303E+03 0.  0.
         24    2    3    3    0    0 -0.49729579251E+02  0.37246043966E+02  0.13140241570E+04  0.13179364217E+04  0.80228597259E+02 0.  0.
         -6    2    1    2    0  501  0.77225944094E+02  0.37535896456E+02  0.16518401987E+04  0.16630577902E+04  0.17266262423E+03 0.  0.
        -24    2    5    5    0    0  0.81258765134E+02 -0.18815943513E+02  0.14064230805E+04  0.14111779669E+04  0.80251768181E+02 0.  0.
          5    1    3    3  502    0 -0.27496364843E+02 -0.74781940422E+02  0.49232244871E+03  0.49875031047E+03  0.47000000000E+01 0. -1.
        -13    1    4    4    0    0 -0.36947542908E+02 -0.17487582020E+02  0.37251856295E+03  0.37475460797E+03  0.00000000000E+00 0.  1.
         14    1    4    4    0    0 -0.12782036342E+02  0.54733625986E+02  0.94150559401E+03  0.94318181377E+03  0.00000000000E+00 0. -1.
         -5    1    5    5    0  501 -0.40328210402E+01  0.56351839969E+02  0.24541711816E+03  0.25187982333E+03  0.47000000000E+01 0.  1.
         11    1    6    6    0    0  0.89695148409E+02  0.71388897996E+00  0.12635397231E+04  0.12667195274E+04  0.00000000000E+00 0. -1.
        -12    1    6    6    0    0 -0.84363832747E+01 -0.19529832493E+02  0.14288335739E+03  0.14445843949E+03  0.00000000000E+00 0.  1.
<mgrwt>
<rscale>  2 0.19319327E+03</rscale>
<asrwt>0</asrwt>
<pdfrwt beam="1">  1        2 0.53368613E+00 0.19319327E+03</pdfrwt>
<pdfrwt beam="2">  1       -2 0.16582888E-02 0.19319327E+03</pdfrwt>
<totfact> 0.11029606E+03</totfact>
</mgrwt>
</event>
<event>
12    1  0.4404304E-002  0.2053664E+03  0.7546771E-02  0.1145289E+00
          1   -1    0    0  502    0  0.00000000000E+00  0.00000000000E+00  0.61885134302E+03  0.61885134302E+03  0.00000000000E+00 0.  1.
         -1   -1    0    0    0  501 -0.00000000000E+00 -0.00000000000E+00 -0.71290769086E+02  0.71290769086E+02  0.00000000000E+00 0. -1.
          6    2    1    2  502    0 -0.23006418230E+02  0.10753609683E+03  0.20106860816E+03  0.28724333222E+03  0.17316708497E+03 0.  0.
         24    2    3    3    0    0 -0.15997450653E+00  0.36931005511E+02  0.18389320470E+02  0.90010345472E+02  0.79998565142E+02 0.  0.
         -6    2    1    2    0  501  0.23006418230E+02 -0.10753609683E+03  0.34649196577E+03  0.40289877988E+03  0.17371654234E+03 0.  0.
        -24    2    5    5    0    0  0.83853237059E+02 -0.69938950660E+02  0.20713145072E+03  0.24618463273E+03  0.76030344802E+02 0.  0.
          5    1    3    3  502    0 -0.22846443724E+02  0.70605091322E+02  0.18267928769E+03  0.19723298675E+03  0.47000000000E+01 0. -1.
        -11    1    4    4    0    0  0.21830439667E+02  0.43110324932E+02  0.36745412296E+02  0.60706618557E+02  0.00000000000E+00 0.  1.
         12    1    4    4    0    0 -0.21990414173E+02 -0.61793194204E+01 -0.18356091826E+02  0.29303726915E+02  0.00000000000E+00 0. -1.
         -5    1    5    5    0  501 -0.60846818828E+02 -0.37597146173E+02  0.13936051505E+03  0.15671414715E+03  0.47000000000E+01 0.  1.
         13    1    6    6    0    0 -0.11618008060E+02 -0.24932362793E+02  0.42771718387E+02  0.50852932260E+02  0.00000000000E+00 0. -1.
        -14    1    6    6    0    0  0.95471245118E+02 -0.45006587867E+02  0.16435973233E+03  0.19533170047E+03  0.00000000000E+00 0.  1.
<mgrwt>
<rscale>  2 0.20536635E+03</rscale>
<asrwt>0</asrwt>
<pdfrwt beam="1">  1        1 0.95207895E-01 0.20536635E+03</pdfrwt>
<pdfrwt beam="2">  1       -1 0.10967811E-01 0.20536635E+03</pdfrwt>
<totfact> 0.17681187E+03</totfact>
</mgrwt>
</event>
<event>
12    1  0.4404304E-002  0.1818247E+03  0.7546771E-02  0.1166049E+00
          1   -1    0    0  502    0  0.00000000000E+00  0.00000000000E+00  0.27528725440E+03  0.27528725440E+03  0.00000000000E+00 0. -1.
         -1   -1    0    0    0  501 -0.00000000000E+00 -0.00000000000E+00 -0.12009584056E+03  0.12009584056E+03  0.00000000000E+00 0.  1.
          6    2    1    2  502    0 -0.24990564225E+02 -0.50496302126E+02  0.77531978375E+02  0.19696160372E+03  0.17207051125E+03 0.  0.
         24    2    3    3    0    0 -0.42271349481E+01  0.35112400739E+02  0.63481178882E+02  0.10763364076E+03  0.79400196439E+02 0.  0.
         -6    2    1    2    0  501  0.24990564225E+02  0.50496302126E+02  0.77659435460E+02  0.19842149124E+03  0.17368274364E+03 0.  0.
        -24    2    5    5    0    0  0.19863557149E+02  0.61681985650E+02 -0.16550079492E+02  0.10329563552E+03  0.78720104998E+02 0.  0.
          5    1    3    3  502    0 -0.20763429277E+02 -0.85608702864E+02  0.14050799493E+02  0.89327962967E+02  0.47000000000E+01 0. -1.
        -13    1    4    4    0    0 -0.19136735492E+02 -0.82583284301E+00 -0.12078441096E+02  0.22644765057E+02  0.00000000000E+00 0.  1.
         14    1    4    4    0    0  0.14909600544E+02  0.35938233582E+02  0.75559619977E+02  0.84988875698E+02  0.00000000000E+00 0. -1.
         -5    1    5    5    0  501  0.51270070762E+01 -0.11185683525E+02  0.94209514952E+02  0.95125855712E+02  0.47000000000E+01 0.  1.
         11    1    6    6    0    0 -0.11968132083E+02  0.66920491850E+02 -0.22799058834E+01  0.68020485045E+02  0.00000000000E+00 0. -1.
        -12    1    6    6    0    0  0.31831689232E+02 -0.52385061996E+01 -0.14270173608E+02  0.35275150479E+02  0.00000000000E+00 0.  1.
<mgrwt>
<rscale>  2 0.18182466E+03</rscale>
<asrwt>0</asrwt>
<pdfrwt beam="1">  1        1 0.42351885E-01 0.18182466E+03</pdfrwt>
<pdfrwt beam="2">  1       -1 0.18476283E-01 0.18182466E+03</pdfrwt>
<totfact> 0.22106926E+03</totfact>
</mgrwt>
</event>
<event>
12    1  0.4404304E-002  0.1954766E+03  0.7546771E-02  0.1153613E+00
          1   -1    0    0  502    0  0.00000000000E+00  0.00000000000E+00  0.33053516245E+03  0.33053516245E+03  0.00000000000E+00 0.  1.
         -1   -1    0    0    0  501 -0.00000000000E+00 -0.00000000000E+00 -0.13904619493E+03  0.13904619493E+03  0.00000000000E+00 0. -1.
          6    2    1    2  502    0 -0.43803911751E+01  0.90362253640E+02  0.19192442191E+03  0.27355423735E+03  0.17266271264E+03 0.  0.
         24    2    3    3    0    0  0.55874834692E+02  0.31068552319E+02  0.67451638078E+02  0.12301520860E+03  0.80596314886E+02 0.  0.
         -6    2    1    2    0  501  0.43803911751E+01 -0.90362253640E+02 -0.43545439203E+00  0.19602712002E+03  0.17390203407E+03 0.  0.
        -24    2    5    5    0    0 -0.66456036468E+02 -0.68011854055E+02  0.27926484315E+01  0.12152980134E+03  0.75628543906E+02 0.  0.
          5    1    3    3  502    0 -0.60255225867E+02  0.59293701321E+02  0.12447278383E+03  0.15053902875E+03  0.47000000000E+01 0. -1.
        -11    1    4    4    0    0 -0.38095338384E+00  0.44677787986E+02  0.34188256671E+02  0.56259103788E+02  0.00000000000E+00 0.  1.
         12    1    4    4    0    0  0.56255788075E+02 -0.13609235667E+02  0.33263381408E+02  0.66756104815E+02  0.00000000000E+00 0. -1.
         -5    1    5    5    0  501  0.70836427643E+02 -0.22350399585E+02 -0.32281028236E+01  0.74497318681E+02  0.47000000000E+01 0.  1.
         11    1    6    6    0    0 -0.22561640886E+02 -0.73285236196E+02 -0.40836343126E+01  0.76788212331E+02  0.00000000000E+00 0. -1.
        -12    1    6    6    0    0 -0.43894395582E+02  0.52733821406E+01  0.68762827441E+01  0.44741589009E+02  0.00000000000E+00 0.  1.
<mgrwt>
<rscale>  2 0.19547656E+03</rscale>
<asrwt>0</asrwt>
<pdfrwt beam="1">  1        1 0.50851563E-01 0.19547656E+03</pdfrwt>
<pdfrwt beam="2">  1       -1 0.21391722E-01 0.19547656E+03</pdfrwt>
<totfact> 0.13899260E+03</totfact>
</mgrwt>
</event>
<event>
12    1  0.4404304E-002  0.1866546E+03  0.7546771E-02  0.1161514E+00
         -2   -1    0    0    0  501 -0.00000000000E+00  0.00000000000E+00  0.12485910796E+03  0.12485910796E+03  0.00000000000E+00 0. -1.
          2   -1    0    0  502    0  0.00000000000E+00 -0.00000000000E+00 -0.68921126519E+03  0.68921126519E+03  0.00000000000E+00 0.  1.
          6    2    1    2  502    0  0.54415023088E+02 -0.44900614898E+02 -0.59565144242E+03  0.62395435315E+03  0.17187592619E+03 0.  0.
         24    2    3    3    0    0  0.55888994362E+02 -0.71303128179E+02 -0.58075969856E+03  0.59324410512E+03  0.80305821744E+02 0.  0.
         -6    2    1    2    0  501 -0.54415023088E+02  0.44900614898E+02  0.31299285189E+02  0.19011602001E+03  0.17374520383E+03 0.  0.
        -24    2    5    5    0    0 -0.92699385056E+02  0.62790211673E+02  0.41721537249E+02  0.14633881838E+03  0.84490096600E+02 0.  0.
          5    1    3    3  502    0 -0.14739712747E+01  0.26402513281E+02 -0.14891743854E+02  0.30710248028E+02  0.47000000000E+01 0. -1.
        -13    1    4    4    0    0  0.28738965045E+02  0.10613153555E+02 -0.22964685625E+03  0.23168134523E+03  0.00000000000E+00 0.  1.
         14    1    4    4    0    0  0.27150029317E+02 -0.81916281734E+02 -0.35111284231E+03  0.36156275989E+03  0.00000000000E+00 0. -1.
         -5    1    5    5    0  501  0.38284361969E+02 -0.17889596775E+02 -0.10422252061E+02  0.43777201625E+02  0.47000000000E+01 0.  1.
         13    1    6    6    0    0 -0.26214675788E+02  0.21588715916E+01  0.49467751666E+02  0.56026140400E+02  0.00000000000E+00 0. -1.
        -14    1    6    6    0    0 -0.66484709268E+02  0.60631340082E+02 -0.77462144171E+01  0.90312677982E+02  0.00000000000E+00 0.  1.
<mgrwt>
<rscale>  2 0.18665457E+03</rscale>
<asrwt>0</asrwt>
<pdfrwt beam="2">  1        2 0.10603250E+00 0.18665457E+03</pdfrwt>
<pdfrwt beam="1">  1       -2 0.19209094E-01 0.18665457E+03</pdfrwt>
<totfact> 0.96514259E+02</totfact>
</mgrwt>
</event>
<event>
12    1  0.4404304E-002  0.2330635E+03  0.7546771E-02  0.1124502E+00
          2   -1    0    0  502    0  0.00000000000E+00  0.00000000000E+00  0.31227307109E+03  0.31227307109E+03  0.00000000000E+00 0. -1.
         -2   -1    0    0    0  501 -0.00000000000E+00 -0.00000000000E+00 -0.20132532013E+03  0.20132532013E+03  0.00000000000E+00 0.  1.
          6    2    1    2  502    0  0.88864371601E+02 -0.12397989410E+03  0.15065971755E+03  0.27967964863E+03  0.17959528024E+03 0.  0.
         24    2    3    3    0    0  0.36817632273E+02 -0.27439728587E+01  0.11042711318E+02  0.87528640038E+02  0.78589146327E+02 0.  0.
         -6    2    1    2    0  501 -0.88864371601E+02  0.12397989410E+03 -0.39711966585E+02  0.23391874259E+03  0.17283821095E+03 0.  0.
        -24    2    5    5    0    0 -0.98543376646E+02  0.14023956699E+03  0.20717557130E+01  0.18780985462E+03  0.76748394711E+02 0.  0.
          5    1    3    3  502    0  0.52046739327E+02 -0.12123592124E+03  0.13961700624E+03  0.19215100859E+03  0.47000000000E+01 0. -1.
        -13    1    4    4    0    0  0.56104013522E+02 -0.19932984486E+02  0.27635979408E+00  0.59540411306E+02  0.00000000000E+00 0.  1.
         14    1    4    4    0    0 -0.19286381249E+02  0.17189011627E+02  0.10766351524E+02  0.27988228731E+02  0.00000000000E+00 0. -1.
         -5    1    5    5    0  501  0.96790050451E+01 -0.16259672888E+02 -0.41783722299E+02  0.46108887974E+02  0.47000000000E+01 0.  1.
         13    1    6    6    0    0 -0.59378353889E+02  0.77536003503E+02  0.39012362653E+02  0.10516456242E+03  0.00000000000E+00 0. -1.
        -14    1    6    6    0    0 -0.39165022757E+02  0.62703563482E+02 -0.36940606940E+02  0.82645292195E+02  0.00000000000E+00 0.  1.
<mgrwt>
<rscale>  2 0.23306351E+03</rscale>
<asrwt>0</asrwt>
<pdfrwt beam="1">  1        2 0.48042011E-01 0.23306351E+03</pdfrwt>
<pdfrwt beam="2">  1       -2 0.30973126E-01 0.23306351E+03</pdfrwt>
<totfact> 0.10087535E+03</totfact>
</mgrwt>
</event>
<event>
12    1  0.4404304E-002  0.3005827E+03  0.7546771E-02  0.1084950E+00
         -2   -1    0    0    0  501 -0.00000000000E+00  0.00000000000E+00  0.16995767902E+03  0.16995767902E+03  0.00000000000E+00 0.  1.
          2   -1    0    0  502    0  0.00000000000E+00 -0.00000000000E+00 -0.70253045404E+03  0.70253045404E+03  0.00000000000E+00 0. -1.
          6    2    1    2  502    0 -0.19155247310E+03  0.15188641651E+03 -0.50472799566E+02  0.30385516777E+03  0.17325884109E+03 0.  0.
         24    2    3    3    0    0 -0.20927447313E+03  0.12914787837E+03 -0.57364539136E+02  0.27384356208E+03  0.10594633807E+03 0.  0.
         -6    2    1    2    0  501  0.19155247310E+03 -0.15188641651E+03 -0.48209997546E+03  0.56863296529E+03  0.17652543557E+03 0.  0.
        -24    2    5    5    0    0  0.55693770223E+02 -0.58962553681E+01 -0.11540305916E+03  0.15118903765E+03  0.80023103997E+02 0.  0.
          5    1    3    3  502    0  0.17722000031E+02  0.22738538141E+02  0.68917395700E+01  0.30011605691E+02  0.47000000000E+01 0. -1.
        -13    1    4    4    0    0 -0.78491343050E+02  0.83185099503E+02  0.18437850274E+02  0.11584733936E+03  0.00000000000E+00 0.  1.
         14    1    4    4    0    0 -0.13078313008E+03  0.45962778865E+02 -0.75802389409E+02  0.15799622273E+03  0.00000000000E+00 0. -1.
         -5    1    5    5    0  501  0.13585870288E+03 -0.14599016114E+03 -0.36669691630E+03  0.41744392764E+03  0.47000000000E+01 0.  1.
         11    1    6    6    0    0  0.67992680833E+02 -0.10728933100E+02 -0.11901761014E+03  0.13748929477E+03  0.00000000000E+00 0. -1.
        -12    1    6    6    0    0 -0.12298910610E+02  0.48326777323E+01  0.36145509802E+01  0.13699742883E+02  0.00000000000E+00 0.  1.
<mgrwt>
<rscale>  2 0.30058269E+03</rscale>
<asrwt>0</asrwt>
<pdfrwt beam="2">  1        2 0.10808161E+00 0.30058269E+03</pdfrwt>
<pdfrwt beam="1">  1       -2 0.26147336E-01 0.30058269E+03</pdfrwt>
<totfact> 0.54983145E+02</totfact>
</mgrwt>
</event>
<event>
12    1  0.4404304E-002  0.2998741E+03  0.7546771E-02  0.1085304E+00
          4   -1    0    0  502    0  0.00000000000E+00  0.00000000000E+00  0.19337141573E+03  0.19337141573E+03  0.00000000000E+00 0.  1.
         -4   -1    0    0    0  501 -0.00000000000E+00 -0.00000000000E+00 -0.46624322036E+03  0.46624322036E+03  0.00000000000E+00 0. -1.
          6    2    1    2  502    0  0.21832511100E+03  0.11125981891E+03 -0.11979524181E+03  0.32321179416E+03  0.17340808092E+03 0.  0.
         24    2    3    3    0    0  0.31137731827E+02  0.46724596862E+02 -0.67635309508E+02  0.11840296051E+03  0.79321999908E+02 0.  0.
         -6    2    1    2    0  501 -0.21832511100E+03 -0.11125981891E+03 -0.15307656282E+03  0.33640284193E+03  0.17230738980E+03 0.  0.
        -24    2    5    5    0    0 -0.80692123966E+02  0.99169342346E+01 -0.63093041143E+02  0.13208502872E+03  0.82801923386E+02 0.  0.
          5    1    3    3  502    0  0.18718737917E+03  0.64535222047E+02 -0.52159932298E+02  0.20480883365E+03  0.47000000000E+01 0. -1.
        -11    1    4    4    0    0  0.11180394931E+02  0.59889194741E+02 -0.18354119951E+02  0.63628536025E+02  0.00000000000E+00 0.  1.
         12    1    4    4    0    0  0.19957336896E+02 -0.13164597878E+02 -0.49281189557E+02  0.54774424482E+02  0.00000000000E+00 0. -1.
         -5    1    5    5    0  501 -0.13763298703E+03 -0.12117675314E+03 -0.89983521678E+02  0.20431781321E+03  0.47000000000E+01 0.  1.
         11    1    6    6    0    0 -0.53897110581E+02  0.33722808357E+02 -0.71078203272E+02  0.95363710670E+02  0.00000000000E+00 0. -1.
        -12    1    6    6    0    0 -0.26795013385E+02 -0.23805874122E+02  0.79851621296E+01  0.36721318049E+02  0.00000000000E+00 0.  1.
<mgrwt>
<rscale>  2 0.29987414E+03</rscale>
<asrwt>0</asrwt>
<pdfrwt beam="1">  1        4 0.29749449E-01 0.29987414E+03</pdfrwt>
<pdfrwt beam="2">  1       -4 0.71729725E-01 0.29987414E+03</pdfrwt>
<totfact> 0.36159590E+01</totfact>
</mgrwt>
</event>
<event>
12    1  0.4404304E-002  0.1916618E+03  0.7546771E-02  0.1156971E+00
          2   -1    0    0  502    0  0.00000000000E+00  0.00000000000E+00  0.66557917658E+03  0.66557917658E+03  0.00000000000E+00 0. -1.
         -2   -1    0    0    0  501 -0.00000000000E+00 -0.00000000000E+00 -0.56408790171E+02  0.56408790171E+02  0.00000000000E+00 0.  1.
          6    2    1    2  502    0 -0.17756851197E+02  0.82552590882E+02  0.35903225165E+03  0.40742581004E+03  0.17309360743E+03 0.  0.
         24    2    3    3    0    0 -0.34898838699E+02  0.69244211921E+02  0.99417032963E+02  0.14686274193E+03  0.75314199836E+02 0.  0.
         -6    2    1    2    0  501  0.17756851197E+02 -0.82552590882E+02  0.25013813476E+03  0.31456215671E+03  0.17102639548E+03 0.  0.
        -24    2    5    5    0    0  0.47831399180E+02  0.79475051722E+01  0.13997898401E+03  0.16878193064E+03  0.80883982090E+02 0.  0.
          5    1    3    3  502    0  0.17141987502E+02  0.13308378961E+02  0.25961521869E+03  0.26056306811E+03  0.47000000000E+01 0. -1.
        -13    1    4    4    0    0 -0.40455108776E+02  0.26524040879E+02  0.12668705233E+02  0.50006366224E+02  0.00000000000E+00 0.  1.
         14    1    4    4    0    0  0.55562700769E+01  0.42720171042E+02  0.86748327730E+02  0.96856375706E+02  0.00000000000E+00 0. -1.
         -5    1    5    5    0  501 -0.30074547983E+02 -0.90500096054E+02  0.11015915074E+03  0.14578022608E+03  0.47000000000E+01 0.  1.
         13    1    6    6    0    0  0.55616673097E+02 -0.70961541550E+01  0.14107454291E+03  0.15180776129E+03  0.00000000000E+00 0. -1.
        -14    1    6    6    0    0 -0.77852739174E+01  0.15043659327E+02 -0.10955588938E+01  0.16974169353E+02  0.00000000000E+00 0.  1.
<mgrwt>
<rscale>  2 0.19166175E+03</rscale>
<asrwt>0</asrwt>
<pdfrwt beam="1">  1        2 0.10239679E+00 0.19166175E+03</pdfrwt>
<pdfrwt beam="2">  1       -2 0.86782759E-02 0.19166175E+03</pdfrwt>
<totfact> 0.36581898E+03</totfact>
</mgrwt>
</event>
<event>
12    1  0.4404304E-002  0.1878921E+03  0.7546771E-02  0.1160376E+00
          2   -1    0    0  502    0  0.00000000000E+00  0.00000000000E+00  0.44568426877E+03  0.44568426877E+03  0.00000000000E+00 0.  1.
         -2   -1    0    0    0  501 -0.00000000000E+00 -0.00000000000E+00 -0.80207098413E+02  0.80207098413E+02  0.00000000000E+00 0. -1.
          6    2    1    2  502    0  0.18912309062E+02 -0.71691543631E+02  0.21215386492E+03  0.28348062053E+03  0.17278497316E+03 0.  0.
         24    2    3    3    0    0  0.16386290684E+01 -0.11602182705E+03  0.16559174056E+03  0.21674475705E+03  0.78063536365E+02 0.  0.
         -6    2    1    2    0  501 -0.18912309062E+02  0.71691543631E+02  0.15332330543E+03  0.24241074665E+03  0.17250385863E+03 0.  0.
        -24    2    5    5    0    0  0.44662205669E+02  0.80517369233E+02  0.11543123517E+03  0.16772799690E+03  0.79564763119E+02 0.  0.
          5    1    3    3  502    0  0.17273679994E+02  0.44330283422E+02  0.46562124362E+02  0.66735863476E+02  0.47000000000E+01 0. -1.
        -11    1    4    4    0    0 -0.53419826420E+01  0.82154015263E+01  0.23900228908E+00  0.98023835305E+01  0.00000000000E+00 0.  1.
         12    1    4    4    0    0  0.69806117104E+01 -0.12423722858E+03  0.16535273827E+03  0.20694237352E+03  0.00000000000E+00 0. -1.
         -5    1    5    5    0  501 -0.63574514731E+02 -0.88258256020E+01  0.37892070264E+02  0.74682749747E+02  0.47000000000E+01 0.  1.
         13    1    6    6    0    0 -0.19483386968E+01 -0.13904830638E+02  0.44209577232E+01  0.14720231178E+02  0.00000000000E+00 0. -1.
        -14    1    6    6    0    0  0.46610544365E+02  0.94422199871E+02  0.11101027744E+03  0.15300776573E+03  0.00000000000E+00 0.  1.
<mgrwt>
<rscale>  2 0.18789208E+03</rscale>
<asrwt>0</asrwt>
<pdfrwt beam="1">  1        2 0.68566809E-01 0.18789208E+03</pdfrwt>
<pdfrwt beam="2">  1       -2 0.12339554E-01 0.18789208E+03</pdfrwt>
<totfact> 0.32907724E+03</totfact>
</mgrwt>
</event>
<event>
12    1  0.4404304E-002  0.1740676E+03  0.7546771E-02  0.1173671E+00
         -2   -1    0    0    0  501 -0.00000000000E+00  0.00000000000E+00  0.67627720402E+02  0.67627720402E+02  0.00000000000E+00 0.  1.
          2   -1    0    0  502    0  0.00000000000E+00 -0.00000000000E+00 -0.54985885519E+03  0.54985885519E+03  0.00000000000E+00 0. -1.
          6    2    1    2  502    0  0.16201720585E+01  0.11305714209E+02 -0.10803638713E+03  0.20470489036E+03  0.17349866588E+03 0.  0.
         24    2    3    3    0    0  0.19748528700E+02  0.61017291865E+02 -0.36078788193E+02  0.11526292978E+03  0.88717245967E+02 0.  0.
         -6    2    1    2    0  501 -0.16201720585E+01 -0.11305714209E+02 -0.37419474766E+03  0.41278168523E+03  0.17388664801E+03 0.  0.
        -24    2    5    5    0    0  0.61356558560E+02 -0.85562704148E+01 -0.15712226517E+03  0.18669280736E+03  0.79554767726E+02 0.  0.
          5    1    3    3  502    0 -0.18128356642E+02 -0.49711577656E+02 -0.71957598938E+02  0.89441960581E+02  0.47000000000E+01 0. -1.
        -11    1    4    4    0    0  0.51502821226E+02  0.56942289411E+02 -0.19528240994E+02  0.79223210702E+02  0.00000000000E+00 0.  1.
         12    1    4    4    0    0 -0.31754292525E+02  0.40750024545E+01 -0.16550547199E+02  0.36039719080E+02  0.00000000000E+00 0. -1.
         -5    1    5    5    0  501 -0.62976730618E+02 -0.27494437942E+01 -0.21707248249E+03  0.22608887787E+03  0.47000000000E+01 0.  1.
         11    1    6    6    0    0  0.23469484890E+02 -0.16130498867E+02 -0.14260176563E+03  0.14541758241E+03  0.00000000000E+00 0. -1.
        -12    1    6    6    0    0  0.37887073670E+02  0.75742284524E+01 -0.14520499543E+02  0.41275224953E+02  0.00000000000E+00 0.  1.
<mgrwt>
<rscale>  2 0.17406765E+03</rscale>
<asrwt>0</asrwt>
<pdfrwt beam="2">  1        2 0.84593665E-01 0.17406765E+03</pdfrwt>
<pdfrwt beam="1">  1       -2 0.10404265E-01 0.17406765E+03</pdfrwt>
<totfact> 0.34151854E+03</totfact>
</mgrwt>
</event>
<event>
12    1  0.4404304E-002  0.2080916E+03  0.7546771E-02  0.1143086E+00
          2   -1    0    0  502    0  0.00000000000E+00  0.00000000000E+00  0.20227058787E+03  0.20227058787E+03  0.00000000000E+00 0.  1.
         -2   -1    0    0    0  501 -0.00000000000E+00 -0.00000000000E+00 -0.24309563080E+03  0.24309563080E+03  0.00000000000E+00 0. -1.
          6    2    1    2  502    0 -0.39071764229E+02 -0.10849144157E+03 -0.97309608109E+02  0.22935433157E+03  0.17273463441E+03 0.  0.
         24    2    3    3    0    0 -0.68345962197E+02 -0.17118447576E+02 -0.29800615745E+02  0.11194242098E+03  0.81724030250E+02 0.  0.
         -6    2    1    2    0  501  0.39071764229E+02  0.10849144157E+03  0.56484565181E+02  0.21601188711E+03  0.17370559466E+03 0.  0.
        -24    2    5    5    0    0  0.86563348739E+02  0.69889398477E+02  0.80251399320E+01  0.13780719271E+03  0.80923903319E+02 0.  0.
          5    1    3    3  502    0  0.29274197967E+02 -0.91372993991E+02 -0.67508992364E+02  0.11741191059E+03  0.47000000000E+01 0. -1.
        -11    1    4    4    0    0 -0.26454239811E+02  0.29829543288E+02  0.47624847968E+01  0.40153576655E+02  0.00000000000E+00 0.  1.
         12    1    4    4    0    0 -0.41891722386E+02 -0.46947990864E+02 -0.34563100541E+02  0.71788844326E+02  0.00000000000E+00 0. -1.
         -5    1    5    5    0  501 -0.47491584509E+02  0.38602043090E+02  0.48459425249E+02  0.78204694395E+02  0.47000000000E+01 0.  1.
         11    1    6    6    0    0  0.46438633131E+02  0.49677043407E+02 -0.34228766653E+02  0.76131227202E+02  0.00000000000E+00 0. -1.
        -12    1    6    6    0    0  0.40124715608E+02  0.20212355070E+02  0.42253906585E+02  0.61675965512E+02  0.00000000000E+00 0.  1.
<mgrwt>
<rscale>  2 0.20809160E+03</rscale>
<asrwt>0</asrwt>
<pdfrwt beam="1">  1        2 0.31118552E-01 0.20809160E+03</pdfrwt>
<pdfrwt beam="2">  1       -2 0.37399328E-01 0.20809160E+03</pdfrwt>
<totfact> 0.11353032E+03</totfact>
</mgrwt>
</event>
<event>
12    1  0.4404304E-002  0.2417904E+03  0.7546771E-02  0.1118606E+00
          1   -1    0    0  502    0  0.00000000000E+00  0.00000000000E+00  0.23360689535E+03  0.23360689535E+03  0.00000000000E+00 0.  1.
         -1   -1    0    0    0  501 -0.00000000000E+00 -0.00000000000E+00 -0.25258471957E+03  0.25258471957E+03  0.00000000000E+00 0. -1.
          6    2    1    2  502    0  0.16716893289E+03 -0.55298452518E+01 -0.32825428849E+02  0.24482755033E+03  0.17574694680E+03 0.  0.
         24    2    3    3    0    0  0.89265267844E+02  0.68866542942E+01 -0.87226450555E+02  0.14888636183E+03  0.80888695206E+02 0.  0.
         -6    2    1    2    0  501 -0.16716893289E+03  0.55298452518E+01  0.13847604622E+02  0.24136406459E+03  0.17346130464E+03 0.  0.
        -24    2    5    5    0    0 -0.40256870145E+02  0.18567724119E+02 -0.42121679750E+02  0.10196783526E+03  0.81595511829E+02 0.  0.
          5    1    3    3  502    0  0.77903665048E+02 -0.12416499546E+02  0.54401021706E+02  0.95941188504E+02  0.47000000000E+01 0. -1.
        -13    1    4    4    0    0 -0.41146503660E+01  0.23938710415E+02 -0.90733358748E+01  0.25929088451E+02  0.00000000000E+00 0.  1.
         14    1    4    4    0    0  0.93379918210E+02 -0.17052056121E+02 -0.78153114680E+02  0.12295727338E+03  0.00000000000E+00 0. -1.
         -5    1    5    5    0  501 -0.12691206275E+03 -0.13037878867E+02  0.55969284371E+02  0.13939622932E+03  0.47000000000E+01 0.  1.
         13    1    6    6    0    0 -0.27314369042E+02 -0.50958404594E-01 -0.64539620720E+02  0.70081666616E+02  0.00000000000E+00 0. -1.
        -14    1    6    6    0    0 -0.12942501102E+02  0.18618682523E+02  0.22417940970E+02  0.31886168648E+02  0.00000000000E+00 0.  1.
<mgrwt>
<rscale>  2 0.24179036E+03</rscale>
<asrwt>0</asrwt>
<pdfrwt beam="1">  1        1 0.35939522E-01 0.24179036E+03</pdfrwt>
<pdfrwt beam="2">  1       -1 0.38859188E-01 0.24179036E+03</pdfrwt>
<totfact> 0.78392166E+02</totfact>
</mgrwt>
</event>
<event>
12    1  0.4404304E-002  0.1763108E+03  0.7546771E-02  0.1171422E+00
          1   -1    0    0  502    0  0.00000000000E+00  0.00000000000E+00  0.34475599967E+03  0.34475599967E+03  0.00000000000E+00 0. -1.
         -1   -1    0    0    0  501 -0.00000000000E+00 -0.00000000000E+00 -0.93221643613E+02  0.93221643613E+02  0.00000000000E+00 0.  1.
          6    2    1    2  502    0 -0.27381556251E+02 -0.24414022853E+02  0.16555915112E+03  0.24201670358E+03  0.17267442821E+03 0.  0.
         24    2    3    3    0    0  0.21623340568E+02 -0.24441995828E+02  0.11645165304E+02  0.80421265136E+02  0.72574031125E+02 0.  0.
         -6    2    1    2    0  501  0.27381556251E+02  0.24414022853E+02  0.85975204931E+02  0.19596093970E+03  0.17222996223E+03 0.  0.
        -24    2    5    5    0    0 -0.25685518082E+02  0.28247236374E+02  0.10659022573E+03  0.13870819316E+03  0.80130109368E+02 0.  0.
          5    1    3    3  502    0 -0.49004896819E+02  0.27972974873E-01  0.15391398582E+03  0.16159543844E+03  0.47000000000E+01 0. -1.
        -13    1    4    4    0    0 -0.22087477210E+02  0.78622778512E+01  0.11396279176E+02  0.26068126928E+02  0.00000000000E+00 0.  1.
         14    1    4    4    0    0  0.43710817778E+02 -0.32304273679E+02  0.24888612810E+00  0.54353138208E+02  0.00000000000E+00 0. -1.
         -5    1    5    5    0  501  0.53067074333E+02 -0.38332135206E+01 -0.20615020795E+02  0.57252746541E+02  0.47000000000E+01 0.  1.
         11    1    6    6    0    0 -0.52463933118E+01 -0.28106818719E+02  0.39107041869E+02  0.48444593352E+02  0.00000000000E+00 0. -1.
        -12    1    6    6    0    0 -0.20439124770E+02  0.56354055093E+02  0.67483183857E+02  0.90263599808E+02  0.00000000000E+00 0.  1.
<mgrwt>
<rscale>  2 0.17631083E+03</rscale>
<asrwt>0</asrwt>
<pdfrwt beam="1">  1        1 0.53039384E-01 0.17631083E+03</pdfrwt>
<pdfrwt beam="2">  1       -1 0.14341791E-01 0.17631083E+03</pdfrwt>
<totfact> 0.24922687E+03</totfact>
</mgrwt>
</event>
<event>
12    1  0.4404304E-002  0.1765137E+03  0.7546771E-02  0.1171220E+00
         -2   -1    0    0    0  501 -0.00000000000E+00  0.00000000000E+00  0.71529760477E+02  0.71529760477E+02  0.00000000000E+00 0.  1.
          2   -1    0    0  502    0  0.00000000000E+00 -0.00000000000E+00 -0.54687415116E+03  0.54687415116E+03  0.00000000000E+00 0. -1.
          6    2    1    2  502    0 -0.24553343068E+02  0.25804814558E+02 -0.99125517078E+02  0.20320202136E+03  0.17377122385E+03 0.  0.
         24    2    3    3    0    0 -0.38550841676E+02 -0.98570630331E+01  0.46956866840E+01  0.92438165199E+02  0.83303276204E+02 0.  0.
         -6    2    1    2    0  501  0.24553343068E+02 -0.25804814558E+02 -0.37621887361E+03  0.41520189028E+03  0.17199771430E+03 0.  0.
        -24    2    5    5    0    0 -0.26715197996E+02 -0.24046349492E+02 -0.11258943725E+03  0.14658669113E+03  0.86714173627E+02 0.  0.
          5    1    3    3  502    0  0.13997498608E+02  0.35661877591E+02 -0.10382120376E+03  0.11076385616E+03  0.47000000000E+01 0. -1.
        -13    1    4    4    0    0 -0.49809632701E+02 -0.20592067791E+02 -0.24616518215E+02  0.59253740259E+02  0.00000000000E+00 0.  1.
         14    1    4    4    0    0  0.11258791025E+02  0.10735004758E+02  0.29312204899E+02  0.33184424939E+02  0.00000000000E+00 0. -1.
         -5    1    5    5    0  501  0.51268541064E+02 -0.17584650658E+01 -0.26362943635E+03  0.26861519915E+03  0.47000000000E+01 0.  1.
         11    1    6    6    0    0  0.77176305188E+01  0.16962740776E+02 -0.83686754896E+02  0.85736627765E+02  0.00000000000E+00 0. -1.
        -12    1    6    6    0    0 -0.34432828515E+02 -0.41009090268E+02 -0.28902682355E+02  0.60850063365E+02  0.00000000000E+00 0.  1.
<mgrwt>
<rscale>  2 0.17651366E+03</rscale>
<asrwt>0</asrwt>
<pdfrwt beam="2">  1        2 0.84134486E-01 0.17651366E+03</pdfrwt>
<pdfrwt beam="1">  1       -2 0.11004578E-01 0.17651366E+03</pdfrwt>
<totfact> 0.31445278E+03</totfact>
</mgrwt>
</event>
<event>
12    1  0.4404304E-002  0.1958476E+03  0.7546771E-02  0.1153290E+00
         -2   -1    0    0    0  501 -0.00000000000E+00  0.00000000000E+00  0.35342669300E+02  0.35342669300E+02  0.00000000000E+00 0.  1.
          2   -1    0    0  502    0  0.00000000000E+00 -0.00000000000E+00 -0.20613574037E+04  0.20613574037E+04  0.00000000000E+00 0. -1.
          6    2    1    2  502    0  0.30659330159E+02 -0.87304021001E+02 -0.29426241155E+03  0.35401683584E+03  0.17371115852E+03 0.  0.
         24    2    3    3    0    0  0.83926079487E+02 -0.81093338912E+02 -0.19036949928E+03  0.23700509978E+03  0.79442775817E+02 0.  0.
         -6    2    1    2    0  501 -0.30659330159E+02  0.87304021001E+02 -0.17317523228E+04  0.17426832372E+04  0.17151317963E+03 0.  0.
        -24    2    5    5    0    0 -0.18738377049E+01  0.80925318142E+02 -0.16721680833E+04  0.16760374269E+04  0.80018367182E+02 0.  0.
          5    1    3    3  502    0 -0.53266749328E+02 -0.62106820883E+01 -0.10389291227E+03  0.11701173606E+03  0.47000000000E+01 0. -1.
        -13    1    4    4    0    0  0.71001823259E+01 -0.11577285453E+02  0.61017187531E+01  0.14888824643E+02  0.00000000000E+00 0.  1.
         14    1    4    4    0    0  0.76825897161E+02 -0.69516053460E+02 -0.19647121803E+03  0.22211627513E+03  0.00000000000E+00 0. -1.
         -5    1    5    5    0  501 -0.28785492454E+02  0.63787028587E+01 -0.59584239502E+02  0.66645810244E+02  0.47000000000E+01 0.  1.
         13    1    6    6    0    0  0.11219431091E+01  0.16913964112E+02 -0.11252973247E+04  0.11254249908E+04  0.00000000000E+00 0. -1.
        -14    1    6    6    0    0 -0.29957808140E+01  0.64011354030E+02 -0.54687075868E+03  0.55061243615E+03  0.00000000000E+00 0.  1.
<mgrwt>
<rscale>  2 0.19584759E+03</rscale>
<asrwt>0</asrwt>
<pdfrwt beam="2">  1        2 0.31713191E+00 0.19584759E+03</pdfrwt>
<pdfrwt beam="1">  1       -2 0.54373337E-02 0.19584759E+03</pdfrwt>
<totfact> 0.11986638E+03</totfact>
</mgrwt>
</event>
<event>
12    1  0.4404304E-002  0.2445115E+03  0.7546771E-02  0.1116823E+00
         -2   -1    0    0    0  501 -0.00000000000E+00  0.00000000000E+00  0.13625150347E+03  0.13625150347E+03  0.00000000000E+00 0.  1.
          2   -1    0    0  502    0  0.00000000000E+00 -0.00000000000E+00 -0.44062491806E+03  0.44062491806E+03  0.00000000000E+00 0. -1.
          6    2    1    2  502    0  0.75410891000E+02  0.15741901877E+03 -0.17166713826E+03  0.30002788737E+03  0.17343464731E+03 0.  0.
         24    2    3    3    0    0  0.65010015507E+02  0.12727982118E+03 -0.45685894106E+02  0.16998976480E+03  0.79892829597E+02 0.  0.
         -6    2    1    2    0  501 -0.75410891000E+02 -0.15741901877E+03 -0.13270627632E+03  0.27684853416E+03  0.16901658244E+03 0.  0.
        -24    2    5    5    0    0 -0.10181775775E+03 -0.80904170932E+02 -0.49963441901E+02  0.16100246734E+03  0.80703830733E+02 0.  0.
          5    1    3    3  502    0  0.10400875492E+02  0.30139197592E+02 -0.12598124415E+03  0.13003812257E+03  0.47000000000E+01 0. -1.
        -11    1    4    4    0    0  0.74446762372E+02  0.69677443331E+02 -0.45403713576E+02  0.11161883239E+03  0.00000000000E+00 0.  1.
         12    1    4    4    0    0 -0.94367468642E+01  0.57602377846E+02 -0.28218053064E+00  0.58370932413E+02  0.00000000000E+00 0. -1.
         -5    1    5    5    0  501  0.26406866748E+02 -0.76514847838E+02 -0.82742834421E+02  0.11584606683E+03  0.47000000000E+01 0.  1.
         11    1    6    6    0    0 -0.18939655505E+02 -0.52091563219E+02 -0.47863707640E+02  0.73233708210E+02  0.00000000000E+00 0. -1.
        -12    1    6    6    0    0 -0.82878102242E+02 -0.28812607713E+02 -0.20997342607E+01  0.87768759126E+02  0.00000000000E+00 0.  1.
<mgrwt>
<rscale>  2 0.24451146E+03</rscale>
<asrwt>0</asrwt>
<pdfrwt beam="2">  1        2 0.67788449E-01 0.24451146E+03</pdfrwt>
<pdfrwt beam="1">  1       -2 0.20961770E-01 0.24451146E+03</pdfrwt>
<totfact> 0.13878917E+03</totfact>
</mgrwt>
</event>
<event>
12    1  0.4404304E-002  0.3029339E+03  0.7546771E-02  0.1083783E+00
         -2   -1    0    0    0  501 -0.00000000000E+00  0.00000000000E+00  0.12385619539E+03  0.12385619539E+03  0.00000000000E+00 0. -1.
          2   -1    0    0  502    0  0.00000000000E+00 -0.00000000000E+00 -0.74697468529E+03  0.74697468529E+03  0.00000000000E+00 0.  1.
          6    2    1    2  502    0 -0.14030142211E+02  0.24868465816E+03 -0.27259614587E+03  0.40767142298E+03  0.17276118280E+03 0.  0.
         24    2    3    3    0    0 -0.30192078844E+02  0.24053353819E+03 -0.28719118323E+03  0.38394898491E+03  0.78550001066E+02 0.  0.
         -6    2    1    2    0  501  0.14030142211E+02 -0.24868465816E+03 -0.35052234403E+03  0.46315945770E+03  0.17207517398E+03 0.  0.
        -24    2    5    5    0    0  0.50067204259E+02 -0.23321076562E+03 -0.24683774126E+03  0.35220587262E+03  0.78905766911E+02 0.  0.
          5    1    3    3  502    0  0.16161936632E+02  0.81511199657E+01  0.14595037367E+02  0.23722438073E+02  0.47000000000E+01 0. -1.
        -11    1    4    4    0    0  0.13066114729E+02  0.10901155471E+02 -0.41643075742E+02  0.44985601051E+02  0.00000000000E+00 0.  1.
         12    1    4    4    0    0 -0.43258193572E+02  0.22963238272E+03 -0.24554810749E+03  0.33896338386E+03  0.00000000000E+00 0. -1.
         -5    1    5    5    0  501 -0.36037062048E+02 -0.15473892536E+02 -0.10368460276E+03  0.11095358508E+03  0.47000000000E+01 0.  1.
         13    1    6    6    0    0 -0.34292317985E+00 -0.14104964755E+03 -0.10566896682E+03  0.17624145715E+03  0.00000000000E+00 0. -1.
        -14    1    6    6    0    0  0.50410127439E+02 -0.92161118068E+02 -0.14116877445E+03  0.17596441547E+03  0.00000000000E+00 0.  1.
<mgrwt>
<rscale>  2 0.30293394E+03</rscale>
<asrwt>0</asrwt>
<pdfrwt beam="2">  1        2 0.11491919E+00 0.30293394E+03</pdfrwt>
<pdfrwt beam="1">  1       -2 0.19054799E-01 0.30293394E+03</pdfrwt>
<totfact> 0.88581385E+02</totfact>
</mgrwt>
</event>
<event>
12    1  0.4404304E-002  0.3613134E+03  0.7546771E-02  0.1058065E+00
         -4   -1    0    0    0  501 -0.00000000000E+00  0.00000000000E+00  0.19889751219E+03  0.19889751219E+03  0.00000000000E+00 0. -1.
          4   -1    0    0  502    0  0.00000000000E+00 -0.00000000000E+00 -0.65743788977E+03  0.65743788977E+03  0.00000000000E+00 0.  1.
          6    2    1    2  502    0 -0.40615934505E+02  0.31472146109E+03 -0.21177954885E+03  0.41864742237E+03  0.17238281452E+03 0.  0.
         24    2    3    3    0    0 -0.28872785115E+02  0.28327214956E+03 -0.23414700206E+03  0.37803518633E+03  0.83719980226E+02 0.  0.
         -6    2    1    2    0  501  0.40615934505E+02 -0.31472146109E+03 -0.24676082874E+03  0.43768797959E+03  0.17314909376E+03 0.  0.
        -24    2    5    5    0    0  0.78368826155E+02 -0.17731603141E+03 -0.19331243702E+03  0.28542388825E+03  0.80712141414E+02 0.  0.
          5    1    3    3  502    0 -0.11743149389E+02  0.31449311529E+02  0.22367453215E+02  0.40612236045E+02  0.47000000000E+01 0. -1.
        -11    1    4    4    0    0  0.25087630429E+02  0.11858111371E+03 -0.11970563726E+03  0.17035348344E+03  0.00000000000E+00 0.  1.
         12    1    4    4    0    0 -0.53960415544E+02  0.16469103585E+03 -0.11444136481E+03  0.20768170288E+03  0.00000000000E+00 0. -1.
         -5    1    5    5    0  501 -0.37752891650E+02 -0.13740542967E+03 -0.53448391720E+02  0.15226409133E+03  0.47000000000E+01 0.  1.
         11    1    6    6    0    0 -0.62830500518E+01 -0.68451189421E+02 -0.41354965229E+02  0.80220167042E+02  0.00000000000E+00 0. -1.
        -12    1    6    6    0    0  0.84651876207E+02 -0.10886484199E+03 -0.15195747179E+03  0.20520372121E+03  0.00000000000E+00 0.  1.
<mgrwt>
<rscale>  2 0.36131345E+03</rscale>
<asrwt>0</asrwt>
<pdfrwt beam="2">  1        4 0.10114429E+00 0.36131345E+03</pdfrwt>
<pdfrwt beam="1">  1       -4 0.30599617E-01 0.36131345E+03</pdfrwt>
<totfact> 0.15880083E+01</totfact>
</mgrwt>
</event>
<event>
12    1  0.4404304E-002  0.2582952E+03  0.7546771E-02  0.1108172E+00
         -1   -1    0    0    0  501 -0.00000000000E+00  0.00000000000E+00  0.15431001281E+03  0.15431001281E+03  0.00000000000E+00 0. -1.
          1   -1    0    0  502    0  0.00000000000E+00 -0.00000000000E+00 -0.55110013308E+03  0.55110013308E+03  0.00000000000E+00 0.  1.
          6    2    1    2  502    0 -0.16665655705E+03 -0.94652448821E+02 -0.36203312630E+03  0.44464859849E+03  0.17294767281E+03 0.  0.
         24    2    3    3    0    0 -0.21967246231E+02 -0.86451896152E+01 -0.15022765322E+03  0.17406424247E+03  0.84691873889E+02 0.  0.
         -6    2    1    2    0  501  0.16665655705E+03  0.94652448821E+02 -0.34756993979E+02  0.26076154739E+03  0.17336390020E+03 0.  0.
        -24    2    5    5    0    0  0.95371455853E+02  0.86158300224E+02 -0.86541755890E+02  0.17211918856E+03  0.74943794066E+02 0.  0.
          5    1    3    3  502    0 -0.14468931082E+03 -0.86007259206E+02 -0.21180547308E+03  0.27058435603E+03  0.47000000000E+01 0. -1.
        -13    1    4    4    0    0 -0.63118014636E+00 -0.38156810589E+02 -0.12246155613E+03  0.12826992365E+03  0.00000000000E+00 0.  1.
         14    1    4    4    0    0 -0.21336066085E+02  0.29511620974E+02 -0.27766097092E+02  0.45794318820E+02  0.00000000000E+00 0. -1.
         -5    1    5    5    0  501  0.71285101199E+02  0.84941485971E+01  0.51784761912E+02  0.88642358834E+02  0.47000000000E+01 0.  1.
         11    1    6    6    0    0  0.13729526115E+00 -0.21915780670E+01  0.10019397590E+02  0.10257201981E+02  0.00000000000E+00 0. -1.
        -12    1    6    6    0    0  0.95234160592E+02  0.88349878291E+02 -0.96561153481E+02  0.16186198658E+03  0.00000000000E+00 0.  1.
<mgrwt>
<rscale>  2 0.25829523E+03</rscale>
<asrwt>0</asrwt>
<pdfrwt beam="2">  1        1 0.84784637E-01 0.25829523E+03</pdfrwt>
<pdfrwt beam="1">  1       -1 0.23740002E-01 0.25829523E+03</pdfrwt>
<totfact> 0.60382590E+02</totfact>
</mgrwt>
</event>
<event>
12    1  0.4404304E-002  0.2072579E+03  0.7546771E-02  0.1143756E+00
         -2   -1    0    0    0  501 -0.00000000000E+00  0.00000000000E+00  0.18976403983E+03  0.18976403983E+03  0.00000000000E+00 0. -1.
          2   -1    0    0  502    0  0.00000000000E+00 -0.00000000000E+00 -0.33448907890E+03  0.33448907890E+03  0.00000000000E+00 0.  1.
          6    2    1    2  502    0 -0.43608978590E+02 -0.10444220368E+03 -0.22119895926E+03  0.30256745963E+03  0.17265043043E+03 0.  0.
         24    2    3    3    0    0 -0.70067751000E+02 -0.32930134532E+02 -0.18633362613E+03  0.21859291512E+03  0.84075911082E+02 0.  0.
         -6    2    1    2    0  501  0.43608978590E+02  0.10444220368E+03  0.76473920195E+02  0.22168565909E+03  0.17460341937E+03 0.  0.
        -24    2    5    5    0    0 -0.61857923969E+01  0.85384791759E+02  0.10673631723E+03  0.16019901956E+03  0.83320212201E+02 0.  0.
          5    1    3    3  502    0  0.26458772410E+02 -0.71512069151E+02 -0.34865333138E+02  0.83974544515E+02  0.47000000000E+01 0. -1.
        -11    1    4    4    0    0  0.91369352592E+01  0.12989698711E+02 -0.63127363746E+02  0.65094392325E+02  0.00000000000E+00 0.  1.
         12    1    4    4    0    0 -0.79204686259E+02 -0.45919833242E+02 -0.12320626238E+03  0.15349852279E+03  0.00000000000E+00 0. -1.
         -5    1    5    5    0  501  0.49794770987E+02  0.19057411923E+02 -0.30262397035E+02  0.61486639534E+02  0.47000000000E+01 0.  1.
         13    1    6    6    0    0  0.18469783233E+02 -0.11887059026E+01 -0.24738499251E+01  0.18672596173E+02  0.00000000000E+00 0. -1.
        -14    1    6    6    0    0 -0.24655575630E+02  0.86573497662E+02  0.10921016716E+03  0.14152642339E+03  0.00000000000E+00 0.  1.
<mgrwt>
<rscale>  2 0.20725791E+03</rscale>
<asrwt>0</asrwt>
<pdfrwt beam="2">  1        2 0.51459859E-01 0.20725791E+03</pdfrwt>
<pdfrwt beam="1">  1       -2 0.29194467E-01 0.20725791E+03</pdfrwt>
<totfact> 0.10413541E+03</totfact>
</mgrwt>
</event>
<event>
12    1  0.4404304E-002  0.2406234E+03  0.7546771E-02  0.1119378E+00
          1   -1    0    0  502    0  0.00000000000E+00  0.00000000000E+00  0.56486913079E+03  0.56486913079E+03  0.00000000000E+00 0. -1.
         -1   -1    0    0    0  501 -0.00000000000E+00 -0.00000000000E+00 -0.10606294201E+03  0.10606294201E+03  0.00000000000E+00 0.  1.
          6    2    1    2  502    0  0.64402886249E+02  0.15410471469E+03  0.29082945089E+03  0.37743173083E+03  0.17313851993E+03 0.  0.
         24    2    3    3    0    0 -0.19559929009E+02  0.39789936368E+02  0.13164951944E+03  0.16417610144E+03  0.87500665459E+02 0.  0.
         -6    2    1    2    0  501 -0.64402886249E+02 -0.15410471469E+03  0.16797673789E+03  0.29350034197E+03  0.17329244478E+03 0.  0.
        -24    2    5    5    0    0  0.14242088795E+00 -0.14520799647E+03  0.78110897619E+02  0.18240035315E+03  0.77994833045E+02 0.  0.
          5    1    3    3  502    0  0.83962815258E+02  0.11431477833E+03  0.15917993145E+03  0.21325562939E+03  0.47000000000E+01 0. -1.
        -13    1    4    4    0    0 -0.50535400563E+02  0.41672207226E+02  0.10223469201E+03  0.12141800449E+03  0.00000000000E+00 0.  1.
         14    1    4    4    0    0  0.30975471554E+02 -0.18822708584E+01  0.29414827433E+02  0.42758096946E+02  0.00000000000E+00 0. -1.
         -5    1    5    5    0  501 -0.64545307136E+02 -0.88967182285E+01  0.89865840270E+02  0.11109998882E+03  0.47000000000E+01 0.  1.
         11    1    6    6    0    0  0.26136905869E+02 -0.12942990221E+02  0.69846007644E+01  0.29990723435E+02  0.00000000000E+00 0. -1.
        -12    1    6    6    0    0 -0.25994484981E+02 -0.13226500624E+03  0.71126296854E+02  0.15240962972E+03  0.00000000000E+00 0.  1.
<mgrwt>
<rscale>  2 0.24062335E+03</rscale>
<asrwt>0</asrwt>
<pdfrwt beam="1">  1        1 0.86902942E-01 0.24062335E+03</pdfrwt>
<pdfrwt beam="2">  1       -1 0.16317376E-01 0.24062335E+03</pdfrwt>
<totfact> 0.10749881E+03</totfact>
</mgrwt>
</event>
<event>
12    1  0.4404304E-002  0.1937543E+03  0.7546771E-02  0.1155118E+00
          2   -1    0    0  502    0  0.00000000000E+00  0.00000000000E+00  0.36285186752E+03  0.36285186752E+03  0.00000000000E+00 0.  1.
         -2   -1    0    0    0  501 -0.00000000000E+00 -0.00000000000E+00 -0.12493741838E+03  0.12493741838E+03  0.00000000000E+00 0. -1.
          6    2    1    2  502    0  0.59294174203E+02  0.62332783451E+02  0.22023293746E+03  0.29353234259E+03  0.17394687240E+03 0.  0.
         24    2    3    3    0    0 -0.16649385318E+02  0.57496236408E+02  0.17705405651E+03  0.20591201287E+03  0.86421055799E+02 0.  0.
         -6    2    1    2    0  501 -0.59294174203E+02 -0.62332783451E+02  0.17681511675E+02  0.19425694331E+03  0.17326843100E+03 0.  0.
        -24    2    5    5    0    0 -0.22342135834E+02 -0.60353885826E+02 -0.49741206217E+02  0.11720318245E+03  0.84383859900E+02 0.  0.
          5    1    3    3  502    0  0.75943559520E+02  0.48365470429E+01  0.43178880946E+02  0.87620329717E+02  0.47000000000E+01 0. -1.
        -13    1    4    4    0    0  0.34304237230E+02  0.35989448400E+02  0.88325779150E+02  0.10135809958E+03  0.00000000000E+00 0.  1.
         14    1    4    4    0    0 -0.50953622547E+02  0.21506788008E+02  0.88728277364E+02  0.10455391329E+03  0.00000000000E+00 0. -1.
         -5    1    5    5    0  501 -0.36952038368E+02 -0.19788976250E+01  0.67422717892E+02  0.77053760864E+02  0.47000000000E+01 0.  1.
         13    1    6    6    0    0  0.20167849448E+02 -0.41107975406E+02 -0.53463253556E+02  0.70391244301E+02  0.00000000000E+00 0. -1.
        -14    1    6    6    0    0 -0.42509985282E+02 -0.19245910420E+02  0.37220473391E+01  0.46811938146E+02  0.00000000000E+00 0.  1.
<mgrwt>
<rscale>  2 0.19375428E+03</rscale>
<asrwt>0</asrwt>
<pdfrwt beam="1">  1        2 0.55823364E-01 0.19375428E+03</pdfrwt>
<pdfrwt beam="2">  1       -2 0.19221141E-01 0.19375428E+03</pdfrwt>
<totfact> 0.19785872E+03</totfact>
</mgrwt>
</event>
<event>
12    1  0.4404304E-002  0.1715216E+03  0.7546771E-02  0.1176270E+00
          1   -1    0    0  502    0  0.00000000000E+00  0.00000000000E+00  0.21283468457E+03  0.21283468457E+03  0.00000000000E+00 0.  1.
         -1   -1    0    0    0  501 -0.00000000000E+00 -0.00000000000E+00 -0.13969541393E+03  0.13969541393E+03  0.00000000000E+00 0. -1.
          6    2    1    2  502    0  0.26455402247E+01 -0.38558711423E+01  0.18844844527E+02  0.17391436010E+03  0.17282710973E+03 0.  0.
         24    2    3    3    0    0  0.44203015947E+02 -0.43099342232E+02  0.58912685359E+01  0.11511845086E+03  0.96985002781E+02 0.  0.
         -6    2    1    2    0  501 -0.26455402247E+01  0.38558711423E+01  0.54294426113E+02  0.17861573840E+03  0.17009947287E+03 0.  0.
        -24    2    5    5    0    0  0.55214541748E+02  0.32215775709E+02  0.44559808633E+02  0.11327871941E+03  0.82219157749E+02 0.  0.
          5    1    3    3  502    0 -0.41557475722E+02  0.39243471089E+02  0.12953575991E+02  0.58795909233E+02  0.47000000000E+01 0. -1.
        -11    1    4    4    0    0 -0.53704510285E+01 -0.37995081846E+02  0.39452209660E+02  0.55035850459E+02  0.00000000000E+00 0.  1.
         12    1    4    4    0    0  0.49573466976E+02 -0.51042603858E+01 -0.33560941124E+02  0.60082600403E+02  0.00000000000E+00 0. -1.
         -5    1    5    5    0  501 -0.57860081972E+02 -0.28359904566E+02  0.97346174796E+01  0.65337018989E+02  0.47000000000E+01 0.  1.
         11    1    6    6    0    0  0.38366135407E+02 -0.81690622194E+01  0.55698325252E+02  0.68124865941E+02  0.00000000000E+00 0. -1.
        -12    1    6    6    0    0  0.16848406341E+02  0.40384837928E+02 -0.11138516619E+02  0.45153853470E+02  0.00000000000E+00 0.  1.
<mgrwt>
<rscale>  2 0.17152163E+03</rscale>
<asrwt>0</asrwt>
<pdfrwt beam="1">  1        1 0.32743798E-01 0.17152163E+03</pdfrwt>
<pdfrwt beam="2">  1       -1 0.21491602E-01 0.17152163E+03</pdfrwt>
<totfact> 0.23820139E+03</totfact>
</mgrwt>
</event>
<event>
12    1  0.4404304E-002  0.2298068E+03  0.7546771E-02  0.1126776E+00
         -1   -1    0    0    0  501 -0.00000000000E+00  0.00000000000E+00  0.17138525490E+03  0.17138525490E+03  0.00000000000E+00 0.  1.
          1   -1    0    0  502    0  0.00000000000E+00 -0.00000000000E+00 -0.31385433891E+03  0.31385433891E+03  0.00000000000E+00 0. -1.
          6    2    1    2  502    0  0.90788075929E+02 -0.11904336597E+03 -0.10355526505E+03  0.25092162817E+03  0.17269676561E+03 0.  0.
         24    2    3    3    0    0  0.66767376857E+02 -0.15087745524E+03 -0.62489560714E+02  0.19348570478E+03  0.79434776045E+02 0.  0.
         -6    2    1    2    0  501 -0.90788075929E+02  0.11904336597E+03 -0.38913818956E+02  0.23431796563E+03  0.17600234658E+03 0.  0.
        -24    2    5    5    0    0 -0.34903692448E+02  0.62286592067E+02 -0.89814012888E+02  0.13967487057E+03  0.79653155995E+02 0.  0.
          5    1    3    3  502    0  0.24020699073E+02  0.31834089266E+02 -0.41065704339E+02  0.57435923394E+02  0.47000000000E+01 0. -1.
        -11    1    4    4    0    0  0.27554341377E+01 -0.10313341854E+03 -0.32206903274E+02  0.10808042864E+03  0.00000000000E+00 0.  1.
         12    1    4    4    0    0  0.64011942719E+02 -0.47744036698E+02 -0.30282657440E+02  0.85405276139E+02  0.00000000000E+00 0. -1.
         -5    1    5    5    0  501 -0.55884383481E+02  0.56756773903E+02  0.50900193932E+02  0.94643095064E+02  0.47000000000E+01 0.  1.
         11    1    6    6    0    0 -0.56352953596E+02  0.24903724322E+02 -0.66578046844E+02  0.90711009176E+02  0.00000000000E+00 0. -1.
        -12    1    6    6    0    0  0.21449261148E+02  0.37382867745E+02 -0.23235966043E+02  0.48963861394E+02  0.00000000000E+00 0.  1.
<mgrwt>
<rscale>  2 0.22980677E+03</rscale>
<asrwt>0</asrwt>
<pdfrwt beam="2">  1        1 0.48285282E-01 0.22980677E+03</pdfrwt>
<pdfrwt beam="1">  1       -1 0.26366963E-01 0.22980677E+03</pdfrwt>
<totfact> 0.10526785E+03</totfact>
</mgrwt>
</event>
<event>
12    1  0.4404304E-002  0.2077663E+03  0.7546771E-02  0.1143347E+00
         -2   -1    0    0    0  501 -0.00000000000E+00  0.00000000000E+00  0.64211874141E+02  0.64211874141E+02  0.00000000000E+00 0.  1.
          2   -1    0    0  502    0  0.00000000000E+00 -0.00000000000E+00 -0.73431904915E+03  0.73431904915E+03  0.00000000000E+00 0. -1.
          6    2    1    2  502    0 -0.16479456356E+02 -0.11374256997E+03 -0.45121839694E+03  0.49678015039E+03  0.17315753341E+03 0.  0.
         24    2    3    3    0    0  0.46751518165E+02 -0.65227286412E+02 -0.29931607264E+03  0.32517509508E+03  0.98531354295E+02 0.  0.
         -6    2    1    2    0  501  0.16479456356E+02  0.11374256997E+03 -0.21888877807E+03  0.30175077290E+03  0.17300949996E+03 0.  0.
        -24    2    5    5    0    0 -0.20005358295E+02  0.13900827042E+03 -0.18495438879E+03  0.24568714749E+03  0.80190616031E+02 0.  0.
          5    1    3    3  502    0 -0.63230974522E+02 -0.48515283562E+02 -0.15190232430E+03  0.17160505531E+03  0.47000000000E+01 0. -1.
        -11    1    4    4    0    0  0.39661538433E+02  0.12145651372E+02 -0.55562224652E+02  0.69337690230E+02  0.00000000000E+00 0.  1.
         12    1    4    4    0    0  0.70899797320E+01 -0.77372937784E+02 -0.24375384799E+03  0.25583740485E+03  0.00000000000E+00 0. -1.
         -5    1    5    5    0  501  0.36484814651E+02 -0.25265700450E+02 -0.33934389275E+02  0.56063625416E+02  0.47000000000E+01 0.  1.
         13    1    6    6    0    0  0.27336396890E+02  0.67427706997E+02 -0.61127086313E+02  0.95027864055E+02  0.00000000000E+00 0. -1.
        -14    1    6    6    0    0 -0.47341755185E+02  0.71580563428E+02 -0.12382730248E+03  0.15065928343E+03  0.00000000000E+00 0.  1.
<mgrwt>
<rscale>  2 0.20776633E+03</rscale>
<asrwt>0</asrwt>
<pdfrwt beam="2">  1        2 0.11297216E+00 0.20776633E+03</pdfrwt>
<pdfrwt beam="1">  1       -2 0.98787496E-02 0.20776633E+03</pdfrwt>
<totfact> 0.26550626E+03</totfact>
</mgrwt>
</event>
<event>
12    1  0.4404304E-002  0.2015539E+03  0.7546771E-02  0.1148435E+00
         -2   -1    0    0    0  501 -0.00000000000E+00  0.00000000000E+00  0.30634049171E+03  0.30634049171E+03  0.00000000000E+00 0. -1.
          2   -1    0    0  502    0  0.00000000000E+00 -0.00000000000E+00 -0.13759250304E+03  0.13759250304E+03  0.00000000000E+00 0.  1.
          6    2    1    2  502    0 -0.19977483414E+02 -0.10436187208E+03  0.41853425223E+02  0.20514848451E+03  0.17042209747E+03 0.  0.
         24    2    3    3    0    0 -0.47755539874E+02 -0.79870478271E+02  0.82856660442E+02  0.14969756847E+03  0.82971386258E+02 0.  0.
         -6    2    1    2    0  501  0.19977483414E+02  0.10436187208E+03  0.12689456345E+03  0.23878451024E+03  0.17212005086E+03 0.  0.
        -24    2    5    5    0    0  0.70795673127E+02  0.99114529484E+02  0.75104966231E+02  0.16588543349E+03  0.83913668759E+02 0.  0.
          5    1    3    3  502    0  0.27778056460E+02 -0.24491393807E+02 -0.41003235219E+02  0.55450916040E+02  0.47000000000E+01 0. -1.
        -11    1    4    4    0    0 -0.13323506843E+02  0.11772226880E+02 -0.46651403021E+01  0.18381096113E+02  0.00000000000E+00 0.  1.
         12    1    4    4    0    0 -0.34432033031E+02 -0.91642705151E+02  0.87521800744E+02  0.13131647235E+03  0.00000000000E+00 0. -1.
         -5    1    5    5    0  501 -0.50818189713E+02  0.52473425943E+01  0.51789597220E+02  0.72899076745E+02  0.47000000000E+01 0.  1.
         11    1    6    6    0    0  0.53543143829E+02  0.90111489404E+02  0.92490118233E+02  0.13979045298E+03  0.00000000000E+00 0. -1.
        -12    1    6    6    0    0  0.17252529299E+02  0.90030400794E+01 -0.17385152002E+02  0.26094980514E+02  0.00000000000E+00 0.  1.
<mgrwt>
<rscale>  2 0.20155387E+03</rscale>
<asrwt>0</asrwt>
<pdfrwt beam="2">  1        2 0.21168077E-01 0.20155387E+03</pdfrwt>
<pdfrwt beam="1">  1       -2 0.47129306E-01 0.20155387E+03</pdfrwt>
<totfact> 0.11161904E+03</totfact>
</mgrwt>
</event>
<event>
12    1  0.4404304E-002  0.2069620E+03  0.7546771E-02  0.1143995E+00
          2   -1    0    0  502    0  0.00000000000E+00  0.00000000000E+00  0.75227733811E+03  0.75227733811E+03  0.00000000000E+00 0.  1.
         -2   -1    0    0    0  501 -0.00000000000E+00 -0.00000000000E+00 -0.69434710739E+02  0.69434710739E+02  0.00000000000E+00 0. -1.
          6    2    1    2  502    0 -0.41815371264E+02 -0.10468861639E+03  0.51612455248E+03  0.55618500558E+03  0.17392232485E+03 0.  0.
         24    2    3    3    0    0 -0.30069607003E+02 -0.14232484884E+03  0.39285195783E+03  0.42667565625E+03  0.80987103939E+02 0.  0.
         -6    2    1    2    0  501  0.41815371264E+02  0.10468861639E+03  0.16671807489E+03  0.26552704327E+03  0.17320930269E+03 0.  0.
        -24    2    5    5    0    0  0.62620649309E+02  0.13221327327E+03  0.11407673089E+03  0.20241074246E+03  0.80962415858E+02 0.  0.
          5    1    3    3  502    0 -0.11745764261E+02  0.37636232449E+02  0.12327259465E+03  0.12950934932E+03  0.47000000000E+01 0. -1.
        -13    1    4    4    0    0 -0.46643180758E+02 -0.13374632869E+03  0.37495918198E+03  0.40082172459E+03  0.00000000000E+00 0.  1.
         14    1    4    4    0    0  0.16573573754E+02 -0.85785201554E+01  0.17892775851E+02  0.25853931668E+02  0.00000000000E+00 0. -1.
         -5    1    5    5    0  501 -0.20805278045E+02 -0.27524656877E+02  0.52641344000E+02  0.63116300817E+02  0.47000000000E+01 0.  1.
         11    1    6    6    0    0  0.35582065332E+02  0.11247008316E+03  0.46129439919E+02  0.12666304988E+03  0.00000000000E+00 0. -1.
        -12    1    6    6    0    0  0.27038583977E+02  0.19743190114E+02  0.67947290975E+02  0.75747692573E+02  0.00000000000E+00 0.  1.
<mgrwt>
<rscale>  2 0.20696201E+03</rscale>
<asrwt>0</asrwt>
<pdfrwt beam="1">  1        2 0.11573497E+00 0.20696201E+03</pdfrwt>
<pdfrwt beam="2">  1       -2 0.10682264E-01 0.20696201E+03</pdfrwt>
<totfact> 0.22756221E+03</totfact>
</mgrwt>
</event>
<event>
12    1  0.4404304E-002  0.2284877E+03  0.7546771E-02  0.1127709E+00
          1   -1    0    0  502    0  0.00000000000E+00  0.00000000000E+00  0.14789711292E+04  0.14789711292E+04  0.00000000000E+00 0. -1.
         -1   -1    0    0    0  501 -0.00000000000E+00 -0.00000000000E+00 -0.35307809182E+02  0.35307809182E+02  0.00000000000E+00 0.  1.
          6    2    1    2  502    0  0.14610464940E+03  0.39825839993E+02  0.70632816255E+03  0.74188728529E+03  0.16901066462E+03 0.  0.
         24    2    3    3    0    0  0.15725452832E+03  0.39330777929E+02  0.46198525834E+03  0.49724446459E+03  0.86866459946E+02 0.  0.
         -6    2    1    2    0  501 -0.14610464940E+03 -0.39825839993E+02  0.73733515744E+03  0.77239165307E+03  0.17318506061E+03 0.  0.
        -24    2    5    5    0    0 -0.48551910198E+02  0.67787453642E+01  0.16848837259E+03  0.19334305499E+03  0.81178604574E+02 0.  0.
          5    1    3    3  502    0 -0.11149878923E+02  0.49506206361E+00  0.24434290420E+03  0.24464282070E+03  0.47000000000E+01 0. -1.
        -13    1    4    4    0    0  0.13068461487E+03  0.65204628426E+02  0.34894783262E+03  0.37827860370E+03  0.00000000000E+00 0.  1.
         14    1    4    4    0    0  0.26569913451E+02 -0.25873850496E+02  0.11303742573E+03  0.11896586088E+03  0.00000000000E+00 0. -1.
         -5    1    5    5    0  501 -0.97552739202E+02 -0.46604585357E+02  0.56884678485E+03  0.57904859808E+03  0.47000000000E+01 0.  1.
         13    1    6    6    0    0 -0.13016655489E+01  0.36752225953E+02  0.87405729341E+02  0.94827116203E+02  0.00000000000E+00 0. -1.
        -14    1    6    6    0    0 -0.47250244649E+02 -0.29973480589E+02  0.81082643250E+02  0.98515938784E+02  0.00000000000E+00 0.  1.
<mgrwt>
<rscale>  2 0.22848767E+03</rscale>
<asrwt>0</asrwt>
<pdfrwt beam="1">  1        1 0.22753397E+00 0.22848767E+03</pdfrwt>
<pdfrwt beam="2">  1       -1 0.54319718E-02 0.22848767E+03</pdfrwt>
<totfact> 0.11509660E+03</totfact>
</mgrwt>
</event>
<event>
12    1  0.4404304E-002  0.1957315E+03  0.7546771E-02  0.1153391E+00
         -2   -1    0    0    0  501 -0.00000000000E+00  0.00000000000E+00  0.41679546875E+02  0.41679546875E+02  0.00000000000E+00 0. -1.
          2   -1    0    0  502    0  0.00000000000E+00 -0.00000000000E+00 -0.12329030274E+04  0.12329030274E+04  0.00000000000E+00 0.  1.
          6    2    1    2  502    0  0.27981875600E+02 -0.87086132520E+02 -0.27474098964E+03  0.33748778027E+03  0.17334477380E+03 0.  0.
         24    2    3    3    0    0  0.76750779187E+02 -0.73431331161E+02 -0.24516166094E+03  0.27864998422E+03  0.79112143262E+02 0.  0.
         -6    2    1    2    0  501 -0.27981875600E+02  0.87086132520E+02 -0.91648249089E+03  0.93709479401E+03  0.17274118504E+03 0.  0.
        -24    2    5    5    0    0  0.19246695088E+02  0.73225789000E+02 -0.32010636555E+03  0.33867251845E+03  0.80613510278E+02 0.  0.
          5    1    3    3  502    0 -0.48768903587E+02 -0.13654801360E+02 -0.29579328697E+02  0.58837796045E+02  0.47000000000E+01 0. -1.
        -11    1    4    4    0    0  0.21795497428E+02 -0.27437514690E+02 -0.15956046286E+02  0.38502679564E+02  0.00000000000E+00 0.  1.
         12    1    4    4    0    0  0.54955281758E+02 -0.45993816470E+02 -0.22920561465E+03  0.24014730466E+03  0.00000000000E+00 0. -1.
         -5    1    5    5    0  501 -0.47228570688E+02  0.13860343520E+02 -0.59637612534E+03  0.59842227556E+03  0.47000000000E+01 0.  1.
         11    1    6    6    0    0 -0.23472552174E+02  0.22700530512E+01 -0.38584813280E+02  0.45220588920E+02  0.00000000000E+00 0. -1.
        -12    1    6    6    0    0  0.42719247262E+02  0.70955735949E+02 -0.28152155227E+03  0.29345192953E+03  0.00000000000E+00 0.  1.
<mgrwt>
<rscale>  2 0.19573145E+03</rscale>
<asrwt>0</asrwt>
<pdfrwt beam="2">  1        2 0.18967740E+00 0.19573145E+03</pdfrwt>
<pdfrwt beam="1">  1       -2 0.64122375E-02 0.19573145E+03</pdfrwt>
<totfact> 0.25486831E+03</totfact>
</mgrwt>
</event>
<event>
12    1  0.4404304E-002  0.2996973E+03  0.7546771E-02  0.1085392E+00
          1   -1    0    0  502    0  0.00000000000E+00  0.00000000000E+00  0.12041821148E+03  0.12041821148E+03  0.00000000000E+00 0. -1.
         -1   -1    0    0    0  501 -0.00000000000E+00 -0.00000000000E+00 -0.77651352353E+03  0.77651352353E+03  0.00000000000E+00 0.  1.
          6    2    1    2  502    0 -0.52330555900E+02  0.23952152981E+03 -0.41721098112E+03  0.51375146063E+03  0.17252973716E+03 0.  0.
         24    2    3    3    0    0  0.17059060116E+02  0.16470199062E+03 -0.33621443067E+03  0.38338500236E+03  0.80784648286E+02 0.  0.
         -6    2    1    2    0  501  0.52330555900E+02 -0.23952152981E+03 -0.23888433094E+03  0.38318027439E+03  0.17219857372E+03 0.  0.
        -24    2    5    5    0    0  0.41031767532E+02 -0.10438645454E+03 -0.43544728612E+02  0.14533830706E+03  0.81528781859E+02 0.  0.
          5    1    3    3  502    0 -0.69389616017E+02  0.74819539192E+02 -0.80996550447E+02  0.13036645826E+03  0.47000000000E+01 0. -1.
        -11    1    4    4    0    0  0.27982403269E+02  0.16940620565E+03 -0.30544624515E+03  0.35039818219E+03  0.00000000000E+00 0.  1.
         12    1    4    4    0    0 -0.10923343152E+02 -0.47042150346E+01 -0.30768185522E+02  0.32986820171E+02  0.00000000000E+00 0. -1.
         -5    1    5    5    0  501  0.11298788368E+02 -0.13513507527E+03 -0.19533960232E+03  0.23784196733E+03  0.47000000000E+01 0.  1.
         11    1    6    6    0    0 -0.22400217043E+01 -0.85047075996E+02 -0.48084045447E+02  0.97724604165E+02  0.00000000000E+00 0. -1.
        -12    1    6    6    0    0  0.43271789237E+02 -0.19339378544E+02  0.45393168346E+01  0.47613702897E+02  0.00000000000E+00 0.  1.
<mgrwt>
<rscale>  2 0.29969728E+03</rscale>
<asrwt>0</asrwt>
<pdfrwt beam="1">  1        1 0.18525879E-01 0.29969728E+03</pdfrwt>
<pdfrwt beam="2">  1       -1 0.11946362E+00 0.29969728E+03</pdfrwt>
<totfact> 0.18899246E+02</totfact>
</mgrwt>
</event>
<event>
12    1  0.4404304E-002  0.1630188E+03  0.7546771E-02  0.1185330E+00
         -2   -1    0    0    0  501 -0.00000000000E+00  0.00000000000E+00  0.25843027096E+02  0.25843027096E+02  0.00000000000E+00 0. -1.
          2   -1    0    0  502    0  0.00000000000E+00 -0.00000000000E+00 -0.11959324247E+04  0.11959324247E+04  0.00000000000E+00 0.  1.
          6    2    1    2  502    0 -0.12941839590E+02 -0.20977133780E+02 -0.78386994438E+03  0.79892555714E+03  0.15238905736E+03 0.  0.
         24    2    3    3    0    0 -0.60836091944E+02 -0.12266089148E+02 -0.42995768184E+03  0.44165014337E+03  0.79622571827E+02 0.  0.
         -6    2    1    2    0  501  0.12941839590E+02  0.20977133780E+02 -0.38621945323E+03  0.42284989466E+03  0.17037909498E+03 0.  0.
        -24    2    5    5    0    0  0.55942267378E+02  0.31453824443E+02 -0.15174624501E+03  0.18418994157E+03  0.82341552986E+02 0.  0.
          5    1    3    3  502    0  0.47894252354E+02 -0.87110446318E+01 -0.35391226254E+03  0.35727541377E+03  0.47000000000E+01 0. -1.
        -11    1    4    4    0    0 -0.16674348073E+02 -0.17798497419E+02 -0.34390874196E+03  0.34477245132E+03  0.00000000000E+00 0.  1.
         12    1    4    4    0    0 -0.44161743871E+02  0.55324082714E+01 -0.86048939875E+02  0.96877692048E+02  0.00000000000E+00 0. -1.
         -5    1    5    5    0  501 -0.43000427788E+02 -0.10476690664E+02 -0.23447320822E+03  0.23865995309E+03  0.47000000000E+01 0.  1.
         11    1    6    6    0    0  0.12791788804E+02  0.18677182169E+02  0.31800104685E+01  0.22859996963E+02  0.00000000000E+00 0. -1.
        -12    1    6    6    0    0  0.43150478574E+02  0.12776642274E+02 -0.15492625548E+03  0.16132994461E+03  0.00000000000E+00 0.  1.
<mgrwt>
<rscale>  2 0.16301884E+03</rscale>
<asrwt>0</asrwt>
<pdfrwt beam="2">  1        2 0.18398968E+00 0.16301884E+03</pdfrwt>
<pdfrwt beam="1">  1       -2 0.39758487E-02 0.16301884E+03</pdfrwt>
<totfact> 0.54878897E+03</totfact>
</mgrwt>
</event>
<event>
12    1  0.4404304E-002  0.2881371E+03  0.7546771E-02  0.1091326E+00
          1   -1    0    0  502    0  0.00000000000E+00  0.00000000000E+00  0.51952548114E+03  0.51952548114E+03  0.00000000000E+00 0. -1.
         -1   -1    0    0    0  501 -0.00000000000E+00 -0.00000000000E+00 -0.16893574424E+03  0.16893574424E+03  0.00000000000E+00 0.  1.
          6    2    1    2  502    0  0.22279691519E+03 -0.64195260724E+02  0.95786182803E+02  0.30448410148E+03  0.17255746382E+03 0.  0.
         24    2    3    3    0    0  0.18728833189E+03 -0.47236015038E+02  0.13470124312E+03  0.24894179849E+03  0.80743010592E+02 0.  0.
         -6    2    1    2    0  501 -0.22279691519E+03  0.64195260724E+02  0.25480355409E+03  0.38397712390E+03  0.16957029097E+03 0.  0.
        -24    2    5    5    0    0 -0.33528277233E+02  0.36921972589E+02  0.68417696022E+02  0.11690367398E+03  0.80610858003E+02 0.  0.
          5    1    3    3  502    0  0.35508583296E+02 -0.16959245687E+02 -0.38915060314E+02  0.55542302988E+02  0.47000000000E+01 0. -1.
        -13    1    4    4    0    0  0.73812898102E+02  0.17629988163E+02  0.30524523576E+02  0.81797964207E+02  0.00000000000E+00 0.  1.
         14    1    4    4    0    0  0.11347543379E+03 -0.64866003201E+02  0.10417671954E+03  0.16714383429E+03  0.00000000000E+00 0. -1.
         -5    1    5    5    0  501 -0.18926863796E+03  0.27273288135E+02  0.18638585807E+03  0.26707344991E+03  0.47000000000E+01 0.  1.
         13    1    6    6    0    0  0.57699159148E+01  0.44509421499E+02  0.98231432957E+01  0.45944256182E+02  0.00000000000E+00 0. -1.
        -14    1    6    6    0    0 -0.39298193148E+02 -0.75874489102E+01  0.58594552727E+02  0.70959417803E+02  0.00000000000E+00 0.  1.
<mgrwt>
<rscale>  2 0.28813713E+03</rscale>
<asrwt>0</asrwt>
<pdfrwt beam="1">  1        1 0.79926996E-01 0.28813713E+03</pdfrwt>
<pdfrwt beam="2">  1       -1 0.25990115E-01 0.28813713E+03</pdfrwt>
<totfact> 0.56167048E+02</totfact>
</mgrwt>
</event>
<event>
11    1  0.4404304E-002  0.1824950E+03  0.7546771E-02  0.1165410E+00
          1   -1    0    0  502    0  0.00000000000E+00  0.00000000000E+00  0.79107242707E+02  0.79107242707E+02  0.00000000000E+00 0. -1.
         -1   -1    0    0    0  501 -0.00000000000E+00 -0.00000000000E+00 -0.47844312180E+03  0.47844312180E+03  0.00000000000E+00 0.  1.
          6    2    1    2  502    0 -0.52830317691E+02  0.18947491308E+01 -0.29531907884E+03  0.34665098842E+03  0.17366322842E+03 0.  0.
         -6    2    1    2    0  501  0.52830317691E+02 -0.18947491308E+01 -0.10401680026E+03  0.21089937609E+03  0.17568272413E+03 0.  0.
        -24    2    4    4    0    0  0.10025697440E+03 -0.18733893953E+02 -0.60628144653E+02  0.14428473806E+03  0.82096857528E+02 0.  0.
          5    1    3    3  502    0 -0.95431142769E+02  0.25588554015E+02 -0.24701915988E+03  0.26608726474E+03  0.47000000000E+01 0. -1.
        -13    1    3    3    0    0  0.45692595554E+02 -0.85066900753E+01 -0.25553950668E+02  0.53039433059E+02  0.00000000000E+00 0.  1.
         14    1    3    3    0    0 -0.30917704758E+01 -0.15187114809E+02 -0.22745968288E+02  0.27524290622E+02  0.00000000000E+00 0. -1.
         -5    1    4    4    0  501 -0.47426656705E+02  0.16839144822E+02 -0.43388655606E+02  0.66614638030E+02  0.47000000000E+01 0.  1.
         11    1    5    5    0    0  0.34042397312E+02  0.27011210263E+02  0.11119176666E+00  0.43456905759E+02  0.00000000000E+00 0. -1.
        -12    1    5    5    0    0  0.66214577084E+02 -0.45745104216E+02 -0.60739336420E+02  0.10082783230E+03  0.00000000000E+00 0.  1.
<mgrwt>
<rscale>  2 0.18249502E+03</rscale>
<asrwt>0</asrwt>
<pdfrwt beam="1">  1        1 0.12170345E-01 0.18249502E+03</pdfrwt>
<pdfrwt beam="2">  1       -1 0.73606632E-01 0.18249502E+03</pdfrwt>
<totfact> 0.94735483E+02</totfact>
</mgrwt>
</event>
<event>
12    1  0.4404304E-002  0.1905373E+03  0.7546771E-02  0.1157978E+00
         -2   -1    0    0    0  501 -0.00000000000E+00  0.00000000000E+00  0.23911490316E+03  0.23911490316E+03  0.00000000000E+00 0.  1.
          2   -1    0    0  502    0  0.00000000000E+00 -0.00000000000E+00 -0.17112073705E+03  0.17112073705E+03  0.00000000000E+00 0. -1.
          6    2    1    2  502    0  0.33142050720E+02  0.68498415574E+02  0.10314254168E+03  0.21836245256E+03  0.17678616552E+03 0.  0.
         24    2    3    3    0    0  0.32891699771E+02  0.31690257015E+02  0.13889147468E+03  0.16683596012E+03  0.80357075283E+02 0.  0.
         -6    2    1    2    0  501 -0.33142050720E+02 -0.68498415574E+02 -0.35148375570E+02  0.19187318765E+03  0.17259630173E+03 0.  0.
        -24    2    5    5    0    0  0.46660627377E+01 -0.97352973633E+02  0.68283743198E+01  0.12826362473E+03  0.83099681799E+02 0.  0.
          5    1    3    3  502    0  0.25035094891E+00  0.36808158560E+02 -0.35748932997E+02  0.51526492434E+02  0.47000000000E+01 0. -1.
        -13    1    4    4    0    0 -0.18606458389E+02  0.18840528703E+02  0.92915936779E+02  0.96615408311E+02  0.00000000000E+00 0.  1.
         14    1    4    4    0    0  0.51498158160E+02  0.12849728311E+02  0.45975537901E+02  0.70220551812E+02  0.00000000000E+00 0. -1.
         -5    1    5    5    0  501 -0.37808113458E+02  0.28854558059E+02 -0.41976749889E+02  0.63609562923E+02  0.47000000000E+01 0.  1.
         13    1    6    6    0    0  0.29646519198E+02 -0.18952894311E+02 -0.21505271077E+02  0.41238392154E+02  0.00000000000E+00 0. -1.
        -14    1    6    6    0    0 -0.24980456460E+02 -0.78400079322E+02  0.28333645397E+02  0.87025232571E+02  0.00000000000E+00 0.  1.
<mgrwt>
<rscale>  2 0.19053731E+03</rscale>
<asrwt>0</asrwt>
<pdfrwt beam="2">  1        2 0.26326267E-01 0.19053731E+03</pdfrwt>
<pdfrwt beam="1">  1       -2 0.36786908E-01 0.19053731E+03</pdfrwt>
<totfact> 0.14046325E+03</totfact>
</mgrwt>
</event>
<event>
12    1  0.4404304E-002  0.2787020E+03  0.7546771E-02  0.1096400E+00
          2   -1    0    0  502    0  0.00000000000E+00  0.00000000000E+00  0.26641411868E+04  0.26641411868E+04  0.00000000000E+00 0. -1.
         -2   -1    0    0    0  501 -0.00000000000E+00 -0.00000000000E+00 -0.29355042653E+02  0.29355042653E+02  0.00000000000E+00 0.  1.
          6    2    1    2  502    0  0.82544872710E+02  0.20310113336E+03  0.14323736896E+04  0.14594017544E+04  0.17348016544E+03 0.  0.
         24    2    3    3    0    0  0.11292761961E+03  0.20621665616E+03  0.11811359824E+04  0.12062707738E+04  0.68767830197E+02 0.  0.
         -6    2    1    2    0  501 -0.82544872710E+02 -0.20310113336E+03  0.12024124545E+04  0.12340944750E+04  0.17067435672E+03 0.  0.
        -24    2    5    5    0    0 -0.11079227768E+03 -0.20781327502E+03  0.10844609429E+04  0.11126252638E+04  0.80113388236E+02 0.  0.
          5    1    3    3  502    0 -0.30382746898E+02 -0.31155228051E+01  0.25123770723E+03  0.25313098058E+03  0.47000000000E+01 0. -1.
        -11    1    4    4    0    0  0.43789909360E+02  0.23922821462E+02  0.22706281106E+03  0.23248091903E+03  0.00000000000E+00 0.  1.
         12    1    4    4    0    0  0.69137710248E+02  0.18229383470E+03  0.95407317130E+03  0.97378985482E+03  0.00000000000E+00 0. -1.
         -5    1    5    5    0  501  0.28247404971E+02  0.47121416575E+01  0.11795151160E+03  0.12146921115E+03  0.47000000000E+01 0.  1.
         11    1    6    6    0    0 -0.51120419217E+02 -0.12506236495E+03  0.77757625061E+03  0.78922665813E+03  0.00000000000E+00 0. -1.
        -12    1    6    6    0    0 -0.59671858464E+02 -0.82750910063E+02  0.30688469230E+03  0.32339860571E+03  0.00000000000E+00 0.  1.
<mgrwt>
<rscale>  2 0.27870195E+03</rscale>
<asrwt>0</asrwt>
<pdfrwt beam="1">  1        2 0.40986768E+00 0.27870195E+03</pdfrwt>
<pdfrwt beam="2">  1       -2 0.45161625E-02 0.27870195E+03</pdfrwt>
<totfact> 0.74262593E+02</totfact>
</mgrwt>
</event>
<event>
12    1  0.4404304E-002  0.2748540E+03  0.7546771E-02  0.1098533E+00
          2   -1    0    0  502    0  0.00000000000E+00  0.00000000000E+00  0.25671637414E+04  0.25671637414E+04  0.00000000000E+00 0.  1.
         -2   -1    0    0    0  501 -0.00000000000E+00 -0.00000000000E+00 -0.55917400237E+02  0.55917400237E+02  0.00000000000E+00 0. -1.
          6    2    1    2  502    0 -0.62324560478E+02  0.20311226500E+03  0.35037286392E+03  0.44466342292E+03  0.17270052948E+03 0.  0.
         24    2    3    3    0    0 -0.92409319466E+02  0.13379211369E+03  0.30799843162E+03  0.35789903729E+03  0.82394629704E+02 0.  0.
         -6    2    1    2    0  501  0.62324560478E+02 -0.20311226500E+03  0.21608734772E+04  0.21784177187E+04  0.17604155624E+03 0.  0.
        -24    2    5    5    0    0  0.15954892669E+02 -0.10102917610E+03  0.16633718741E+04  0.16684167008E+04  0.79667075880E+02 0.  0.
          5    1    3    3  502    0  0.30084758988E+02  0.69320151312E+02  0.42374432300E+02  0.86764385632E+02  0.47000000000E+01 0.  1.
        -13    1    4    4    0    0 -0.16250190675E+01 -0.88160119665E+01  0.40337707893E+02  0.41321827549E+02  0.00000000000E+00 0.  1.
         14    1    4    4    0    0 -0.90784300399E+02  0.14260812565E+03  0.26766072372E+03  0.31657720974E+03  0.00000000000E+00 0. -1.
         -5    1    5    5    0  501  0.46369667809E+02 -0.10208308890E+03  0.49750160319E+03  0.51000101794E+03  0.47000000000E+01 0.  1.
         13    1    6    6    0    0 -0.12319024454E+02  0.82482791123E+00  0.52561522000E+03  0.52576020979E+03  0.00000000000E+00 0. -1.
        -14    1    6    6    0    0  0.28273917123E+02 -0.10185400401E+03  0.11377566541E+04  0.11426564910E+04  0.00000000000E+00 0.  1.
<mgrwt>
<rscale>  2 0.27485405E+03</rscale>
<asrwt>0</asrwt>
<pdfrwt beam="1">  1        2 0.39494818E+00 0.27485405E+03</pdfrwt>
<pdfrwt beam="2">  1       -2 0.86026789E-02 0.27485405E+03</pdfrwt>
<totfact> 0.31072178E+02</totfact>
</mgrwt>
</event>
<event>
12    1  0.4404304E-002  0.1777981E+03  0.7546771E-02  0.1169951E+00
         -3   -1    0    0    0  501 -0.00000000000E+00  0.00000000000E+00  0.88961228036E+03  0.88961228036E+03  0.00000000000E+00 0.  1.
          3   -1    0    0  502    0  0.00000000000E+00 -0.00000000000E+00 -0.49532966172E+02  0.49532966172E+02  0.00000000000E+00 0. -1.
          6    2    1    2  502    0  0.40487282521E+02 -0.15120435692E+01  0.66828983140E+03  0.69133029987E+03  0.17229271151E+03 0.  0.
         24    2    3    3    0    0  0.45028559650E+02 -0.11298639172E+02  0.28584222891E+03  0.30870168188E+03  0.10693791721E+03 0.  0.
         -6    2    1    2    0  501 -0.40487282521E+02  0.15120435692E+01  0.17178948279E+03  0.24781494666E+03  0.17395147333E+03 0.  0.
        -24    2    5    5    0    0 -0.25645860734E+02  0.51785854105E+02  0.48442056646E+02  0.11370901331E+03  0.85109470664E+02 0.  0.
          5    1    3    3  502    0 -0.45412771289E+01  0.97865956027E+01  0.38244760249E+03  0.38262861799E+03  0.47000000000E+01 0. -1.
        -11    1    4    4    0    0  0.21645436248E+02  0.23105956599E+02  0.25489563145E+03  0.25685442000E+03  0.00000000000E+00 0.  1.
         12    1    4    4    0    0  0.23383123402E+02 -0.34404595771E+02  0.30946597457E+02  0.51847261879E+02  0.00000000000E+00 0. -1.
         -5    1    5    5    0  501 -0.14841421787E+02 -0.50273810536E+02  0.12334742614E+03  0.13410593336E+03  0.47000000000E+01 0.  1.
         11    1    6    6    0    0  0.20892033846E+02  0.68333786818E+01 -0.12105938344E+02  0.25094339713E+02  0.00000000000E+00 0. -1.
        -12    1    6    6    0    0 -0.46537894580E+02  0.44952475423E+02  0.60547994990E+02  0.88614673593E+02  0.00000000000E+00 0.  1.
<mgrwt>
<rscale>  2 0.17779806E+03</rscale>
<asrwt>0</asrwt>
<pdfrwt beam="2">  1        3 0.76204570E-02 0.17779806E+03</pdfrwt>
<pdfrwt beam="1">  1       -3 0.13686342E+00 0.17779806E+03</pdfrwt>
<totfact> 0.12007414E+02</totfact>
</mgrwt>
</event>
<event>
12    1  0.4404304E-002  0.2470642E+03  0.7546771E-02  0.1115174E+00
         -2   -1    0    0    0  501 -0.00000000000E+00  0.00000000000E+00  0.51491801985E+02  0.51491801985E+02  0.00000000000E+00 0.  1.
          2   -1    0    0  502    0  0.00000000000E+00 -0.00000000000E+00 -0.17313651799E+04  0.17313651799E+04  0.00000000000E+00 0. -1.
          6    2    1    2  502    0  0.17399523369E+03  0.17446185897E+02 -0.33602201871E+03  0.41621924756E+03  0.17247885154E+03 0.  0.
         24    2    3    3    0    0  0.15758084376E+02  0.56513627324E+01 -0.86773039181E+02  0.12071077547E+03  0.82226977708E+02 0.  0.
         -6    2    1    2    0  501 -0.17399523369E+03 -0.17446185897E+02 -0.13438513592E+04  0.13666377343E+04  0.17658853446E+03 0.  0.
        -24    2    5    5    0    0 -0.19766790299E+03  0.94169578432E+01 -0.11655101009E+04  0.11846769743E+04  0.76710229103E+02 0.  0.
          5    1    3    3  502    0  0.15823714931E+03  0.11794823164E+02 -0.24924897953E+03  0.29550847208E+03  0.47000000000E+01 0. -1.
        -11    1    4    4    0    0 -0.13754455404E+02  0.37181131610E+02 -0.51235677275E+02  0.64782067095E+02  0.00000000000E+00 0.  1.
         12    1    4    4    0    0  0.29512539780E+02 -0.31529768878E+02 -0.35537361905E+02  0.55928708379E+02  0.00000000000E+00 0. -1.
         -5    1    5    5    0  501  0.23672669303E+02 -0.26863143740E+02 -0.17834125831E+03  0.18196076000E+03  0.47000000000E+01 0.  1.
         13    1    6    6    0    0 -0.39451487400E+02  0.14524121379E+01 -0.45555070929E+03  0.45725810883E+03  0.00000000000E+00 0. -1.
        -14    1    6    6    0    0 -0.15821641559E+03  0.79645457053E+01 -0.70995939159E+03  0.72741886548E+03  0.00000000000E+00 0.  1.
<mgrwt>
<rscale>  2 0.24706422E+03</rscale>
<asrwt>0</asrwt>
<pdfrwt beam="2">  1        2 0.26636384E+00 0.24706422E+03</pdfrwt>
<pdfrwt beam="1">  1       -2 0.79218167E-02 0.24706422E+03</pdfrwt>
<totfact> 0.99095651E+02</totfact>
</mgrwt>
</event>
<event>
12    1  0.4404304E-002  0.1755148E+03  0.7546771E-02  0.1172216E+00
         -2   -1    0    0    0  501 -0.00000000000E+00  0.00000000000E+00  0.12914954257E+02  0.12914954257E+02  0.00000000000E+00 0.  1.
          2   -1    0    0  502    0  0.00000000000E+00 -0.00000000000E+00 -0.35868192762E+04  0.35868192762E+04  0.00000000000E+00 0. -1.
          6    2    1    2  502    0 -0.22230901654E+02  0.17855792754E+02 -0.74472663672E+03  0.76511309202E+03  0.17311047867E+03 0.  0.
         24    2    3    3    0    0 -0.46004725134E+02 -0.21962404988E+02 -0.67263376529E+03  0.67926348128E+03  0.79774136305E+02 0.  0.
         -6    2    1    2    0  501  0.22230901654E+02 -0.17855792754E+02 -0.28291776852E+04  0.28346211385E+04  0.17325582692E+03 0.  0.
        -24    2    5    5    0    0  0.48963687452E+01  0.38398021948E+02 -0.23678076456E+04  0.23694874145E+04  0.80369013204E+02 0.  0.
          5    1    3    3  502    0  0.23773823480E+02  0.39818197742E+02 -0.72092871430E+02  0.85849610746E+02  0.47000000000E+01 0. -1.
        -11    1    4    4    0    0 -0.26978701909E+02  0.45066021964E+01 -0.62062447435E+02  0.67822615710E+02  0.00000000000E+00 0.  1.
         12    1    4    4    0    0 -0.19026023225E+02 -0.26469007185E+02 -0.61057131785E+03  0.61144086557E+03  0.00000000000E+00 0. -1.
         -5    1    5    5    0  501  0.17334532909E+02 -0.56253814701E+02 -0.46137003961E+03  0.46513372395E+03  0.47000000000E+01 0.  1.
         13    1    6    6    0    0 -0.30822136375E+02  0.30114771481E+02 -0.73091549303E+03  0.73218464987E+03  0.00000000000E+00 0. -1.
        -14    1    6    6    0    0  0.35718505120E+02  0.82832504666E+01 -0.16368921526E+04  0.16373027646E+04  0.00000000000E+00 0.  1.
<mgrwt>
<rscale>  2 0.17551479E+03</rscale>
<asrwt>0</asrwt>
<pdfrwt beam="2">  1        2 0.55181931E+00 0.17551479E+03</pdfrwt>
<pdfrwt beam="1">  1       -2 0.19869126E-02 0.17551479E+03</pdfrwt>
<totfact> 0.71259021E+02</totfact>
</mgrwt>
</event>
<event>
12    1  0.4404304E-002  0.2015223E+03  0.7546771E-02  0.1148461E+00
         -2   -1    0    0    0  501 -0.00000000000E+00  0.00000000000E+00  0.12780258997E+03  0.12780258997E+03  0.00000000000E+00 0. -1.
          2   -1    0    0  502    0  0.00000000000E+00 -0.00000000000E+00 -0.20282003195E+04  0.20282003195E+04  0.00000000000E+00 0.  1.
          6    2    1    2  502    0 -0.10463882097E+03 -0.60795819457E+01  0.38854106818E+02  0.20643348484E+03  0.17354796996E+03 0.  0.
         24    2    3    3    0    0  0.13232568090E+01 -0.51207998726E+01 -0.25195383431E+02  0.82525017043E+02  0.78406616378E+02 0.  0.
         -6    2    1    2    0  501  0.10463882097E+03  0.60795819457E+01 -0.19392518364E+04  0.19495694246E+04  0.17069567209E+03 0.  0.
        -24    2    5    5    0    0  0.47180923378E+02 -0.51788625688E+02 -0.72563410879E+03  0.73320590244E+03  0.78344969541E+02 0.  0.
          5    1    3    3  502    0 -0.10596207778E+03 -0.95878207307E+00  0.64049490249E+02  0.12390846780E+03  0.47000000000E+01 0. -1.
        -13    1    4    4    0    0 -0.21583363873E+02  0.23376421670E+02 -0.32233701474E+02  0.45291392084E+02  0.00000000000E+00 0.  1.
         14    1    4    4    0    0  0.22906620682E+02 -0.28497221543E+02  0.70383180438E+01  0.37233624959E+02  0.00000000000E+00 0. -1.
         -5    1    5    5    0  501  0.57457897595E+02  0.57868207634E+02 -0.12136177276E+04  0.12163635222E+04  0.47000000000E+01 0.  1.
         13    1    6    6    0    0  0.58085138162E+02 -0.61280962988E+02 -0.49750199254E+03  0.50461616331E+03  0.00000000000E+00 0. -1.
        -14    1    6    6    0    0 -0.10904214784E+02  0.94923373003E+01 -0.22813211626E+03  0.22858973913E+03  0.00000000000E+00 0.  1.
<mgrwt>
<rscale>  2 0.20152229E+03</rscale>
<asrwt>0</asrwt>
<pdfrwt beam="2">  1        2 0.31203085E+00 0.20152229E+03</pdfrwt>
<pdfrwt beam="1">  1       -2 0.19661935E-01 0.20152229E+03</pdfrwt>
<totfact> 0.15985998E+02</totfact>
</mgrwt>
</event>
<event>
12    1  0.4404304E-002  0.1873512E+03  0.7546771E-02  0.1160872E+00
          1   -1    0    0  502    0  0.00000000000E+00  0.00000000000E+00  0.91411632884E+03  0.91411632884E+03  0.00000000000E+00 0.  1.
         -1   -1    0    0    0  501 -0.00000000000E+00 -0.00000000000E+00 -0.42368142515E+02  0.42368142515E+02  0.00000000000E+00 0. -1.
          6    2    1    2  502    0  0.38358152391E+02  0.55268872695E+02  0.58651110922E+03  0.61634020192E+03  0.17707051454E+03 0.  0.
         24    2    3    3    0    0  0.16377034019E+02 -0.18074558616E+02  0.46914609230E+03  0.47612941176E+03  0.77500089734E+02 0.  0.
         -6    2    1    2    0  501 -0.38358152391E+02 -0.55268872695E+02  0.28523707710E+03  0.34014426943E+03  0.17266133826E+03 0.  0.
        -24    2    5    5    0    0  0.32859592775E+02 -0.14623446476E+02  0.21309921337E+03  0.23082830864E+03  0.81097689913E+02 0.  0.
          5    1    3    3  502    0  0.21981118372E+02  0.73343431310E+02  0.11736501692E+03  0.14021079016E+03  0.47000000000E+01 0. -1.
        -13    1    4    4    0    0  0.36906346428E+02 -0.31461491686E+02  0.19698079632E+03  0.20286285511E+03  0.00000000000E+00 0.  1.
         14    1    4    4    0    0 -0.20529312410E+02  0.13386933070E+02  0.27216529598E+03  0.27326655664E+03  0.00000000000E+00 0. -1.
         -5    1    5    5    0  501 -0.71217745166E+02 -0.40645426218E+02  0.72137863737E+02  0.10931596079E+03  0.47000000000E+01 0.  1.
         11    1    6    6    0    0  0.42179364948E+02  0.19311763478E+02  0.73936486511E+02  0.87284861652E+02  0.00000000000E+00 0. -1.
        -12    1    6    6    0    0 -0.93197721733E+01 -0.33935209954E+02  0.13916272686E+03  0.14354344699E+03  0.00000000000E+00 0.  1.
<mgrwt>
<rscale>  2 0.18735123E+03</rscale>
<asrwt>0</asrwt>
<pdfrwt beam="1">  1        1 0.14063327E+00 0.18735123E+03</pdfrwt>
<pdfrwt beam="2">  1       -1 0.65181764E-02 0.18735123E+03</pdfrwt>
<totfact> 0.21809222E+03</totfact>
</mgrwt>
</event>
<event>
12    1  0.4404304E-002  0.1870088E+03  0.7546771E-02  0.1161187E+00
         -1   -1    0    0    0  501 -0.00000000000E+00  0.00000000000E+00  0.72632266092E+02  0.72632266092E+02  0.00000000000E+00 0.  1.
          1   -1    0    0  502    0  0.00000000000E+00 -0.00000000000E+00 -0.52000831960E+03  0.52000831960E+03  0.00000000000E+00 0. -1.
          6    2    1    2  502    0  0.58130700649E+02 -0.26065461266E+02 -0.14076877838E+03  0.23238658936E+03  0.17357733527E+03 0.  0.
         24    2    3    3    0    0  0.98454471165E+02 -0.24234139863E+02 -0.62469948873E+02  0.14417005515E+03  0.81252285272E+02 0.  0.
         -6    2    1    2    0  501 -0.58130700649E+02  0.26065461266E+02 -0.30660727513E+03  0.36025399633E+03  0.17809080291E+03 0.  0.
        -24    2    5    5    0    0  0.33049920858E+01 -0.60557612555E+01 -0.26947397297E+03  0.28146891267E+03  0.80999577001E+02 0.  0.
          5    1    3    3  502    0 -0.40323770515E+02 -0.18313214026E+01 -0.78298829509E+02  0.88216534217E+02  0.47000000000E+01 0. -1.
        -11    1    4    4    0    0 -0.46993970181E+01  0.19675703795E+01  0.12824508429E+02  0.13799408754E+02  0.00000000000E+00 0.  1.
         12    1    4    4    0    0  0.10315386818E+03 -0.26201710243E+02 -0.75294457301E+02  0.13037064639E+03  0.00000000000E+00 0. -1.
         -5    1    5    5    0  501 -0.61435692735E+02  0.32121222521E+02 -0.37133302158E+02  0.78785083660E+02  0.47000000000E+01 0.  1.
         11    1    6    6    0    0 -0.25961222153E+02 -0.32540212004E+02 -0.14803193660E+03  0.15377355008E+03  0.00000000000E+00 0. -1.
        -12    1    6    6    0    0  0.29266214239E+02  0.26484450749E+02 -0.12144203638E+03  0.12769536259E+03  0.00000000000E+00 0.  1.
<mgrwt>
<rscale>  2 0.18700881E+03</rscale>
<asrwt>0</asrwt>
<pdfrwt beam="2">  1        1 0.80001277E-01 0.18700881E+03</pdfrwt>
<pdfrwt beam="1">  1       -1 0.11174195E-01 0.18700881E+03</pdfrwt>
<totfact> 0.21723417E+03</totfact>
</mgrwt>
</event>
<event>
11    1  0.4404304E-002  0.1755408E+03  0.7546771E-02  0.1172190E+00
         -2   -1    0    0    0  501 -0.00000000000E+00  0.00000000000E+00  0.19559504036E+03  0.19559504036E+03  0.00000000000E+00 0.  1.
          2   -1    0    0  502    0  0.00000000000E+00 -0.00000000000E+00 -0.37388610952E+03  0.37388610952E+03  0.00000000000E+00 0. -1.
          6    2    1    2  502    0 -0.12498062777E+02  0.13453684582E+02  0.12723421953E+03  0.21761022086E+03  0.17558034743E+03 0.  0.
         -6    2    1    2    0  501  0.12498062777E+02 -0.13453684582E+02 -0.30552528868E+03  0.35187092903E+03  0.17358065983E+03 0.  0.
        -24    2    4    4    0    0 -0.14142443551E+02 -0.44186959902E+02 -0.29561727502E+03  0.30974600144E+03  0.80003224825E+02 0.  0.
          5    1    3    3  502    0 -0.86553607019E+02  0.22933989191E+02  0.95221546588E+02  0.13079268971E+03  0.47000000000E+01 0. -1.
        -11    1    3    3    0    0  0.56289837456E+02 -0.10425411326E+02  0.37216743617E+02  0.68281190731E+02  0.00000000000E+00 0.  1.
         12    1    3    3    0    0  0.17765706786E+02  0.94510671682E+00 -0.52040706794E+01  0.18536340414E+02  0.00000000000E+00 0. -1.
         -5    1    4    4    0  501  0.26640506328E+02  0.30733275320E+02 -0.99080136623E+01  0.42124927586E+02  0.47000000000E+01 0.  1.
         11    1    5    5    0    0 -0.85535557280E+01 -0.53327618966E+02 -0.29398923128E+03  0.29890912728E+03  0.00000000000E+00 0. -1.
        -12    1    5    5    0    0 -0.55888878233E+01  0.91406590637E+01 -0.16280437403E+01  0.10836874164E+02  0.00000000000E+00 0.  1.
<mgrwt>
<rscale>  2 0.17554081E+03</rscale>
<asrwt>0</asrwt>
<pdfrwt beam="2">  1        2 0.57520939E-01 0.17554081E+03</pdfrwt>
<pdfrwt beam="1">  1       -2 0.30091545E-01 0.17554081E+03</pdfrwt>
<totfact> 0.87282207E+02</totfact>
</mgrwt>
</event>
<event>
12    1  0.5600495E-002  0.2021978E+03  0.7546771E-02  0.1147898E+00
          2   -1    0    0  502    0  0.00000000000E+00  0.00000000000E+00  0.78299363809E+03  0.78299363809E+03  0.00000000000E+00 0.  1.
         -2   -1    0    0    0  501 -0.00000000000E+00 -0.00000000000E+00 -0.54383580789E+02  0.54383580789E+02  0.00000000000E+00 0. -1.
          6    2    1    2  502    0 -0.10012002393E+03 -0.34964835827E+02  0.28070352419E+03  0.34594816887E+03  0.17216012349E+03 0.  0.
         24    2    3    3    0    0 -0.12244929636E+03 -0.31780376683E+02  0.14477810861E+03  0.20808393934E+03  0.79588960010E+02 0.  0.
         -6    2    1    2    0  501  0.10012002393E+03  0.34964835827E+02  0.44790653312E+03  0.49142905001E+03  0.17215019560E+03 0.  0.
        -24    2    5    5    0    0  0.56191188790E+02 -0.34248270816E+02  0.14961505721E+03  0.18204241279E+03  0.80152236152E+02 0.  0.
          5    1    3    3  502    0  0.22329272425E+02 -0.31844591440E+01  0.13592541557E+03  0.13786422954E+03  0.47000000000E+01 0. -1.
        -13    1    4    4    0    0 -0.47299350528E+02 -0.13090738986E+02  0.11514666678E+03  0.12516928888E+03  0.00000000000E+00 0.  1.
         14    1    4    4    0    0 -0.75149945829E+02 -0.18689637697E+02  0.29631441832E+02  0.82914650457E+02  0.00000000000E+00 0. -1.
         -5    1    5    5    0  501  0.43928835143E+02  0.69213106643E+02  0.29829147591E+03  0.30938663722E+03  0.47000000000E+01 0.  1.
         11    1    6    6    0    0  0.67948357174E+01  0.17363251587E+02  0.29151949857E+01  0.18871954321E+02  0.00000000000E+00 0. -1.
        -12    1    6    6    0    0  0.49396353073E+02 -0.51611522402E+02  0.14669986222E+03  0.16317045847E+03  0.00000000000E+00 0.  1.
<mgrwt>
<rscale>  2 0.20219782E+03</rscale>
<asrwt>0</asrwt>
<pdfrwt beam="1">  1        2 0.12046055E+00 0.20219782E+03</pdfrwt>
<pdfrwt beam="2">  1       -2 0.83667053E-02 0.20219782E+03</pdfrwt>
<totfact> 0.31830057E+03</totfact>
</mgrwt>
</event>
<event>
12    1  0.4404304E-002  0.1885869E+03  0.7546771E-02  0.1159742E+00
          4   -1    0    0  502    0  0.00000000000E+00  0.00000000000E+00  0.18831120947E+03  0.18831120947E+03  0.00000000000E+00 0.  1.
         -4   -1    0    0    0  501 -0.00000000000E+00 -0.00000000000E+00 -0.21778472300E+03  0.21778472300E+03  0.00000000000E+00 0. -1.
          6    2    1    2  502    0  0.30953308926E+02 -0.71602566586E+02 -0.88702538426E+02  0.20804400203E+03  0.17125750081E+03 0.  0.
         24    2    3    3    0    0 -0.40496266345E+02 -0.63291688370E+02 -0.26091109928E+02  0.11256419536E+03  0.79650277185E+02 0.  0.
         -6    2    1    2    0  501 -0.30953308926E+02  0.71602566586E+02  0.59229024890E+02  0.19805193044E+03  0.17213789498E+03 0.  0.
        -24    2    5    5    0    0 -0.55815086175E+02  0.97107222528E+02  0.11385706991E+02  0.13822159942E+03  0.80190022510E+02 0.  0.
          5    1    3    3  502    0  0.71449575271E+02 -0.83108782156E+01 -0.62611428498E+02  0.95479806670E+02  0.47000000000E+01 0. -1.
        -11    1    4    4    0    0 -0.50958426274E+01 -0.71893736613E+01  0.26488745621E+02  0.27916094825E+02  0.00000000000E+00 0.  1.
         12    1    4    4    0    0 -0.35400423718E+02 -0.56102314709E+02 -0.52579855549E+02  0.84648100538E+02  0.00000000000E+00 0. -1.
         -5    1    5    5    0  501  0.24861777249E+02 -0.25504655942E+02  0.47843317899E+02  0.59830331022E+02  0.47000000000E+01 0.  1.
         11    1    6    6    0    0 -0.49441369063E+02  0.10168243971E+02  0.67580747132E+01  0.50926552349E+02  0.00000000000E+00 0. -1.
        -12    1    6    6    0    0 -0.63737171122E+01  0.86938978557E+02  0.46276322779E+01  0.87295047070E+02  0.00000000000E+00 0.  1.
<mgrwt>
<rscale>  2 0.18858687E+03</rscale>
<asrwt>0</asrwt>
<pdfrwt beam="1">  1        4 0.28970955E-01 0.18858687E+03</pdfrwt>
<pdfrwt beam="2">  1       -4 0.33505342E-01 0.18858687E+03</pdfrwt>
<totfact> 0.17223007E+02</totfact>
</mgrwt>
</event>
<event>
12    1  0.4404304E-002  0.3235046E+03  0.7546771E-02  0.1074048E+00
         -2   -1    0    0    0  501 -0.00000000000E+00  0.00000000000E+00  0.38037180069E+02  0.38037180069E+02  0.00000000000E+00 0. -1.
          2   -1    0    0  502    0  0.00000000000E+00 -0.00000000000E+00 -0.27515142012E+04  0.27515142012E+04  0.00000000000E+00 0.  1.
          6    2    1    2  502    0 -0.25568757800E+03  0.89121549420E+02 -0.13642953416E+04  0.14026182343E+04  0.18087936335E+03 0.  0.
         24    2    3    3    0    0 -0.12944662843E+03  0.97050624467E+02 -0.10175117229E+04  0.10334561890E+04  0.80785734247E+02 0.  0.
         -6    2    1    2    0  501  0.25568757800E+03 -0.89121549420E+02 -0.13491816795E+04  0.13869331469E+04  0.17312874268E+03 0.  0.
        -24    2    5    5    0    0  0.97814156886E+02  0.96879875690E+01 -0.70698378098E+03  0.71825716216E+03  0.80036354479E+02 0.  0.
          5    1    3    3  502    0 -0.12624094957E+03 -0.79290750465E+01 -0.34678361864E+03  0.36916204537E+03  0.47000000000E+01 0. -1.
        -11    1    4    4    0    0 -0.11324061312E+03  0.10615257844E+03 -0.78470055841E+03  0.79990422723E+03  0.00000000000E+00 0.  1.
         12    1    4    4    0    0 -0.16206015308E+02 -0.91019539778E+01 -0.23281116452E+03  0.23355196172E+03  0.00000000000E+00 0. -1.
         -5    1    5    5    0  501  0.15787342112E+03 -0.98809536989E+02 -0.64219789856E+03  0.66867598477E+03  0.47000000000E+01 0.  1.
         11    1    6    6    0    0  0.24446891005E+02 -0.34908237141E+01 -0.39228282692E+02  0.46354012695E+02  0.00000000000E+00 0. -1.
        -12    1    6    6    0    0  0.73367265881E+02  0.13178811283E+02 -0.66775549829E+03  0.67190314946E+03  0.00000000000E+00 0.  1.
<mgrwt>
<rscale>  2 0.32350464E+03</rscale>
<asrwt>0</asrwt>
<pdfrwt beam="2">  1        2 0.42330991E+00 0.32350464E+03</pdfrwt>
<pdfrwt beam="1">  1       -2 0.58518734E-02 0.32350464E+03</pdfrwt>
<totfact> 0.44177317E+02</totfact>
</mgrwt>
</event>
<event>
12    1  0.4404304E-002  0.2053396E+03  0.7546771E-02  0.1145311E+00
          2   -1    0    0  502    0  0.00000000000E+00  0.00000000000E+00  0.22122045266E+03  0.22122045266E+03  0.00000000000E+00 0.  1.
         -2   -1    0    0    0  501 -0.00000000000E+00 -0.00000000000E+00 -0.19080261109E+03  0.19080261109E+03  0.00000000000E+00 0. -1.
          6    2    1    2  502    0  0.10929805305E+03  0.10932272108E+02  0.20830205803E+02  0.20313780786E+03  0.16960392842E+03 0.  0.
         24    2    3    3    0    0 -0.67329168825E+01 -0.16780102286E+02  0.80176506112E+01  0.83065274578E+02  0.80676223988E+02 0.  0.
         -6    2    1    2    0  501 -0.10929805305E+03 -0.10932272108E+02  0.95876357755E+01  0.20888525589E+03  0.17741349552E+03 0.  0.
        -24    2    5    5    0    0  0.53805634500E+01 -0.22468037468E+02  0.35719685184E+02  0.90609167972E+02  0.80002263969E+02 0.  0.
          5    1    3    3  502    0  0.11603096994E+03  0.27712374394E+02  0.12812555191E+02  0.12007253329E+03  0.47000000000E+01 0. -1.
        -11    1    4    4    0    0  0.77966931175E+01 -0.41461970039E+00  0.41959526457E+02  0.42679763279E+02  0.00000000000E+00 0.  1.
         12    1    4    4    0    0 -0.14529610000E+02 -0.16365482586E+02 -0.33941875845E+02  0.40385511299E+02  0.00000000000E+00 0. -1.
         -5    1    5    5    0  501 -0.11467861650E+03  0.11535765360E+02 -0.26132049408E+02  0.11827608791E+03  0.47000000000E+01 0.  1.
         11    1    6    6    0    0  0.34315882452E+01 -0.18215189837E+02  0.61590289313E+02  0.64318991568E+02  0.00000000000E+00 0. -1.
        -12    1    6    6    0    0  0.19489752048E+01 -0.42528476313E+01 -0.25870604129E+02  0.26290176404E+02  0.00000000000E+00 0.  1.
<mgrwt>
<rscale>  2 0.20533955E+03</rscale>
<asrwt>0</asrwt>
<pdfrwt beam="1">  1        2 0.34033916E-01 0.20533955E+03</pdfrwt>
<pdfrwt beam="2">  1       -2 0.29354248E-01 0.20533955E+03</pdfrwt>
<totfact> 0.16093476E+03</totfact>
</mgrwt>
</event>
<event>
12    1  0.4404304E-002  0.3587815E+03  0.7546771E-02  0.1059067E+00
          2   -1    0    0  502    0  0.00000000000E+00  0.00000000000E+00  0.16377992120E+04  0.16377992120E+04  0.00000000000E+00 0. -1.
         -2   -1    0    0    0  501 -0.00000000000E+00 -0.00000000000E+00 -0.94569166142E+02  0.94569166142E+02  0.00000000000E+00 0.  1.
          6    2    1    2  502    0  0.17948521318E+03 -0.25836190823E+03  0.11287207300E+04  0.11845614976E+04  0.17380919972E+03 0.  0.
         24    2    3    3    0    0  0.13915347038E+03 -0.12667749885E+03  0.48294506213E+03  0.52424662092E+03  0.78661995173E+02 0.  0.
         -6    2    1    2    0  501 -0.17948521318E+03  0.25836190823E+03  0.41450931588E+03  0.54780688055E+03  0.17119751182E+03 0.  0.
        -24    2    5    5    0    0 -0.11944521692E+03  0.18993111831E+03  0.38331690138E+03  0.45146046970E+03  0.80893258514E+02 0.  0.
          5    1    3    3  502    0  0.40331742800E+02 -0.13168440939E+03  0.64577566787E+03  0.66031487668E+03  0.47000000000E+01 0. -1.
        -13    1    4    4    0    0  0.13400893714E+03 -0.13091015781E+03  0.40740693775E+03  0.44841529588E+03  0.00000000000E+00 0.  1.
         14    1    4    4    0    0  0.51445332466E+01  0.42326589593E+01  0.75538124375E+02  0.75831325046E+02  0.00000000000E+00 0. -1.
         -5    1    5    5    0  501 -0.60039996262E+02  0.68430789929E+02  0.31192414495E+02  0.96346410849E+02  0.47000000000E+01 0.  1.
         13    1    6    6    0    0  0.30247462194E+01  0.58382928261E+02  0.10426175095E+03  0.11953337657E+03  0.00000000000E+00 0. -1.
        -14    1    6    6    0    0 -0.12246996314E+03  0.13154819004E+03  0.27905515043E+03  0.33192709314E+03  0.00000000000E+00 0.  1.
<mgrwt>
<rscale>  2 0.35878147E+03</rscale>
<asrwt>0</asrwt>
<pdfrwt beam="1">  1        2 0.25196909E+00 0.35878147E+03</pdfrwt>
<pdfrwt beam="2">  1       -2 0.14549104E-01 0.35878147E+03</pdfrwt>
<totfact> 0.41167122E+02</totfact>
</mgrwt>
</event>
<event>
12    1  0.4404304E-002  0.2195586E+03  0.7546771E-02  0.1134213E+00
         -4   -1    0    0    0  501 -0.00000000000E+00  0.00000000000E+00  0.29778489280E+03  0.29778489280E+03  0.00000000000E+00 0.  1.
          4   -1    0    0  502    0  0.00000000000E+00 -0.00000000000E+00 -0.16687627763E+03  0.16687627763E+03  0.00000000000E+00 0. -1.
          6    2    1    2  502    0  0.11178662715E+03  0.62791533345E+02  0.24353036011E+02  0.21710550138E+03  0.17350130172E+03 0.  0.
         24    2    3    3    0    0  0.71224289015E+02  0.60014301016E+02  0.80584594460E+02  0.14755627810E+03  0.81267229989E+02 0.  0.
         -6    2    1    2    0  501 -0.11178662715E+03 -0.62791533345E+02  0.10655557916E+03  0.24755566904E+03  0.18300462058E+03 0.  0.
        -24    2    5    5    0    0 -0.76295689597E+01 -0.20637677398E+02 -0.55865899451E+01  0.88736285989E+02  0.85783415722E+02 0.  0.
          5    1    3    3  502    0  0.40562338130E+02  0.27772323285E+01 -0.56231558449E+02  0.69549223285E+02  0.47000000000E+01 0. -1.
        -13    1    4    4    0    0  0.31114305805E+02  0.41561117392E+02  0.88592934304E+02  0.10268463621E+03  0.00000000000E+00 0.  1.
         14    1    4    4    0    0  0.40109983210E+02  0.18453183624E+02 -0.80083398440E+01  0.44871641891E+02  0.00000000000E+00 0. -1.
         -5    1    5    5    0  501 -0.10415705819E+03 -0.42153855947E+02  0.11214216911E+03  0.15881938305E+03  0.47000000000E+01 0.  1.
         13    1    6    6    0    0 -0.35817440412E+02 -0.40495783700E+02 -0.42564565369E+01  0.54230203368E+02  0.00000000000E+00 0. -1.
        -14    1    6    6    0    0  0.28187871452E+02  0.19858106302E+02 -0.13301334082E+01  0.34506082620E+02  0.00000000000E+00 0.  1.
<mgrwt>
<rscale>  2 0.21955858E+03</rscale>
<asrwt>0</asrwt>
<pdfrwt beam="2">  1        4 0.25673274E-01 0.21955858E+03</pdfrwt>
<pdfrwt beam="1">  1       -4 0.45813060E-01 0.21955858E+03</pdfrwt>
<totfact> 0.11894081E+02</totfact>
</mgrwt>
</event>
<event>
12    1  0.4404304E-002  0.2003957E+03  0.7546771E-02  0.1149406E+00
          1   -1    0    0  502    0  0.00000000000E+00  0.00000000000E+00  0.25872680606E+03  0.25872680606E+03  0.00000000000E+00 0. -1.
         -1   -1    0    0    0  501 -0.00000000000E+00 -0.00000000000E+00 -0.26091503903E+03  0.26091503903E+03  0.00000000000E+00 0.  1.
          6    2    1    2  502    0  0.19716357268E+02 -0.98540874919E+02 -0.16646154390E+03  0.25999856655E+03  0.17260002965E+03 0.  0.
         24    2    3    3    0    0 -0.33032009992E+02 -0.83696863240E+02 -0.49444208496E+02  0.13070091878E+03  0.80880911327E+02 0.  0.
         -6    2    1    2    0  501 -0.19716357268E+02  0.98540874919E+02  0.16427331093E+03  0.25964327855E+03  0.17415473762E+03 0.  0.
        -24    2    5    5    0    0 -0.78588643339E+02  0.46082763162E+02  0.10708537063E+03  0.16212225480E+03  0.80725169415E+02 0.  0.
          5    1    3    3  502    0  0.52748367261E+02 -0.14844011679E+02 -0.11701733540E+03  0.12929764776E+03  0.47000000000E+01 0. -1.
        -11    1    4    4    0    0  0.24008103507E+01  0.83663899233E+01  0.11744491214E+02  0.14618257234E+02  0.00000000000E+00 0.  1.
         12    1    4    4    0    0 -0.35432820343E+02 -0.92063253164E+02 -0.61188699710E+02  0.11608266155E+03  0.00000000000E+00 0. -1.
         -5    1    5    5    0  501  0.58872286070E+02  0.52458111757E+02  0.57187940301E+02  0.97521023744E+02  0.47000000000E+01 0.  1.
         13    1    6    6    0    0 -0.56632903816E+02  0.84817648528E+01  0.10368548695E+03  0.11844790557E+03  0.00000000000E+00 0. -1.
        -14    1    6    6    0    0 -0.21955739522E+02  0.37600998309E+02  0.33998836770E+01  0.43674349232E+02  0.00000000000E+00 0.  1.
<mgrwt>
<rscale>  2 0.20039575E+03</rscale>
<asrwt>0</asrwt>
<pdfrwt beam="1">  1        1 0.39804124E-01 0.20039575E+03</pdfrwt>
<pdfrwt beam="2">  1       -1 0.40140775E-01 0.20039575E+03</pdfrwt>
<totfact> 0.65074007E+02</totfact>
</mgrwt>
</event>
<event>
12    1  0.4404304E-002  0.2325723E+03  0.7546771E-02  0.1124842E+00
         -1   -1    0    0    0  501 -0.00000000000E+00  0.00000000000E+00  0.67099251150E+03  0.67099251150E+03  0.00000000000E+00 0. -1.
          1   -1    0    0  502    0  0.00000000000E+00 -0.00000000000E+00 -0.10801009247E+03  0.10801009247E+03  0.00000000000E+00 0.  1.
          6    2    1    2  502    0  0.81725984747E+02  0.13313343475E+03  0.84793239348E+02  0.24699971282E+03  0.17150894048E+03 0.  0.
         24    2    3    3    0    0  0.22806799929E+02  0.46256285567E+02 -0.23810592684E+02  0.95883890613E+02  0.77246243129E+02 0.  0.
         -6    2    1    2    0  501 -0.81725984747E+02 -0.13313343475E+03  0.47818917968E+03  0.53200289115E+03  0.17308534485E+03 0.  0.
        -24    2    5    5    0    0  0.20572163284E+02 -0.43847092790E+02  0.24068495152E+03  0.25838397671E+03  0.80543479441E+02 0.  0.
          5    1    3    3  502    0  0.58919184818E+02  0.86877149183E+02  0.10860383203E+03  0.15111582221E+03  0.47000000000E+01 0. -1.
        -13    1    4    4    0    0  0.46570875454E+02  0.79192540697E+01 -0.17319307547E+02  0.50314207134E+02  0.00000000000E+00 0.  1.
         14    1    4    4    0    0 -0.23764075525E+02  0.38337031498E+02 -0.64912851368E+01  0.45569683479E+02  0.00000000000E+00 0. -1.
         -5    1    5    5    0  501 -0.10229814803E+03 -0.89286341960E+02  0.23750422816E+03  0.27361891445E+03  0.47000000000E+01 0.  1.
         11    1    6    6    0    0 -0.29217388102E+02 -0.26996349710E+02  0.80450797485E+02  0.89748478990E+02  0.00000000000E+00 0. -1.
        -12    1    6    6    0    0  0.49789551386E+02 -0.16850743081E+02  0.16023415404E+03  0.16863549772E+03  0.00000000000E+00 0.  1.
<mgrwt>
<rscale>  2 0.23257234E+03</rscale>
<asrwt>0</asrwt>
<pdfrwt beam="2">  1        1 0.16616938E-01 0.23257234E+03</pdfrwt>
<pdfrwt beam="1">  1       -1 0.10322961E+00 0.23257234E+03</pdfrwt>
<totfact> 0.30695393E+02</totfact>
</mgrwt>
</event>
<event>
12    1  0.4404304E-002  0.1743840E+03  0.7546771E-02  0.1173352E+00
         -2   -1    0    0    0  501 -0.00000000000E+00  0.00000000000E+00  0.76603247992E+02  0.76603247992E+02  0.00000000000E+00 0. -1.
          2   -1    0    0  502    0  0.00000000000E+00 -0.00000000000E+00 -0.70050095941E+03  0.70050095941E+03  0.00000000000E+00 0.  1.
          6    2    1    2  502    0  0.12782986853E+01  0.18815451669E+02 -0.56748095093E+03  0.59360306226E+03  0.17313090594E+03 0.  0.
         24    2    3    3    0    0 -0.44087593830E+02 -0.34117010181E+02 -0.23206869489E+03  0.25099048044E+03  0.77670173236E+02 0.  0.
         -6    2    1    2    0  501 -0.12782986853E+01 -0.18815451669E+02 -0.56416760494E+02  0.18350114514E+03  0.17359194721E+03 0.  0.
        -24    2    5    5    0    0  0.48002837486E+02 -0.47301920461E+02  0.68719212345E+01  0.98250593701E+02  0.71163275468E+02 0.  0.
          5    1    3    3  502    0  0.45365892515E+02  0.52932461849E+02 -0.33541225604E+03  0.34261258182E+03  0.47000000000E+01 0. -1.
        -13    1    4    4    0    0 -0.39784997736E+02 -0.20146209822E+02 -0.23212716778E+03  0.23637203269E+03  0.00000000000E+00 0.  1.
         14    1    4    4    0    0 -0.43025960937E+01 -0.13970800358E+02  0.58472884472E-01  0.14618447759E+02  0.00000000000E+00 0. -1.
         -5    1    5    5    0  501 -0.49281136171E+02  0.28486468792E+02 -0.63288681728E+02  0.85250551443E+02  0.47000000000E+01 0.  1.
         11    1    6    6    0    0  0.57435068935E+01 -0.54790967685E+02  0.36416983604E+01  0.55211411666E+02  0.00000000000E+00 0. -1.
        -12    1    6    6    0    0  0.42259330592E+02  0.74890472239E+01  0.32302228741E+01  0.43039182035E+02  0.00000000000E+00 0.  1.
<mgrwt>
<rscale>  2 0.17438402E+03</rscale>
<asrwt>0</asrwt>
<pdfrwt beam="2">  1        2 0.10776938E+00 0.17438402E+03</pdfrwt>
<pdfrwt beam="1">  1       -2 0.11785115E-01 0.17438402E+03</pdfrwt>
<totfact> 0.21141015E+03</totfact>
</mgrwt>
</event>
<event>
12    1  0.4404304E-002  0.1922814E+03  0.7546771E-02  0.1156420E+00
          2   -1    0    0  502    0  0.00000000000E+00  0.00000000000E+00  0.23776513230E+03  0.23776513230E+03  0.00000000000E+00 0.  1.
         -2   -1    0    0    0  501 -0.00000000000E+00 -0.00000000000E+00 -0.17985671046E+03  0.17985671046E+03  0.00000000000E+00 0. -1.
          6    2    1    2  502    0  0.75180390309E+02  0.34771416111E+02 -0.47958626593E+02  0.19764670918E+03  0.17292498177E+03 0.  0.
         24    2    3    3    0    0 -0.67220607711E+01  0.37931014425E+02 -0.67766906209E+02  0.11319286086E+03  0.82075101078E+02 0.  0.
         -6    2    1    2    0  501 -0.75180390309E+02 -0.34771416111E+02  0.10586704843E+03  0.21997513357E+03  0.17412663490E+03 0.  0.
        -24    2    5    5    0    0 -0.46324440010E+02 -0.33817113459E+02  0.14208401354E+03  0.17342048694E+03  0.81223441690E+02 0.  0.
          5    1    3    3  502    0  0.81902451080E+02 -0.31595983140E+01  0.19808279616E+02  0.84453848318E+02  0.47000000000E+01 0. -1.
        -13    1    4    4    0    0  0.11486588167E+01  0.63693013388E+02 -0.46408920928E+02  0.78815653986E+02  0.00000000000E+00 0.  1.
         14    1    4    4    0    0 -0.78707195878E+01 -0.25761998963E+02 -0.21357985281E+02  0.34377206877E+02  0.00000000000E+00 0. -1.
         -5    1    5    5    0  501 -0.28855950299E+02 -0.95430265140E+00 -0.36216965111E+02  0.46554646633E+02  0.47000000000E+01 0.  1.
         11    1    6    6    0    0  0.11329383375E+02 -0.31163152312E+02  0.20902948938E+02  0.39197324704E+02  0.00000000000E+00 0. -1.
        -12    1    6    6    0    0 -0.57653823385E+02 -0.26539611469E+01  0.12118106461E+03  0.13422316223E+03  0.00000000000E+00 0.  1.
<mgrwt>
<rscale>  2 0.19228136E+03</rscale>
<asrwt>0</asrwt>
<pdfrwt beam="1">  1        2 0.36579251E-01 0.19228136E+03</pdfrwt>
<pdfrwt beam="2">  1       -2 0.27670263E-01 0.19228136E+03</pdfrwt>
<totfact> 0.16522228E+03</totfact>
</mgrwt>
</event>
<event>
12    1  0.4404304E-002  0.3430247E+03  0.7546771E-02  0.1065515E+00
          1   -1    0    0  502    0  0.00000000000E+00  0.00000000000E+00  0.17512581206E+03  0.17512581206E+03  0.00000000000E+00 0.  1.
         -1   -1    0    0    0  501 -0.00000000000E+00 -0.00000000000E+00 -0.67229593831E+03  0.67229593831E+03  0.00000000000E+00 0. -1.
          6    2    1    2  502    0 -0.20142583786E+03 -0.21674587166E+03 -0.25869953708E+03  0.42937761361E+03  0.17288303428E+03 0.  0.
         24    2    3    3    0    0 -0.11064253400E+03 -0.15062082959E+03 -0.23544512299E+03  0.31458655462E+03  0.92746373370E+02 0.  0.
         -6    2    1    2    0  501  0.20142583786E+03  0.21674587166E+03 -0.23847058917E+03  0.41804413675E+03  0.17418822386E+03 0.  0.
        -24    2    5    5    0    0  0.22188446494E+02  0.78622740305E+02 -0.59803212305E+02  0.12968990419E+03  0.81050506450E+02 0.  0.
          5    1    3    3  502    0 -0.90783303859E+02 -0.66125042078E+02 -0.23254414094E+02  0.11479105899E+03  0.47000000000E+01 0. -1.
        -13    1    4    4    0    0 -0.33388577631E+02  0.25324527752E+01 -0.19306141885E+02  0.38651488300E+02  0.00000000000E+00 0.  1.
         14    1    4    4    0    0 -0.77253956374E+02 -0.15315328236E+03 -0.21613898110E+03  0.27593506632E+03  0.00000000000E+00 0. -1.
         -5    1    5    5    0  501  0.17923739137E+03  0.13812313136E+03 -0.17866737687E+03  0.28835423256E+03  0.47000000000E+01 0.  1.
         11    1    6    6    0    0 -0.18580673410E+02  0.13408637986E+01 -0.33685809670E+02  0.38493806167E+02  0.00000000000E+00 0. -1.
        -12    1    6    6    0    0  0.40769119904E+02  0.77281876506E+02 -0.26117402635E+02  0.91196098022E+02  0.00000000000E+00 0.  1.
<mgrwt>
<rscale>  2 0.34302473E+03</rscale>
<asrwt>0</asrwt>
<pdfrwt beam="1">  1        1 0.26942433E-01 0.34302473E+03</pdfrwt>
<pdfrwt beam="2">  1       -1 0.10343014E+00 0.34302473E+03</pdfrwt>
<totfact> 0.16223948E+02</totfact>
</mgrwt>
</event>
<event>
12    1  0.4404304E-002  0.2634931E+03  0.7546771E-02  0.1105063E+00
          2   -1    0    0  502    0  0.00000000000E+00  0.00000000000E+00  0.64705531301E+03  0.64705531301E+03  0.00000000000E+00 0.  1.
         -2   -1    0    0    0  501 -0.00000000000E+00 -0.00000000000E+00 -0.11620459177E+03  0.11620459177E+03  0.00000000000E+00 0. -1.
          6    2    1    2  502    0  0.15292057852E+03 -0.12743758125E+03  0.37129507349E+03  0.45542904930E+03  0.17300447076E+03 0.  0.
         24    2    3    3    0    0  0.35058135570E+02 -0.11418269883E+03  0.18580989726E+03  0.23521531684E+03  0.80834186912E+02 0.  0.
         -6    2    1    2    0  501 -0.15292057852E+03  0.12743758125E+03  0.15955564775E+03  0.30783085547E+03  0.17226952836E+03 0.  0.
        -24    2    5    5    0    0 -0.58491306143E+01  0.35085208527E+02  0.47368489415E+02  0.10102896952E+03  0.81840666584E+02 0.  0.
          5    1    3    3  502    0  0.11786244295E+03 -0.13254882423E+02  0.18548517623E+03  0.22021373247E+03  0.47000000000E+01 0. -1.
        -13    1    4    4    0    0  0.30274845606E+02 -0.69659839248E+01  0.73879297054E+02  0.80145129245E+02  0.00000000000E+00 0.  1.
         14    1    4    4    0    0  0.47832899641E+01 -0.10721671490E+03  0.11193060021E+03  0.15507018759E+03  0.00000000000E+00 0. -1.
         -5    1    5    5    0  501 -0.14707144790E+03  0.92352372722E+02  0.11218715834E+03  0.20680188595E+03  0.47000000000E+01 0.  1.
         11    1    6    6    0    0 -0.15867998588E+02  0.56784946009E+02  0.15082649238E+02  0.60858933448E+02  0.00000000000E+00 0. -1.
        -12    1    6    6    0    0  0.10018867974E+02 -0.21699737482E+02  0.32285840177E+02  0.40170036074E+02  0.00000000000E+00 0.  1.
<mgrwt>
<rscale>  2 0.26349306E+03</rscale>
<asrwt>0</asrwt>
<pdfrwt beam="1">  1        2 0.99546969E-01 0.26349306E+03</pdfrwt>
<pdfrwt beam="2">  1       -2 0.17877630E-01 0.26349306E+03</pdfrwt>
<totfact> 0.11764864E+03</totfact>
</mgrwt>
</event>
<event>
12    1  0.4404304E-002  0.1869500E+03  0.7546771E-02  0.1161241E+00
         -1   -1    0    0    0  501 -0.00000000000E+00  0.00000000000E+00  0.36227833716E+02  0.36227833716E+02  0.00000000000E+00 0.  1.
          1   -1    0    0  502    0  0.00000000000E+00 -0.00000000000E+00 -0.97177715677E+03  0.97177715677E+03  0.00000000000E+00 0. -1.
          6    2    1    2  502    0  0.29327691949E+02 -0.53422083279E+02 -0.41952541472E+03  0.45835325076E+03  0.17427592030E+03 0.  0.
         24    2    3    3    0    0 -0.16167500453E+02 -0.31638979210E+02 -0.38971309247E+03  0.39957246554E+03  0.80743096881E+02 0.  0.
         -6    2    1    2    0  501 -0.29327691949E+02  0.53422083279E+02 -0.51602390834E+03  0.54965173972E+03  0.17922703062E+03 0.  0.
        -24    2    5    5    0    0 -0.64901608098E+02  0.46276478596E+02 -0.49430917940E+03  0.50710549865E+03  0.80378421958E+02 0.  0.
          5    1    3    3  502    0  0.45495192401E+02 -0.21783104069E+02 -0.29812322243E+02  0.58780785228E+02  0.47000000000E+01 0. -1.
        -11    1    4    4    0    0 -0.12818070740E+01 -0.51003513096E+02 -0.14637708421E+03  0.15501371604E+03  0.00000000000E+00 0.  1.
         12    1    4    4    0    0 -0.14885693379E+02  0.19364533886E+02 -0.24333600826E+03  0.24455874950E+03  0.00000000000E+00 0. -1.
         -5    1    5    5    0  501  0.35573916149E+02  0.71456046829E+01 -0.21714728938E+02  0.42546241072E+02  0.47000000000E+01 0.  1.
         13    1    6    6    0    0 -0.68696024408E+02  0.61897342778E+02 -0.35396700994E+03  0.36584569007E+03  0.00000000000E+00 0. -1.
        -14    1    6    6    0    0  0.37944163104E+01 -0.15620864182E+02 -0.14034216946E+03  0.14125980858E+03  0.00000000000E+00 0.  1.
<mgrwt>
<rscale>  2 0.18694997E+03</rscale>
<asrwt>0</asrwt>
<pdfrwt beam="2">  1        1 0.14950414E+00 0.18694997E+03</pdfrwt>
<pdfrwt beam="1">  1       -1 0.55735144E-02 0.18694997E+03</pdfrwt>
<totfact> 0.24939204E+03</totfact>
</mgrwt>
</event>
<event>
12    1  0.4404304E-002  0.2448017E+03  0.7546771E-02  0.1116635E+00
          2   -1    0    0  502    0  0.00000000000E+00  0.00000000000E+00  0.68533539174E+03  0.68533539174E+03  0.00000000000E+00 0.  1.
         -2   -1    0    0    0  501 -0.00000000000E+00 -0.00000000000E+00 -0.10681397179E+03  0.10681397179E+03  0.00000000000E+00 0. -1.
          6    2    1    2  502    0  0.71129555625E+02 -0.15154904734E+03  0.11639373689E+03  0.26704792423E+03  0.17245452855E+03 0.  0.
         24    2    3    3    0    0 -0.20436299195E+02 -0.11924659226E+03  0.65717602246E+02  0.15742167283E+03  0.76324227762E+02 0.  0.
         -6    2    1    2    0  501 -0.71129555625E+02  0.15154904734E+03  0.46212768305E+03  0.52510143930E+03  0.18477824188E+03 0.  0.
        -24    2    5    5    0    0 -0.11164296643E+03  0.14106985851E+03  0.42667818591E+03  0.47005685099E+03  0.80835090789E+02 0.  0.
          5    1    3    3  502    0  0.91565854820E+02 -0.32302455082E+02  0.50676134648E+02  0.10962625140E+03  0.47000000000E+01 0. -1.
        -11    1    4    4    0    0  0.13761944238E+02 -0.45319576382E+02  0.59046585591E+02  0.75695141077E+02  0.00000000000E+00 0.  1.
         12    1    4    4    0    0 -0.34198243433E+02 -0.73927015873E+02  0.66710166546E+01  0.81726531757E+02  0.00000000000E+00 0. -1.
         -5    1    5    5    0  501  0.40513410804E+02  0.10479188829E+02  0.35449497145E+02  0.55044588302E+02  0.47000000000E+01 0.  1.
         11    1    6    6    0    0 -0.96679232732E+02  0.92837438320E+02  0.22274060683E+03  0.25995969289E+03  0.00000000000E+00 0. -1.
        -12    1    6    6    0    0 -0.14963733697E+02  0.48232420188E+02  0.20393757908E+03  0.21009715811E+03  0.00000000000E+00 0.  1.
<mgrwt>
<rscale>  2 0.24480175E+03</rscale>
<asrwt>0</asrwt>
<pdfrwt beam="1">  1        2 0.10543621E+00 0.24480175E+03</pdfrwt>
<pdfrwt beam="2">  1       -2 0.16432919E-01 0.24480175E+03</pdfrwt>
<totfact> 0.12649831E+03</totfact>
</mgrwt>
</event>
<event>
12    1  0.4404304E-002  0.1950273E+03  0.7546771E-02  0.1154004E+00
          2   -1    0    0  502    0  0.00000000000E+00  0.00000000000E+00  0.29389552642E+04  0.29389552642E+04  0.00000000000E+00 0.  1.
         -2   -1    0    0    0  501 -0.00000000000E+00 -0.00000000000E+00 -0.19557326771E+02  0.19557326771E+02  0.00000000000E+00 0. -1.
          6    2    1    2  502    0 -0.75542911244E+02  0.45511151240E+02  0.23169436050E+04  0.23250852773E+04  0.17325092087E+03 0.  0.
         24    2    3    3    0    0 -0.70925340855E+02  0.92157387761E+02  0.14964703623E+04  0.15032607064E+04  0.82739458852E+02 0.  0.
         -6    2    1    2    0  501  0.75542911244E+02 -0.45511151240E+02  0.60245433235E+03  0.63342731360E+03  0.17464519096E+03 0.  0.
        -24    2    5    5    0    0  0.28536254951E+02  0.41765931007E+02  0.26690935593E+03  0.28351384427E+03  0.81122036274E+02 0.  0.
          5    1    3    3  502    0 -0.46175703886E+01 -0.46646236521E+02  0.82047324275E+03  0.82182457094E+03  0.47000000000E+01 0. -1.
        -13    1    4    4    0    0  0.10500147939E+02  0.26282077578E+02  0.60451837027E+03  0.60518051911E+03  0.00000000000E+00 0.  1.
         14    1    4    4    0    0 -0.81425488794E+02  0.65875310183E+02  0.89195199201E+03  0.89808018727E+03  0.00000000000E+00 0. -1.
         -5    1    5    5    0  501  0.47006656293E+02 -0.87277082247E+02  0.33554497641E+03  0.34991346933E+03  0.47000000000E+01 0.  1.
         13    1    6    6    0    0  0.53789429331E+02  0.41569347019E+02  0.16358128866E+03  0.17714443632E+03  0.00000000000E+00 0. -1.
        -14    1    6    6    0    0 -0.25253174380E+02  0.19658398831E+00  0.10332806728E+03  0.10636940795E+03  0.00000000000E+00 0.  1.
<mgrwt>
<rscale>  2 0.19502727E+03</rscale>
<asrwt>0</asrwt>
<pdfrwt beam="1">  1        2 0.45214661E+00 0.19502727E+03</pdfrwt>
<pdfrwt beam="2">  1       -2 0.30088218E-02 0.19502727E+03</pdfrwt>
<totfact> 0.96966900E+02</totfact>
</mgrwt>
</event>
<event>
12    1  0.4404304E-002  0.2486654E+03  0.7546771E-02  0.1114151E+00
         -2   -1    0    0    0  501 -0.00000000000E+00  0.00000000000E+00  0.76660067714E+02  0.76660067714E+02  0.00000000000E+00 0.  1.
          2   -1    0    0  502    0  0.00000000000E+00 -0.00000000000E+00 -0.80691313119E+03  0.80691313119E+03  0.00000000000E+00 0. -1.
          6    2    1    2  502    0 -0.25910689557E+01  0.17834079125E+03 -0.37392265952E+03  0.44912673300E+03  0.17344888450E+03 0.  0.
         24    2    3    3    0    0 -0.46688986675E+02  0.41889927682E+02 -0.16009093756E+03  0.19162030622E+03  0.84584903798E+02 0.  0.
         -6    2    1    2    0  501  0.25910689557E+01 -0.17834079125E+03 -0.35633040396E+03  0.43444646591E+03  0.17309021777E+03 0.  0.
        -24    2    5    5    0    0 -0.43567846092E+02 -0.15025035108E+03 -0.18891598724E+03  0.25846523056E+03  0.81496625463E+02 0.  0.
          5    1    3    3  502    0  0.44097917719E+02  0.13645086357E+03 -0.21383172196E+03  0.25750642678E+03  0.47000000000E+01 0. -1.
        -11    1    4    4    0    0 -0.18265715903E+02  0.29938909719E+02 -0.73947050881E+01  0.35842103118E+02  0.00000000000E+00 0.  1.
         12    1    4    4    0    0 -0.28423270772E+02  0.11951017963E+02 -0.15269623247E+03  0.15577820310E+03  0.00000000000E+00 0. -1.
         -5    1    5    5    0  501  0.46158915048E+02 -0.28090440172E+02 -0.16741441672E+03  0.17598123535E+03  0.47000000000E+01 0.  1.
         11    1    6    6    0    0 -0.33602049485E+02 -0.11832892088E+03 -0.18842367270E+03  0.22502069167E+03  0.00000000000E+00 0. -1.
        -12    1    6    6    0    0 -0.99657966069E+01 -0.31921430199E+02 -0.49231453896E+00  0.33444538890E+02  0.00000000000E+00 0.  1.
<mgrwt>
<rscale>  2 0.24866542E+03</rscale>
<asrwt>0</asrwt>
<pdfrwt beam="2">  1        2 0.12414048E+00 0.24866542E+03</pdfrwt>
<pdfrwt beam="1">  1       -2 0.11793856E-01 0.24866542E+03</pdfrwt>
<totfact> 0.17817111E+03</totfact>
</mgrwt>
</event>
<event>
12    1  0.4404304E-002  0.1752320E+03  0.7546771E-02  0.1172499E+00
         -2   -1    0    0    0  501 -0.00000000000E+00  0.00000000000E+00  0.11398105994E+03  0.11398105994E+03  0.00000000000E+00 0. -1.
          2   -1    0    0  502    0  0.00000000000E+00 -0.00000000000E+00 -0.41073771185E+03  0.41073771185E+03  0.00000000000E+00 0.  1.
          6    2    1    2  502    0  0.12264953293E+02 -0.22489234488E+02  0.56415487738E+01  0.17511175309E+03  0.17313608593E+03 0.  0.
         24    2    3    3    0    0 -0.88206665152E+01 -0.60803964494E+02  0.50343371339E+02  0.11239839854E+03  0.79523698985E+02 0.  0.
         -6    2    1    2    0  501 -0.12264953293E+02  0.22489234488E+02 -0.30239820068E+03  0.34960701870E+03  0.17356324784E+03 0.  0.
        -24    2    5    5    0    0  0.20484437042E+02 -0.37905503290E+02 -0.23882778794E+03  0.25588757411E+03  0.81137531078E+02 0.  0.
          5    1    3    3  502    0  0.21085619808E+02  0.38314730006E+02 -0.44701822565E+02  0.62713354549E+02  0.47000000000E+01 0. -1.
        -13    1    4    4    0    0 -0.20650661700E+02  0.12918308726E+02  0.44650949772E+01  0.24764280772E+02  0.00000000000E+00 0.  1.
         14    1    4    4    0    0  0.11829995185E+02 -0.73722273220E+02  0.45878276362E+02  0.87634117767E+02  0.00000000000E+00 0. -1.
         -5    1    5    5    0  501 -0.32749390334E+02  0.60394737778E+02 -0.63570412735E+02  0.93719444588E+02  0.47000000000E+01 0.  1.
         13    1    6    6    0    0  0.21537626121E+02  0.20459733405E+02 -0.49145508807E+02  0.57426048670E+02  0.00000000000E+00 0. -1.
        -14    1    6    6    0    0 -0.10531890797E+01 -0.58365236694E+02 -0.18968227914E+03  0.19846152544E+03  0.00000000000E+00 0.  1.
<mgrwt>
<rscale>  2 0.17523201E+03</rscale>
<asrwt>0</asrwt>
<pdfrwt beam="2">  1        2 0.63190417E-01 0.17523201E+03</pdfrwt>
<pdfrwt beam="1">  1       -2 0.17535548E-01 0.17523201E+03</pdfrwt>
<totfact> 0.20148431E+03</totfact>
</mgrwt>
</event>
<event>
12    1  0.4404304E-002  0.2513030E+03  0.7546771E-02  0.1112484E+00
          1   -1    0    0  502    0  0.00000000000E+00  0.00000000000E+00  0.11129570757E+04  0.11129570757E+04  0.00000000000E+00 0.  1.
         -1   -1    0    0    0  501 -0.00000000000E+00 -0.00000000000E+00 -0.62742498894E+02  0.62742498894E+02  0.00000000000E+00 0. -1.
          6    2    1    2  502    0  0.11090578061E+03 -0.14536792561E+03  0.70431730136E+03  0.74735945693E+03  0.17044462710E+03 0.  0.
         24    2    3    3    0    0  0.21073283104E+02 -0.94384522205E+02  0.52948711240E+03  0.54424158474E+03  0.80559165076E+02 0.  0.
         -6    2    1    2    0  501 -0.11090578061E+03  0.14536792561E+03  0.34589727549E+03  0.42834011770E+03  0.17435138449E+03 0.  0.
        -24    2    5    5    0    0  0.11343183274E+02  0.68868179383E+02  0.17189929101E+03  0.20229939362E+03  0.80648524283E+02 0.  0.
          5    1    3    3  502    0  0.89832497505E+02 -0.50983403400E+02  0.17483018896E+03  0.20311787219E+03  0.47000000000E+01 0. -1.
        -13    1    4    4    0    0  0.28578919745E+02 -0.84448597936E+02  0.26763627189E+03  0.28209483224E+03  0.00000000000E+00 0.  1.
         14    1    4    4    0    0 -0.75056366413E+01 -0.99359242695E+01  0.26185084051E+03  0.26214675251E+03  0.00000000000E+00 0. -1.
         -5    1    5    5    0  501 -0.12224896388E+03  0.76499746223E+02  0.17399798447E+03  0.22604072408E+03  0.47000000000E+01 0.  1.
         13    1    6    6    0    0  0.22031645232E+02 -0.11910503806E+02  0.44744943725E+02  0.51277319368E+02  0.00000000000E+00 0. -1.
        -14    1    6    6    0    0 -0.10688461958E+02  0.80778683188E+02  0.12715434729E+03  0.15102207425E+03  0.00000000000E+00 0.  1.
<mgrwt>
<rscale>  2 0.25130305E+03</rscale>
<asrwt>0</asrwt>
<pdfrwt beam="1">  1        1 0.17122415E+00 0.25130305E+03</pdfrwt>
<pdfrwt beam="2">  1       -1 0.96526930E-02 0.25130305E+03</pdfrwt>
<totfact> 0.85294451E+02</totfact>
</mgrwt>
</event>
<event>
12    1  0.4404304E-002  0.1732786E+03  0.7546771E-02  0.1174471E+00
          2   -1    0    0  502    0  0.00000000000E+00  0.00000000000E+00  0.31641206127E+03  0.31641206127E+03  0.00000000000E+00 0. -1.
         -2   -1    0    0    0  501 -0.00000000000E+00 -0.00000000000E+00 -0.11193898612E+03  0.11193898612E+03  0.00000000000E+00 0.  1.
          6    2    1    2  502    0 -0.10801774122E+02 -0.95775597124E+01  0.18932136298E+02  0.17484570024E+03  0.17321716178E+03 0.  0.
         24    2    3    3    0    0 -0.19556880771E+01  0.60844066969E+02 -0.39377332912E+01  0.10012903759E+03  0.79400838938E+02 0.  0.
         -6    2    1    2    0  501  0.10801774122E+02  0.95775597124E+01  0.18554093886E+03  0.25350534715E+03  0.17213690211E+03 0.  0.
        -24    2    5    5    0    0 -0.53724729142E+02  0.94411845192E+01  0.14709598552E+03  0.17824717378E+03  0.84612903971E+02 0.  0.
          5    1    3    3  502    0 -0.88460860448E+01 -0.70421626681E+02  0.22869869589E+02  0.74716662651E+02  0.47000000000E+01 0. -1.
        -13    1    4    4    0    0  0.33770663791E+02  0.24838932005E+02 -0.20640480141E+02  0.46727504710E+02  0.00000000000E+00 0.  1.
         14    1    4    4    0    0 -0.35726351868E+02  0.36005134964E+02  0.16702746849E+02  0.53401532879E+02  0.00000000000E+00 0. -1.
         -5    1    5    5    0  501  0.64526503263E+02  0.13637519326E+00  0.38444953338E+02  0.75258173368E+02  0.47000000000E+01 0.  1.
         11    1    6    6    0    0 -0.56658490032E+02 -0.27364739024E+02  0.81361523754E+02  0.10285286084E+03  0.00000000000E+00 0. -1.
        -12    1    6    6    0    0  0.29337608907E+01  0.36805923543E+02  0.65734461766E+02  0.75394312945E+02  0.00000000000E+00 0.  1.
<mgrwt>
<rscale>  2 0.17327861E+03</rscale>
<asrwt>0</asrwt>
<pdfrwt beam="1">  1        2 0.48678778E-01 0.17327861E+03</pdfrwt>
<pdfrwt beam="2">  1       -2 0.17221383E-01 0.17327861E+03</pdfrwt>
<totfact> 0.27465006E+03</totfact>
</mgrwt>
</event>
<event>
12    1  0.4404304E-002  0.1830957E+03  0.7546771E-02  0.1164840E+00
          1   -1    0    0  502    0  0.00000000000E+00  0.00000000000E+00  0.15662930057E+04  0.15662930057E+04  0.00000000000E+00 0. -1.
         -1   -1    0    0    0  501 -0.00000000000E+00 -0.00000000000E+00 -0.22377178419E+02  0.22377178419E+02  0.00000000000E+00 0.  1.
          6    2    1    2  502    0  0.57365475157E+02 -0.29061441622E+01  0.60255143275E+03  0.62948640544E+03  0.17287470062E+03 0.  0.
         24    2    3    3    0    0 -0.30858516619E+02  0.23275453592E+02  0.24736539277E+03  0.26254204756E+03  0.79023378878E+02 0.  0.
         -6    2    1    2    0  501 -0.57365475157E+02  0.29061441622E+01  0.94136439449E+03  0.95918377864E+03  0.17483522119E+03 0.  0.
        -24    2    5    5    0    0 -0.48435182236E+02  0.28620179100E+02  0.91783296114E+03  0.92289631413E+03  0.78454958776E+02 0.  0.
          5    1    3    3  502    0  0.88223991775E+02 -0.26181597755E+02  0.35518603998E+03  0.36694435788E+03  0.47000000000E+01 0. -1.
        -13    1    4    4    0    0 -0.38207493565E+02 -0.20515927943E+02  0.13104947883E+03  0.13803869662E+03  0.00000000000E+00 0.  1.
         14    1    4    4    0    0  0.73489769467E+01  0.43791381535E+02  0.11631591394E+03  0.12450335094E+03  0.00000000000E+00 0. -1.
         -5    1    5    5    0  501 -0.89302929208E+01 -0.25714034938E+02  0.23531433353E+02  0.36287464503E+02  0.47000000000E+01 0.  1.
         13    1    6    6    0    0 -0.12595791403E+02 -0.26473701731E+02  0.21351876540E+03  0.21552209637E+03  0.00000000000E+00 0. -1.
        -14    1    6    6    0    0 -0.35839390834E+02  0.55093880832E+02  0.70431419574E+03  0.70737421776E+03  0.00000000000E+00 0.  1.
<mgrwt>
<rscale>  2 0.18309566E+03</rscale>
<asrwt>0</asrwt>
<pdfrwt beam="1">  1        1 0.24096807E+00 0.18309566E+03</pdfrwt>
<pdfrwt beam="2">  1       -1 0.34426441E-02 0.18309566E+03</pdfrwt>
<totfact> 0.19904378E+03</totfact>
</mgrwt>
</event>
<event>
12    1  0.4404304E-002  0.2247790E+03  0.7546771E-02  0.1130369E+00
         -2   -1    0    0    0  501 -0.00000000000E+00  0.00000000000E+00  0.80833495621E+02  0.80833495621E+02  0.00000000000E+00 0.  1.
          2   -1    0    0  502    0  0.00000000000E+00 -0.00000000000E+00 -0.63494877972E+03  0.63494877972E+03  0.00000000000E+00 0. -1.
          6    2    1    2  502    0 -0.13143933798E+03  0.46461582953E+02 -0.32572676322E+03  0.39782993146E+03  0.18093024022E+03 0.  0.
         24    2    3    3    0    0 -0.56023804241E+02  0.32410975805E+00 -0.28221726603E+03  0.29918239977E+03  0.82004581567E+02 0.  0.
         -6    2    1    2    0  501  0.13143933798E+03 -0.46461582953E+02 -0.22838852088E+03  0.31795234388E+03  0.17174806623E+03 0.  0.
        -24    2    5    5    0    0  0.75951379470E+02 -0.77415100827E+02 -0.21338401847E+03  0.25249809344E+03  0.80379337964E+02 0.  0.
          5    1    3    3  502    0 -0.75415533742E+02  0.46137473195E+02 -0.43509497193E+02  0.98647531689E+02  0.47000000000E+01 0. -1.
        -11    1    4    4    0    0 -0.62287950739E+01 -0.29618120188E+02 -0.40383549788E+02  0.50466444545E+02  0.00000000000E+00 0.  1.
         12    1    4    4    0    0 -0.49795009167E+02  0.29942229946E+02 -0.24183371624E+03  0.24871595522E+03  0.00000000000E+00 0. -1.
         -5    1    5    5    0  501  0.55487958513E+02  0.30953517874E+02 -0.15004502405E+02  0.65454250444E+02  0.47000000000E+01 0.  1.
         11    1    6    6    0    0  0.64422827342E+02 -0.35365186187E+02 -0.65923255633E+02  0.98726251373E+02  0.00000000000E+00 0. -1.
        -12    1    6    6    0    0  0.11528552127E+02 -0.42049914640E+02 -0.14746076284E+03  0.15377184207E+03  0.00000000000E+00 0.  1.
<mgrwt>
<rscale>  2 0.22477904E+03</rscale>
<asrwt>0</asrwt>
<pdfrwt beam="2">  1        2 0.97684426E-01 0.22477904E+03</pdfrwt>
<pdfrwt beam="1">  1       -2 0.12435923E-01 0.22477904E+03</pdfrwt>
<totfact> 0.21897298E+03</totfact>
</mgrwt>
</event>
<event>
12    1  0.4404304E-002  0.1717617E+03  0.7546771E-02  0.1176023E+00
          1   -1    0    0  502    0  0.00000000000E+00  0.00000000000E+00  0.10105309466E+04  0.10105309466E+04  0.00000000000E+00 0.  1.
         -1   -1    0    0    0  501 -0.00000000000E+00 -0.00000000000E+00 -0.29500380777E+02  0.29500380777E+02  0.00000000000E+00 0. -1.
          6    2    1    2  502    0  0.48106363442E+02 -0.33477433041E+02  0.56236723469E+03  0.59113560043E+03  0.17248023285E+03 0.  0.
         24    2    3    3    0    0  0.66510982388E+02 -0.78530360622E+02  0.45235862457E+03  0.47075088138E+03  0.79920828194E+02 0.  0.
         -6    2    1    2    0  501 -0.48106363442E+02  0.33477433041E+02  0.41866333118E+03  0.44889572699E+03  0.15097492542E+03 0.  0.
        -24    2    5    5    0    0  0.19978342842E+02  0.12495598060E+02  0.28617837141E+03  0.29839616155E+03  0.81159933565E+02 0.  0.
          5    1    3    3  502    0 -0.18404618946E+02  0.45052927580E+02  0.11000861011E+03  0.12038471905E+03  0.47000000000E+01 0. -1.
        -13    1    4    4    0    0  0.56217065614E+02 -0.69624811095E+02  0.44740405863E+03  0.45626567311E+03  0.00000000000E+00 0.  1.
         14    1    4    4    0    0  0.10293916774E+02 -0.89055495267E+01  0.49545659487E+01  0.14485208271E+02  0.00000000000E+00 0. -1.
         -5    1    5    5    0  501 -0.68084706285E+02  0.20981834982E+02  0.13248495977E+03  0.15049956543E+03  0.47000000000E+01 0.  1.
         13    1    6    6    0    0  0.32194062387E+01  0.38164362022E+02  0.67743807779E+02  0.77820990726E+02  0.00000000000E+00 0. -1.
        -14    1    6    6    0    0  0.16758936604E+02 -0.25668763962E+02  0.21843456363E+03  0.22057517083E+03  0.00000000000E+00 0.  1.
<mgrwt>
<rscale>  2 0.17176172E+03</rscale>
<asrwt>0</asrwt>
<pdfrwt beam="1">  1        1 0.15546627E+00 0.17176172E+03</pdfrwt>
<pdfrwt beam="2">  1       -1 0.45385209E-02 0.17176172E+03</pdfrwt>
<totfact> 0.31644083E+03</totfact>
</mgrwt>
</event>
<event>
12    1  0.4404304E-002  0.1944845E+03  0.7546771E-02  0.1154478E+00
          2   -1    0    0  502    0  0.00000000000E+00  0.00000000000E+00  0.18234992125E+04  0.18234992125E+04  0.00000000000E+00 0.  1.
         -2   -1    0    0    0  501 -0.00000000000E+00 -0.00000000000E+00 -0.21122770040E+02  0.21122770040E+02  0.00000000000E+00 0. -1.
          6    2    1    2  502    0 -0.73214900660E+02  0.49068159265E+02  0.10285706147E+04  0.10469483336E+04  0.17428481847E+03 0.  0.
         24    2    3    3    0    0 -0.14047276714E+02  0.68469727854E+02  0.87667459624E+03  0.88271764524E+03  0.75806753699E+02 0.  0.
         -6    2    1    2    0  501  0.73214900660E+02 -0.49068159265E+02  0.77380582775E+03  0.79767364889E+03  0.17245197924E+03 0.  0.
        -24    2    5    5    0    0  0.48928908385E+02 -0.11925582315E+02  0.72727641278E+03  0.73320305947E+03  0.78227157933E+02 0.  0.
          5    1    3    3  502    0 -0.59167623946E+02 -0.19401568589E+02  0.15189601842E+03  0.16423068836E+03  0.47000000000E+01 0. -1.
        -11    1    4    4    0    0  0.26249581684E+02  0.53339909558E+02  0.55535028484E+03  0.55852316457E+03  0.00000000000E+00 0.  1.
         12    1    4    4    0    0 -0.40296858398E+02  0.15129818296E+02  0.32132431141E+03  0.32419448067E+03  0.00000000000E+00 0. -1.
         -5    1    5    5    0  501  0.24285992276E+02 -0.37142576950E+02  0.46529414970E+02  0.64470589425E+02  0.47000000000E+01 0.  1.
         11    1    6    6    0    0  0.29974712503E+02  0.23484918040E+02  0.15848952126E+03  0.16299985618E+03  0.00000000000E+00 0. -1.
        -12    1    6    6    0    0  0.18954195881E+02 -0.35410500356E+02  0.56878689152E+03  0.57020320329E+03  0.00000000000E+00 0.  1.
<mgrwt>
<rscale>  2 0.19448448E+03</rscale>
<asrwt>0</asrwt>
<pdfrwt beam="1">  1        2 0.28053822E+00 0.19448448E+03</pdfrwt>
<pdfrwt beam="2">  1       -2 0.32496584E-02 0.19448448E+03</pdfrwt>
<totfact> 0.34535096E+03</totfact>
</mgrwt>
</event>
<event>
12    1  0.4404304E-002  0.1782492E+03  0.7546771E-02  0.1169508E+00
          2   -1    0    0  502    0  0.00000000000E+00  0.00000000000E+00  0.17981268298E+04  0.17981268298E+04  0.00000000000E+00 0. -1.
         -2   -1    0    0    0  501 -0.00000000000E+00 -0.00000000000E+00 -0.22017900213E+02  0.22017900213E+02  0.00000000000E+00 0.  1.
          6    2    1    2  502    0 -0.39617684655E+02 -0.35736297869E+00  0.48229669849E+03  0.51406556570E+03  0.17344627933E+03 0.  0.
         24    2    3    3    0    0  0.38499620089E+02  0.26393725461E+02  0.29268652303E+03  0.30720318953E+03  0.80805627310E+02 0.  0.
         -6    2    1    2    0  501  0.39617684655E+02  0.35736297869E+00  0.12938122311E+04  0.13060791643E+04  0.17413502085E+03 0.  0.
        -24    2    5    5    0    0  0.29363066902E+01  0.59814156511E+02  0.96386372045E+03  0.96878293922E+03  0.76946452240E+02 0.  0.
          5    1    3    3  502    0 -0.78117304744E+02 -0.26751088440E+02  0.18961017546E+03  0.20686237617E+03  0.47000000000E+01 0. -1.
        -11    1    4    4    0    0  0.15169931117E+02  0.54034563427E+02  0.15511338256E+03  0.16495460680E+03  0.00000000000E+00 0.  1.
         12    1    4    4    0    0  0.23329688972E+02 -0.27640837966E+02  0.13757314047E+03  0.14224858274E+03  0.00000000000E+00 0. -1.
         -5    1    5    5    0  501  0.36681377965E+02 -0.59456793532E+02  0.32994851065E+03  0.33729622510E+03  0.47000000000E+01 0.  1.
         13    1    6    6    0    0 -0.31111129304E+02  0.81988603380E+01  0.46307411569E+03  0.46419043538E+03  0.00000000000E+00 0. -1.
        -14    1    6    6    0    0  0.34047435994E+02  0.51615296173E+02  0.50078960475E+03  0.50459250383E+03  0.00000000000E+00 0.  1.
<mgrwt>
<rscale>  2 0.17824918E+03</rscale>
<asrwt>0</asrwt>
<pdfrwt beam="1">  1        2 0.27663478E+00 0.17824918E+03</pdfrwt>
<pdfrwt beam="2">  1       -2 0.33873707E-02 0.17824918E+03</pdfrwt>
<totfact> 0.33456504E+03</totfact>
</mgrwt>
</event>
<event>
12    1  0.4404304E-002  0.2119516E+03  0.7546771E-02  0.1140030E+00
         -2   -1    0    0    0  501 -0.00000000000E+00  0.00000000000E+00  0.33762814145E+02  0.33762814145E+02  0.00000000000E+00 0.  1.
          2   -1    0    0  502    0  0.00000000000E+00 -0.00000000000E+00 -0.14918713140E+04  0.14918713140E+04  0.00000000000E+00 0. -1.
          6    2    1    2  502    0  0.12083628028E+03  0.40628989023E+01 -0.97705143006E+03  0.99958274718E+03  0.17296895008E+03 0.  0.
         24    2    3    3    0    0  0.78506057624E+02 -0.30208405271E+01 -0.28160407227E+03  0.30279644954E+03  0.78819475859E+02 0.  0.
         -6    2    1    2    0  501 -0.12083628028E+03 -0.40628989023E+01 -0.48105706981E+03  0.52605138098E+03  0.17520341675E+03 0.  0.
        -24    2    5    5    0    0 -0.63300555877E+02  0.18235568349E+02 -0.43900383887E+03  0.45123062546E+03  0.80902475143E+02 0.  0.
          5    1    3    3  502    0  0.42330222655E+02  0.70837394294E+01 -0.69544735779E+03  0.69678629764E+03  0.47000000000E+01 0. -1.
        -13    1    4    4    0    0 -0.16124521531E+02 -0.41098427275E+01 -0.40659859311E+02  0.43933075934E+02  0.00000000000E+00 0.  1.
         14    1    4    4    0    0  0.94630579155E+02  0.10890022004E+01 -0.24094421296E+03  0.25886337361E+03  0.00000000000E+00 0. -1.
         -5    1    5    5    0  501 -0.57535724402E+02 -0.22298467251E+02 -0.42053230936E+02  0.74820755519E+02  0.47000000000E+01 0.  1.
         13    1    6    6    0    0 -0.22583387149E+02 -0.16579688150E+02 -0.31378448318E+03  0.31503269246E+03  0.00000000000E+00 0. -1.
        -14    1    6    6    0    0 -0.40717168728E+02  0.34815256499E+02 -0.12521935569E+03  0.13619793300E+03  0.00000000000E+00 0.  1.
<mgrwt>
<rscale>  2 0.21195159E+03</rscale>
<asrwt>0</asrwt>
<pdfrwt beam="2">  1        2 0.22951872E+00 0.21195159E+03</pdfrwt>
<pdfrwt beam="1">  1       -2 0.51942777E-02 0.21195159E+03</pdfrwt>
<totfact> 0.25454583E+03</totfact>
</mgrwt>
</event>
<event>
12    1  0.4404304E-002  0.2072376E+03  0.7546771E-02  0.1143772E+00
          2   -1    0    0  502    0  0.00000000000E+00  0.00000000000E+00  0.14417641430E+04  0.14417641430E+04  0.00000000000E+00 0.  1.
         -2   -1    0    0    0  501 -0.00000000000E+00 -0.00000000000E+00 -0.38311812548E+02  0.38311812548E+02  0.00000000000E+00 0. -1.
          6    2    1    2  502    0 -0.24028182230E+02  0.11205186407E+03  0.10513117277E+04  0.10715812709E+04  0.17290777137E+03 0.  0.
         24    2    3    3    0    0 -0.13587350388E+02  0.10719502000E+03  0.10506532002E+04  0.10591264099E+04  0.78747804000E+02 0.  0.
         -6    2    1    2    0  501  0.24028182230E+02 -0.11205186407E+03  0.35214060273E+03  0.40849468470E+03  0.17242949155E+03 0.  0.
        -24    2    5    5    0    0  0.20360550180E+02 -0.51817887857E+02  0.71122799514E+02  0.12103220169E+03  0.80564854182E+02 0.  0.
          5    1    3    3  502    0 -0.10440831842E+02  0.48568440770E+01  0.65852756500E+00  0.12454860999E+02  0.47000000000E+01 0. -1.
        -13    1    4    4    0    0 -0.23623844497E+02 -0.92180556140E+00  0.25596886111E+03  0.25705834671E+03  0.00000000000E+00 0.  1.
         14    1    4    4    0    0  0.10036494109E+02  0.10811682556E+03  0.79468433906E+03  0.80206806315E+03  0.00000000000E+00 0. -1.
         -5    1    5    5    0  501  0.36676320500E+01 -0.60233976215E+02  0.28101780322E+03  0.28746248301E+03  0.47000000000E+01 0.  1.
         13    1    6    6    0    0  0.12635542437E+02 -0.63160350422E+02  0.81461614649E+02  0.10385028387E+03  0.00000000000E+00 0. -1.
        -14    1    6    6    0    0  0.77250077431E+01  0.11342462564E+02 -0.10338815135E+02  0.17181917822E+02  0.00000000000E+00 0.  1.
<mgrwt>
<rscale>  2 0.20723756E+03</rscale>
<asrwt>0</asrwt>
<pdfrwt beam="1">  1        2 0.22180983E+00 0.20723756E+03</pdfrwt>
<pdfrwt beam="2">  1       -2 0.58941261E-02 0.20723756E+03</pdfrwt>
<totfact> 0.22322412E+03</totfact>
</mgrwt>
</event>
<event>
12    1  0.4404304E-002  0.2013512E+03  0.7546771E-02  0.1148604E+00
         -2   -1    0    0    0  501 -0.00000000000E+00  0.00000000000E+00  0.42421379047E+03  0.42421379047E+03  0.00000000000E+00 0.  1.
          2   -1    0    0  502    0  0.00000000000E+00 -0.00000000000E+00 -0.10923909307E+03  0.10923909307E+03  0.00000000000E+00 0. -1.
          6    2    1    2  502    0 -0.50707026669E+02 -0.85027309047E+02  0.65415476222E+02  0.21477290400E+03  0.17901779220E+03 0.  0.
         24    2    3    3    0    0  0.12785396130E+01 -0.73344342104E+02  0.10401165596E+03  0.14881271973E+03  0.77108843817E+02 0.  0.
         -6    2    1    2    0  501  0.50707026669E+02  0.85027309047E+02  0.24955922117E+03  0.31867997954E+03  0.17168657097E+03 0.  0.
        -24    2    5    5    0    0  0.75352550277E+02  0.34434117736E+02  0.81743514566E+02  0.14161706918E+03  0.80682568213E+02 0.  0.
          5    1    3    3  502    0 -0.51985566282E+02 -0.11682966943E+02 -0.38596179741E+02  0.65960184270E+02  0.47000000000E+01 0. -1.
        -11    1    4    4    0    0 -0.10142708060E+02 -0.76108291581E+02  0.11112926920E+03  0.13507427974E+03  0.00000000000E+00 0.  1.
         12    1    4    4    0    0  0.11421247673E+02  0.27639494770E+01 -0.71176132386E+01  0.13738439989E+02  0.00000000000E+00 0. -1.
         -5    1    5    5    0  501 -0.24645523607E+02  0.50593191311E+02  0.16781570661E+03  0.17706291036E+03  0.47000000000E+01 0.  1.
         11    1    6    6    0    0  0.23929045093E+02  0.54997322639E+02  0.47441559826E+02  0.76472258338E+02  0.00000000000E+00 0. -1.
        -12    1    6    6    0    0  0.51423505184E+02 -0.20563204903E+02  0.34301954740E+02  0.65144810847E+02  0.00000000000E+00 0.  1.
<mgrwt>
<rscale>  2 0.20135117E+03</rscale>
<asrwt>0</asrwt>
<pdfrwt beam="2">  1        2 0.16806015E-01 0.20135117E+03</pdfrwt>
<pdfrwt beam="1">  1       -2 0.65263659E-01 0.20135117E+03</pdfrwt>
<totfact> 0.75046432E+02</totfact>
</mgrwt>
</event>
<event>
11    1  0.4404304E-002  0.2218678E+03  0.7546771E-02  0.1132498E+00
          2   -1    0    0  502    0  0.00000000000E+00  0.00000000000E+00  0.11780210322E+04  0.11780210322E+04  0.00000000000E+00 0. -1.
         -2   -1    0    0    0  501 -0.00000000000E+00 -0.00000000000E+00 -0.42964610837E+02  0.42964610837E+02  0.00000000000E+00 0.  1.
          6    2    1    2  502    0  0.11844670178E+02 -0.13843011688E+03  0.46675765660E+03  0.51686138676E+03  0.17314672870E+03 0.  0.
         24    2    3    3    0    0  0.28003076701E+01 -0.86162697062E+02  0.44324354540E+03  0.45864895602E+03  0.80387637250E+02 0.  0.
         -6    2    1    2    0  501 -0.11844670178E+02  0.13843011688E+03  0.66829876476E+03  0.70412425628E+03  0.17281358691E+03 0.  0.
          5    1    3    3  502    0  0.90443625077E+01 -0.52267419821E+02  0.23514111192E+02  0.58212430743E+02  0.47000000000E+01 0. -1.
        -13    1    4    4    0    0 -0.30788005901E+02 -0.56577100383E+02  0.34110424319E+03  0.34713250254E+03  0.00000000000E+00 0.  1.
         14    1    4    4    0    0  0.33588313571E+02 -0.29585596679E+02  0.10213930221E+03  0.11151645347E+03  0.00000000000E+00 0. -1.
         -5    1    5    5    0  501  0.56410936755E+02  0.13109762190E+03  0.38202503205E+03  0.40784064948E+03  0.47000000000E+01 0.  1.
         11    1    5    5    0    0 -0.52031817416E+02 -0.82840824547E+01  0.17522478973E+03  0.18297448724E+03  0.00000000000E+00 0. -1.
        -12    1    5    5    0    0 -0.16223789517E+02  0.15616577440E+02  0.11104894298E+03  0.11330911956E+03  0.00000000000E+00 0.  1.
<mgrwt>
<rscale>  2 0.22186780E+03</rscale>
<asrwt>0</asrwt>
<pdfrwt beam="1">  1        2 0.18123398E+00 0.22186780E+03</pdfrwt>
<pdfrwt beam="2">  1       -2 0.66099410E-02 0.22186780E+03</pdfrwt>
<totfact> 0.26145947E+03</totfact>
</mgrwt>
</event>
<event>
12    1  0.4404304E-002  0.2297211E+03  0.7546771E-02  0.1126836E+00
         -2   -1    0    0    0  501 -0.00000000000E+00  0.00000000000E+00  0.62746319779E+02  0.62746319779E+02  0.00000000000E+00 0.  1.
          2   -1    0    0  502    0  0.00000000000E+00 -0.00000000000E+00 -0.86448343803E+03  0.86448343803E+03  0.00000000000E+00 0. -1.
          6    2    1    2  502    0 -0.38993673892E+01 -0.15041152922E+03 -0.47687375175E+03  0.52923119357E+03  0.17331545793E+03 0.  0.
         24    2    3    3    0    0 -0.45626372960E+01 -0.14546531423E+03 -0.24147007278E+03  0.29372771793E+03  0.82384470174E+02 0.  0.
         -6    2    1    2    0  501  0.38993673892E+01  0.15041152922E+03 -0.32486336651E+03  0.39799856424E+03  0.17386148812E+03 0.  0.
        -24    2    5    5    0    0  0.99122973533E+01  0.17451953390E+03 -0.31859515428E+03  0.37194608449E+03  0.79282381918E+02 0.  0.
          5    1    3    3  502    0  0.66326990674E+00 -0.49462149818E+01 -0.23540367897E+03  0.23550347565E+03  0.47000000000E+01 0. -1.
        -13    1    4    4    0    0 -0.41516166229E+02 -0.51060220819E+02 -0.98522684970E+02  0.11847977744E+03  0.00000000000E+00 0.  1.
         14    1    4    4    0    0  0.36953528933E+02 -0.94405093414E+02 -0.14294738781E+03  0.17524794049E+03  0.00000000000E+00 0. -1.
         -5    1    5    5    0  501 -0.60129299641E+01 -0.24108004686E+02 -0.62682122261E+01  0.26052479752E+02  0.47000000000E+01 0.  1.
         13    1    6    6    0    0 -0.29734573124E+02  0.59876216195E+02 -0.15022303214E+03  0.16442708259E+03  0.00000000000E+00 0. -1.
        -14    1    6    6    0    0  0.39646870478E+02  0.11464331771E+03 -0.16837212215E+03  0.20751900190E+03  0.00000000000E+00 0.  1.
<mgrwt>
<rscale>  2 0.22972109E+03</rscale>
<asrwt>0</asrwt>
<pdfrwt beam="2">  1        2 0.13299746E+00 0.22972109E+03</pdfrwt>
<pdfrwt beam="1">  1       -2 0.96532794E-02 0.22972109E+03</pdfrwt>
<totfact> 0.22436107E+03</totfact>
</mgrwt>
</event>
<event>
12    1  0.4404304E-002  0.2078031E+03  0.7546771E-02  0.1143318E+00
         -1   -1    0    0    0  501 -0.00000000000E+00  0.00000000000E+00  0.45137314435E+03  0.45137314435E+03  0.00000000000E+00 0. -1.
          1   -1    0    0  502    0  0.00000000000E+00 -0.00000000000E+00 -0.99152392414E+02  0.99152392414E+02  0.00000000000E+00 0.  1.
          6    2    1    2  502    0  0.10358996292E+03  0.51154236698E+02  0.12461238106E+03  0.24240712965E+03  0.17287375347E+03 0.  0.
         24    2    3    3    0    0  0.18677363849E+02  0.27130324364E+02 -0.33331801406E+01  0.86909687619E+02  0.80357235466E+02 0.  0.
         -6    2    1    2    0  501 -0.10358996292E+03 -0.51154236698E+02  0.22760837087E+03  0.30811840712E+03  0.17257968004E+03 0.  0.
        -24    2    5    5    0    0 -0.92938768646E+02  0.16248001077E+02  0.19859790761E+03  0.23382031444E+03  0.79556258592E+02 0.  0.
          5    1    3    3  502    0  0.84912599075E+02  0.24023912334E+02  0.12794556120E+03  0.15549744203E+03  0.47000000000E+01 0. -1.
        -11    1    4    4    0    0  0.46387703809E+02  0.18888314729E+02  0.15472606555E+02  0.52421265261E+02  0.00000000000E+00 0.  1.
         12    1    4    4    0    0 -0.27710339960E+02  0.82420096349E+01 -0.18805786696E+02  0.34488422358E+02  0.00000000000E+00 0. -1.
         -5    1    5    5    0  501 -0.10651194278E+02 -0.67402237775E+02  0.29010463261E+02  0.74298092676E+02  0.47000000000E+01 0.  1.
         13    1    6    6    0    0 -0.68586461914E+02 -0.22958154342E+02  0.15149430680E+03  0.16787407365E+03  0.00000000000E+00 0. -1.
        -14    1    6    6    0    0 -0.24352306732E+02  0.39206155418E+02  0.47103600806E+02  0.65946240793E+02  0.00000000000E+00 0.  1.
<mgrwt>
<rscale>  2 0.20780314E+03</rscale>
<asrwt>0</asrwt>
<pdfrwt beam="2">  1        1 0.15254214E-01 0.20780314E+03</pdfrwt>
<pdfrwt beam="1">  1       -1 0.69442021E-01 0.20780314E+03</pdfrwt>
<totfact> 0.79241553E+02</totfact>
</mgrwt>
</event>
<event>
12    1  0.4404304E-002  0.1763191E+03  0.7546771E-02  0.1171414E+00
         -2   -1    0    0    0  501 -0.00000000000E+00  0.00000000000E+00  0.21136434151E+03  0.21136434151E+03  0.00000000000E+00 0.  1.
          2   -1    0    0  502    0  0.00000000000E+00 -0.00000000000E+00 -0.16138013361E+03  0.16138013361E+03  0.00000000000E+00 0. -1.
          6    2    1    2  502    0  0.52521727988E+00 -0.34547213201E+02 -0.30443066194E+02  0.17918832118E+03  0.17317011398E+03 0.  0.
         24    2    3    3    0    0  0.38515904805E+02 -0.63652282935E+02 -0.23321539232E+01  0.12348633907E+03  0.98530954265E+02 0.  0.
         -6    2    1    2    0  501 -0.52521727988E+00  0.34547213201E+02  0.80427274098E+02  0.19355615394E+03  0.17263155133E+03 0.  0.
        -24    2    5    5    0    0  0.31106463769E+02 -0.35017994451E+02  0.21627847608E+02  0.97019404886E+02  0.82165254875E+02 0.  0.
          5    1    3    3  502    0 -0.37990687525E+02  0.29105069733E+02 -0.28110912271E+02  0.55701982115E+02  0.47000000000E+01 0. -1.
        -13    1    4    4    0    0 -0.24731349230E+02 -0.18327953458E+02  0.26387656660E+02  0.40544567290E+02  0.00000000000E+00 0.  1.
         14    1    4    4    0    0  0.63247254035E+02 -0.45324329477E+02 -0.28719810583E+02  0.82941771777E+02  0.00000000000E+00 0. -1.
         -5    1    5    5    0  501 -0.31631681049E+02  0.69565207652E+02  0.58799426489E+02  0.96536749050E+02  0.47000000000E+01 0.  1.
         13    1    6    6    0    0  0.55767148762E+02 -0.83808710538E+01  0.36496378912E+01  0.56511359366E+02  0.00000000000E+00 0. -1.
        -14    1    6    6    0    0 -0.24660684993E+02 -0.26637123397E+02  0.17978209717E+02  0.40508045520E+02  0.00000000000E+00 0.  1.
<mgrwt>
<rscale>  2 0.17631908E+03</rscale>
<asrwt>0</asrwt>
<pdfrwt beam="2">  1        2 0.24827713E-01 0.17631908E+03</pdfrwt>
<pdfrwt beam="1">  1       -2 0.32517591E-01 0.17631908E+03</pdfrwt>
<totfact> 0.18794685E+03</totfact>
</mgrwt>
</event>
<event>
12    1  0.4404304E-002  0.3081543E+03  0.7546771E-02  0.1081234E+00
          2   -1    0    0  502    0  0.00000000000E+00  0.00000000000E+00  0.38571946912E+04  0.38571946912E+04  0.00000000000E+00 0.  1.
         -2   -1    0    0    0  501 -0.00000000000E+00 -0.00000000000E+00 -0.40623073198E+02  0.40623073198E+02  0.00000000000E+00 0. -1.
          6    2    1    2  502    0  0.21894968315E+03  0.13967713546E+03  0.31564280760E+04  0.31721093549E+04  0.17830001330E+03 0.  0.
         24    2    3    3    0    0  0.22994306560E+03  0.14883122587E+03  0.26133335323E+04  0.26288061015E+04  0.78005261625E+02 0.  0.
         -6    2    1    2    0  501 -0.21894968315E+03 -0.13967713546E+03  0.66014354207E+03  0.72570840953E+03  0.15301808264E+03 0.  0.
        -24    2    5    5    0    0 -0.21811592253E+03 -0.13306153641E+03  0.51846432973E+03  0.58379452538E+03  0.82041809643E+02 0.  0.
          5    1    3    3  502    0 -0.10993382444E+02 -0.91540904081E+01  0.54309454367E+03  0.54330325343E+03  0.47000000000E+01 0. -1.
        -11    1    4    4    0    0  0.11222313008E+03  0.10063272423E+03  0.11263056159E+04  0.11363473573E+04  0.00000000000E+00 0.  1.
         12    1    4    4    0    0  0.11771993552E+03  0.48198501636E+02  0.14870279164E+04  0.14924587441E+04  0.00000000000E+00 0. -1.
         -5    1    5    5    0  501 -0.83376062379E+00 -0.66155990503E+01  0.14167921233E+03  0.14191388415E+03  0.47000000000E+01 0.  1.
         11    1    6    6    0    0 -0.95575479208E+00 -0.22553351843E+02  0.26613835726E+02  0.34897899631E+02  0.00000000000E+00 0. -1.
        -12    1    6    6    0    0 -0.21716016774E+03 -0.11050818457E+03  0.49185049401E+03  0.54889662575E+03  0.00000000000E+00 0.  1.
<mgrwt>
<rscale>  2 0.30815429E+03</rscale>
<asrwt>0</asrwt>
<pdfrwt beam="1">  1        2 0.59341428E+00 0.30815429E+03</pdfrwt>
<pdfrwt beam="2">  1       -2 0.62497066E-02 0.30815429E+03</pdfrwt>
<totfact> 0.78415326E+01</totfact>
</mgrwt>
</event>
<event>
12    1  0.4404304E-002  0.1780427E+03  0.7546771E-02  0.1169711E+00
          2   -1    0    0  502    0  0.00000000000E+00  0.00000000000E+00  0.39237054908E+03  0.39237054908E+03  0.00000000000E+00 0.  1.
         -2   -1    0    0    0  501 -0.00000000000E+00 -0.00000000000E+00 -0.10530889333E+03  0.10530889333E+03  0.00000000000E+00 0. -1.
          6    2    1    2  502    0 -0.17456056030E+02  0.37892108645E+02  0.26405972399E+03  0.31889265405E+03  0.17385183687E+03 0.  0.
         24    2    3    3    0    0 -0.23385268690E+02  0.75027520635E+02  0.25686291258E+03  0.28031703376E+03  0.80144144580E+02 0.  0.
         -6    2    1    2    0  501  0.17456056030E+02 -0.37892108645E+02  0.23001931768E+02  0.17878678836E+03  0.17232266548E+03 0.  0.
        -24    2    5    5    0    0  0.22598469467E+02  0.38750164714E+02 -0.91281610295E+01  0.95390653291E+02  0.83688633182E+02 0.  0.
          5    1    3    3  502    0  0.59292126592E+01 -0.37135411989E+02  0.71968114075E+01  0.38575620291E+02  0.47000000000E+01 0. -1.
        -13    1    4    4    0    0 -0.29545384982E+02  0.10461692227E+02  0.16448001959E+03  0.16743970146E+03  0.00000000000E+00 0.  1.
         14    1    4    4    0    0  0.61601162926E+01  0.64565828408E+02  0.92382892985E+02  0.11287733230E+03  0.00000000000E+00 0. -1.
         -5    1    5    5    0  501 -0.51424134364E+01 -0.76642273359E+02  0.32130092798E+02  0.83396135071E+02  0.47000000000E+01 0.  1.
         11    1    6    6    0    0  0.48362028345E+02  0.70652657814E+01  0.10640177471E+02  0.50020167361E+02  0.00000000000E+00 0. -1.
        -12    1    6    6    0    0 -0.25763558879E+02  0.31684898932E+02 -0.19768338500E+02  0.45370485930E+02  0.00000000000E+00 0.  1.
<mgrwt>
<rscale>  2 0.17804270E+03</rscale>
<asrwt>0</asrwt>
<pdfrwt beam="1">  1        2 0.60364699E-01 0.17804270E+03</pdfrwt>
<pdfrwt beam="2">  1       -2 0.16201368E-01 0.17804270E+03</pdfrwt>
<totfact> 0.24161983E+03</totfact>
</mgrwt>
</event>
<event>
12    1  0.4404304E-002  0.1757251E+03  0.7546771E-02  0.1172006E+00
         -3   -1    0    0    0  501 -0.00000000000E+00  0.00000000000E+00  0.10335236927E+03  0.10335236927E+03  0.00000000000E+00 0.  1.
          3   -1    0    0  502    0  0.00000000000E+00 -0.00000000000E+00 -0.30517354513E+03  0.30517354513E+03  0.00000000000E+00 0. -1.
          6    2    1    2  502    0  0.26027257540E+02  0.81076873415E+01 -0.71546585235E+02  0.19007116721E+03  0.17396833625E+03 0.  0.
         24    2    3    3    0    0  0.33875140200E+02  0.26228771576E+02  0.21210934846E+02  0.95118492219E+02  0.82232294283E+02 0.  0.
         -6    2    1    2    0  501 -0.26027257540E+02 -0.81076873415E+01 -0.13027459062E+03  0.21845474720E+03  0.17322775436E+03 0.  0.
        -24    2    5    5    0    0 -0.46948764861E+02 -0.17124173019E+02 -0.15675131811E+03  0.18321111542E+03  0.80609635029E+02 0.  0.
          5    1    3    3  502    0 -0.78478826604E+01 -0.18121084235E+02 -0.92757520081E+02  0.94952674989E+02  0.47000000000E+01 0. -1.
        -11    1    4    4    0    0  0.11756844291E+02  0.48782283354E+02  0.34450654528E+02  0.60866921676E+02  0.00000000000E+00 0.  1.
         12    1    4    4    0    0  0.22118295910E+02 -0.22553511778E+02 -0.13239719681E+02  0.34251570544E+02  0.00000000000E+00 0. -1.
         -5    1    5    5    0  501  0.20921507321E+02  0.90164856777E+01  0.26476727489E+02  0.35243631780E+02  0.47000000000E+01 0.  1.
         11    1    6    6    0    0 -0.18891495539E+02 -0.36390971221E+02 -0.13880433083E+03  0.14473366452E+03  0.00000000000E+00 0. -1.
        -12    1    6    6    0    0 -0.28057269322E+02  0.19266798202E+02 -0.17946987285E+02  0.38477450894E+02  0.00000000000E+00 0.  1.
<mgrwt>
<rscale>  2 0.17572508E+03</rscale>
<asrwt>0</asrwt>
<pdfrwt beam="2">  1        3 0.46949776E-01 0.17572508E+03</pdfrwt>
<pdfrwt beam="1">  1       -3 0.15900365E-01 0.17572508E+03</pdfrwt>
<totfact> 0.36584358E+02</totfact>
</mgrwt>
</event>
<event>
12    1  0.4404304E-002  0.1810652E+03  0.7546771E-02  0.1166776E+00
          1   -1    0    0  502    0  0.00000000000E+00  0.00000000000E+00  0.10645010012E+03  0.10645010012E+03  0.00000000000E+00 0. -1.
         -1   -1    0    0    0  501 -0.00000000000E+00 -0.00000000000E+00 -0.30905047708E+03  0.30905047708E+03  0.00000000000E+00 0.  1.
          6    2    1    2  502    0 -0.50740268834E+02 -0.15332458429E+02 -0.11415193646E+03  0.21514469793E+03  0.17449045041E+03 0.  0.
         24    2    3    3    0    0 -0.80586355725E+01 -0.53858117012E+02 -0.12363890088E+03  0.15668068608E+03  0.79351252063E+02 0.  0.
         -6    2    1    2    0  501  0.50740268834E+02  0.15332458429E+02 -0.88448440498E+02  0.20035587926E+03  0.17178385421E+03 0.  0.
        -24    2    5    5    0    0  0.35046782761E+02  0.15737167918E+02  0.19448193971E+02  0.91221911020E+02  0.80419334524E+02 0.  0.
          5    1    3    3  502    0 -0.42681633261E+02  0.38525658583E+02  0.94869644222E+01  0.58464011845E+02  0.47000000000E+01 0. -1.
        -13    1    4    4    0    0  0.33271869947E+02 -0.80354279764E+01 -0.50184206124E+02  0.60745699246E+02  0.00000000000E+00 0.  1.
         14    1    4    4    0    0 -0.41330505520E+02 -0.45822689036E+02 -0.73454694760E+02  0.95934986836E+02  0.00000000000E+00 0. -1.
         -5    1    5    5    0  501  0.15693486073E+02 -0.40470948865E+00 -0.10789663447E+03  0.10913396824E+03  0.47000000000E+01 0.  1.
         11    1    6    6    0    0  0.44278359060E+02 -0.20139996783E+02  0.23375368759E+02  0.53968513192E+02  0.00000000000E+00 0. -1.
        -12    1    6    6    0    0 -0.92315762995E+01  0.35877164700E+02 -0.39271747878E+01  0.37253397828E+02  0.00000000000E+00 0.  1.
<mgrwt>
<rscale>  2 0.18106522E+03</rscale>
<asrwt>0</asrwt>
<pdfrwt beam="1">  1        1 0.16376939E-01 0.18106522E+03</pdfrwt>
<pdfrwt beam="2">  1       -1 0.47546227E-01 0.18106522E+03</pdfrwt>
<totfact> 0.14792528E+03</totfact>
</mgrwt>
</event>
<event>
12    1  0.4404304E-002  0.2018005E+03  0.7546771E-02  0.1148229E+00
         -1   -1    0    0    0  501 -0.00000000000E+00  0.00000000000E+00  0.48879165214E+03  0.48879165214E+03  0.00000000000E+00 0.  1.
          1   -1    0    0  502    0  0.00000000000E+00 -0.00000000000E+00 -0.84673219941E+02  0.84673219941E+02  0.00000000000E+00 0. -1.
          6    2    1    2  502    0  0.85770858701E+02  0.87460491976E+01  0.22973390584E+03  0.30112337216E+03  0.17454078088E+03 0.  0.
         24    2    3    3    0    0  0.57726508680E+02 -0.54626768481E+02  0.87625009719E+02  0.14294743232E+03  0.80245825050E+02 0.  0.
         -6    2    1    2    0  501 -0.85770858701E+02 -0.87460491976E+01  0.17438452635E+03  0.27234149992E+03  0.19059589704E+03 0.  0.
        -24    2    5    5    0    0 -0.83428157435E+02  0.61055071731E+02  0.79962738835E+02  0.15480321386E+03  0.82957918136E+02 0.  0.
          5    1    3    3  502    0  0.28044350021E+02  0.63372817679E+02  0.14210889613E+03  0.15817593985E+03  0.47000000000E+01 0. -1.
        -13    1    4    4    0    0  0.15676536883E+02 -0.67237288110E+02  0.53843453481E+02  0.87554121569E+02  0.00000000000E+00 0.  1.
         14    1    4    4    0    0  0.42049971797E+02  0.12610519629E+02  0.33781556239E+02  0.55393310746E+02  0.00000000000E+00 0. -1.
         -5    1    5    5    0  501 -0.23427012655E+01 -0.69801120928E+02  0.94421787518E+02  0.11753828606E+03  0.47000000000E+01 0.  1.
         11    1    6    6    0    0  0.12613878126E+02  0.23343808617E+02  0.43609530903E+01  0.26889797954E+02  0.00000000000E+00 0. -1.
        -12    1    6    6    0    0 -0.96042035561E+02  0.37711263114E+02  0.75601785745E+02  0.12791341590E+03  0.00000000000E+00 0.  1.
<mgrwt>
<rscale>  2 0.20180045E+03</rscale>
<asrwt>0</asrwt>
<pdfrwt beam="2">  1        1 0.13026650E-01 0.20180045E+03</pdfrwt>
<pdfrwt beam="1">  1       -1 0.75198714E-01 0.20180045E+03</pdfrwt>
<totfact> 0.83063394E+02</totfact>
</mgrwt>
</event>
<event>
12    1  0.4404304E-002  0.2295057E+03  0.7546771E-02  0.1126988E+00
         -2   -1    0    0    0  501 -0.00000000000E+00  0.00000000000E+00  0.42276867529E+02  0.42276867529E+02  0.00000000000E+00 0.  1.
          2   -1    0    0  502    0  0.00000000000E+00 -0.00000000000E+00 -0.12785401044E+04  0.12785401044E+04  0.00000000000E+00 0. -1.
          6    2    1    2  502    0  0.43417632635E+02 -0.14262137626E+03 -0.49884584443E+03  0.54676350907E+03  0.16696469850E+03 0.  0.
         24    2    3    3    0    0  0.21019435980E+02 -0.10684471632E+03 -0.20871825765E+03  0.25354387258E+03  0.94146556761E+02 0.  0.
         -6    2    1    2    0  501 -0.43417632635E+02  0.14262137626E+03 -0.73741739248E+03  0.77405346291E+03  0.18206703413E+03 0.  0.
        -24    2    5    5    0    0  0.16381096185E+02  0.33145303479E+02 -0.15569770130E+03  0.17909061735E+03  0.80403504774E+02 0.  0.
          5    1    3    3  502    0  0.22398196655E+02 -0.35776659942E+02 -0.29012758678E+03  0.29321963649E+03  0.47000000000E+01 0. -1.
        -11    1    4    4    0    0  0.49914950100E+02 -0.39147553958E+02 -0.58638088361E+02  0.86385523272E+02  0.00000000000E+00 0.  1.
         12    1    4    4    0    0 -0.28895514120E+02 -0.67697162362E+02 -0.15008016929E+03  0.16715834931E+03  0.00000000000E+00 0. -1.
         -5    1    5    5    0  501 -0.59798728820E+02  0.10947607278E+03 -0.58171969118E+03  0.59496284556E+03  0.47000000000E+01 0.  1.
         11    1    6    6    0    0  0.20070337731E+01  0.20684819982E+02  0.14153568385E+01  0.20830103150E+02  0.00000000000E+00 0. -1.
        -12    1    6    6    0    0  0.14374062412E+02  0.12460483497E+02 -0.15711305814E+03  0.15826051421E+03  0.00000000000E+00 0.  1.
<mgrwt>
<rscale>  2 0.22950568E+03</rscale>
<asrwt>0</asrwt>
<pdfrwt beam="2">  1        2 0.19669844E+00 0.22950568E+03</pdfrwt>
<pdfrwt beam="1">  1       -2 0.65041346E-02 0.22950568E+03</pdfrwt>
<totfact> 0.23544427E+03</totfact>
</mgrwt>
</event>
<event>
12    1  0.4404304E-002  0.1741210E+03  0.7546771E-02  0.1173617E+00
          2   -1    0    0  502    0  0.00000000000E+00  0.00000000000E+00  0.23041263487E+03  0.23041263487E+03  0.00000000000E+00 0. -1.
         -2   -1    0    0    0  501 -0.00000000000E+00 -0.00000000000E+00 -0.13161971545E+03  0.13161971545E+03  0.00000000000E+00 0.  1.
          6    2    1    2  502    0  0.12365675525E+02 -0.16719324756E+02  0.52348867438E+02  0.18148760696E+03  0.17252507587E+03 0.  0.
         24    2    3    3    0    0  0.68696623263E+02  0.16870986251E+02  0.38122043719E+02  0.11421222379E+03  0.81162094735E+02 0.  0.
         -6    2    1    2    0  501 -0.12365675525E+02  0.16719324756E+02  0.46444051985E+02  0.18054474337E+03  0.17322502314E+03 0.  0.
        -24    2    5    5    0    0 -0.24317362379E+02 -0.45618291386E+02 -0.62241932240E+01  0.97932061181E+02  0.82943266175E+02 0.  0.
          5    1    3    3  502    0 -0.56330947738E+02 -0.33590311007E+02  0.14226823719E+02  0.67275383163E+02  0.47000000000E+01 0. -1.
        -13    1    4    4    0    0 -0.18257870112E+02  0.76357882478E+01  0.31722818586E+01  0.20042915341E+02  0.00000000000E+00 0.  1.
         14    1    4    4    0    0  0.86954493375E+02  0.92351980029E+01  0.34949761860E+02  0.94169308452E+02  0.00000000000E+00 0. -1.
         -5    1    5    5    0  501  0.11951686854E+02  0.62337616142E+02  0.52668245209E+02  0.82612682188E+02  0.47000000000E+01 0.  1.
         13    1    6    6    0    0  0.75607264623E+01 -0.23413596722E+02  0.34027259280E+02  0.41990659321E+02  0.00000000000E+00 0. -1.
        -14    1    6    6    0    0 -0.31878088841E+02 -0.22204694664E+02 -0.40251452504E+02  0.55941401859E+02  0.00000000000E+00 0.  1.
<mgrwt>
<rscale>  2 0.17412096E+03</rscale>
<asrwt>0</asrwt>
<pdfrwt beam="1">  1        2 0.35448098E-01 0.17412096E+03</pdfrwt>
<pdfrwt beam="2">  1       -2 0.20249187E-01 0.17412096E+03</pdfrwt>
<totfact> 0.29360686E+03</totfact>
</mgrwt>
</event>
<event>
12    1  0.4404304E-002  0.1723813E+03  0.7546771E-02  0.1175387E+00
         -2   -1    0    0    0  501 -0.00000000000E+00  0.00000000000E+00  0.21440093287E+03  0.21440093287E+03  0.00000000000E+00 0. -1.
          2   -1    0    0  502    0  0.00000000000E+00 -0.00000000000E+00 -0.14887315053E+03  0.14887315053E+03  0.00000000000E+00 0.  1.
          6    2    1    2  502    0  0.91231574688E+01 -0.23879180945E+01 -0.14799263416E+02  0.17386183722E+03  0.17297394628E+03 0.  0.
         24    2    3    3    0    0 -0.19447979113E+02 -0.63780928939E+02  0.34209181684E+01  0.10358042686E+03  0.79189464950E+02 0.  0.
         -6    2    1    2    0  501 -0.91231574688E+01  0.23879180945E+01  0.80327045757E+02  0.18941224618E+03  0.17127647406E+03 0.  0.
        -24    2    5    5    0    0 -0.41967977800E+02  0.44785235248E+02  0.87427174236E+02  0.13510923937E+03  0.82728273950E+02 0.  0.
          5    1    3    3  502    0  0.28571136582E+02  0.61393010845E+02 -0.18220181585E+02  0.70281410367E+02  0.47000000000E+01 0. -1.
        -11    1    4    4    0    0 -0.25125853312E+02  0.72205559205E+01  0.16842939761E+02  0.31098706602E+02  0.00000000000E+00 0.  1.
         12    1    4    4    0    0  0.56778741990E+01 -0.71001484860E+02 -0.13422021593E+02  0.72481720256E+02  0.00000000000E+00 0. -1.
         -5    1    5    5    0  501  0.32844820331E+02 -0.42397317154E+02 -0.71001284791E+01  0.54303006812E+02  0.47000000000E+01 0.  1.
         13    1    6    6    0    0 -0.30254042591E+02  0.15157660640E+00  0.83482668472E+02  0.88795754425E+02  0.00000000000E+00 0. -1.
        -14    1    6    6    0    0 -0.11713935209E+02  0.44633658642E+02  0.39445057639E+01  0.46313484943E+02  0.00000000000E+00 0.  1.
<mgrwt>
<rscale>  2 0.17238128E+03</rscale>
<asrwt>0</asrwt>
<pdfrwt beam="2">  1        2 0.22903562E-01 0.17238128E+03</pdfrwt>
<pdfrwt beam="1">  1       -2 0.32984759E-01 0.17238128E+03</pdfrwt>
<totfact> 0.20018339E+03</totfact>
</mgrwt>
</event>
<event>
12    1  0.4404304E-002  0.2084362E+03  0.7546771E-02  0.1142810E+00
         -2   -1    0    0    0  501 -0.00000000000E+00  0.00000000000E+00  0.11523076354E+03  0.11523076354E+03  0.00000000000E+00 0. -1.
          2   -1    0    0  502    0  0.00000000000E+00 -0.00000000000E+00 -0.58691911263E+03  0.58691911263E+03  0.00000000000E+00 0.  1.
          6    2    1    2  502    0  0.65797781034E+02  0.95701052064E+02 -0.44593731446E+03  0.49233256806E+03  0.17332982949E+03 0.  0.
         24    2    3    3    0    0  0.52727158432E+02 -0.53408188541E+01 -0.29263375734E+03  0.30820117074E+03  0.80899741209E+02 0.  0.
         -6    2    1    2    0  501 -0.65797781034E+02 -0.95701052064E+02 -0.25751034620E+02  0.20981730810E+03  0.17283560872E+03 0.  0.
        -24    2    5    5    0    0  0.22202664335E+02 -0.66070728298E+01 -0.12774944258E+02  0.83832053243E+02  0.79548741255E+02 0.  0.
          5    1    3    3  502    0  0.13070622602E+02  0.10104187092E+03 -0.15330355712E+03  0.18413139732E+03  0.47000000000E+01 0. -1.
        -11    1    4    4    0    0  0.65439121746E+02 -0.21883241576E+02 -0.26339117316E+03  0.27227938779E+03  0.00000000000E+00 0.  1.
         12    1    4    4    0    0 -0.12711963314E+02  0.16542422721E+02 -0.29242584185E+02  0.35921782954E+02  0.00000000000E+00 0. -1.
         -5    1    5    5    0  501 -0.88000445369E+02 -0.89093979235E+02 -0.12976090362E+02  0.12598525486E+03  0.47000000000E+01 0.  1.
         11    1    6    6    0    0 -0.53525014212E+01 -0.38987000316E+02 -0.12578172370E+02  0.41313991399E+02  0.00000000000E+00 0. -1.
        -12    1    6    6    0    0  0.27555165756E+02  0.32379927486E+02 -0.19677188739E+00  0.42518061845E+02  0.00000000000E+00 0.  1.
<mgrwt>
<rscale>  2 0.20843619E+03</rscale>
<asrwt>0</asrwt>
<pdfrwt beam="2">  1        2 0.90295250E-01 0.20843619E+03</pdfrwt>
<pdfrwt beam="1">  1       -2 0.17727809E-01 0.20843619E+03</pdfrwt>
<totfact> 0.13352483E+03</totfact>
</mgrwt>
</event>
<event>
12    1  0.4404304E-002  0.1908428E+03  0.7546771E-02  0.1157703E+00
         -2   -1    0    0    0  501 -0.00000000000E+00  0.00000000000E+00  0.75767362336E+02  0.75767362336E+02  0.00000000000E+00 0. -1.
          2   -1    0    0  502    0  0.00000000000E+00 -0.00000000000E+00 -0.49163349315E+03  0.49163349315E+03  0.00000000000E+00 0.  1.
          6    2    1    2  502    0 -0.69888569957E+02  0.26871593977E+02 -0.16847456080E+03  0.25648010687E+03  0.17830275604E+03 0.  0.
         24    2    3    3    0    0 -0.32290432210E+02  0.32994250449E+02 -0.19055129209E+03  0.21220168156E+03  0.81169367161E+02 0.  0.
         -6    2    1    2    0  501  0.69888569957E+02 -0.26871593977E+02 -0.24739157001E+03  0.31092074861E+03  0.17280806761E+03 0.  0.
        -24    2    5    5    0    0  0.66240399983E+02 -0.27455886633E+02 -0.26764901918E+03  0.28979955573E+03  0.84889155551E+02 0.  0.
          5    1    3    3  502    0 -0.37598137747E+02 -0.61226564730E+01  0.22076731283E+02  0.44278425316E+02  0.47000000000E+01 0. -1.
        -11    1    4    4    0    0 -0.12789701034E+02 -0.17818741973E+02 -0.12541974572E+03  0.12732319755E+03  0.00000000000E+00 0.  1.
         12    1    4    4    0    0 -0.19500731176E+02  0.50812992423E+02 -0.65131546366E+02  0.84878484007E+02  0.00000000000E+00 0. -1.
         -5    1    5    5    0  501  0.36481699749E+01  0.58429265648E+00  0.20257449169E+02  0.21121192885E+02  0.47000000000E+01 0.  1.
         11    1    6    6    0    0  0.48835423981E+02 -0.11294930691E+02 -0.49793398196E+02  0.70653072110E+02  0.00000000000E+00 0. -1.
        -12    1    6    6    0    0  0.17404976002E+02 -0.16160955942E+02 -0.21785562099E+03  0.21914648362E+03  0.00000000000E+00 0.  1.
<mgrwt>
<rscale>  2 0.19084280E+03</rscale>
<asrwt>0</asrwt>
<pdfrwt beam="2">  1        2 0.75635925E-01 0.19084280E+03</pdfrwt>
<pdfrwt beam="1">  1       -2 0.11656517E-01 0.19084280E+03</pdfrwt>
<totfact> 0.32391921E+03</totfact>
</mgrwt>
</event>
<event>
12    1  0.4404304E-002  0.1947819E+03  0.7546771E-02  0.1154218E+00
          2   -1    0    0  502    0  0.00000000000E+00  0.00000000000E+00  0.14328002761E+04  0.14328002761E+04  0.00000000000E+00 0. -1.
         -2   -1    0    0    0  501 -0.00000000000E+00 -0.00000000000E+00 -0.26495402811E+02  0.26495402811E+02  0.00000000000E+00 0.  1.
          6    2    1    2  502    0 -0.77466156319E+02 -0.51868768398E+02  0.68627429950E+03  0.71211225373E+03  0.16565045499E+03 0.  0.
         24    2    3    3    0    0 -0.27760513031E+02  0.18199235362E+02  0.19912972722E+03  0.21742841486E+03  0.80750288397E+02 0.  0.
         -6    2    1    2    0  501  0.77466156319E+02  0.51868768398E+02  0.72003057383E+03  0.74718342523E+03  0.17648702269E+03 0.  0.
        -24    2    5    5    0    0  0.11823503588E+03  0.46586185541E+02  0.46116388572E+03  0.48503068457E+03  0.80204981700E+02 0.  0.
          5    1    3    3  502    0 -0.49705643288E+02 -0.70068003760E+02  0.48714457229E+03  0.49468383887E+03  0.47000000000E+01 0. -1.
        -13    1    4    4    0    0  0.24895834001E+01 -0.11952474361E+02 -0.15018993129E+01  0.12301031274E+02  0.00000000000E+00 0.  1.
         14    1    4    4    0    0 -0.30250096431E+02  0.30151709724E+02  0.20063162653E+03  0.20512738359E+03  0.00000000000E+00 0. -1.
         -5    1    5    5    0  501 -0.40768879560E+02  0.52825828569E+01  0.25886668811E+03  0.26215274066E+03  0.47000000000E+01 0.  1.
         11    1    6    6    0    0  0.10313060526E+03  0.47554179259E+01  0.36024561785E+03  0.37474716933E+03  0.00000000000E+00 0. -1.
        -12    1    6    6    0    0  0.15104430615E+02  0.41830767615E+02  0.10091826786E+03  0.11028351523E+03  0.00000000000E+00 0.  1.
<mgrwt>
<rscale>  2 0.19478189E+03</rscale>
<asrwt>0</asrwt>
<pdfrwt beam="1">  1        2 0.22043075E+00 0.19478189E+03</pdfrwt>
<pdfrwt beam="2">  1       -2 0.40762169E-02 0.19478189E+03</pdfrwt>
<totfact> 0.39439780E+03</totfact>
</mgrwt>
</event>
<event>
12    1  0.4404304E-002  0.4766728E+03  0.7546771E-02  0.1020054E+00
          1   -1    0    0  502    0  0.00000000000E+00  0.00000000000E+00  0.21944159237E+04  0.21944159237E+04  0.00000000000E+00 0. -1.
         -1   -1    0    0    0  501 -0.00000000000E+00 -0.00000000000E+00 -0.11643947802E+03  0.11643947802E+03  0.00000000000E+00 0.  1.
          6    2    1    2  502    0 -0.28810477480E+03 -0.33818642104E+03  0.14233594381E+04  0.15010308236E+04  0.17253123417E+03 0.  0.
         24    2    3    3    0    0 -0.44900488578E+02 -0.10048914846E+03  0.40659978912E+03  0.42889716029E+03  0.80717177610E+02 0.  0.
         -6    2    1    2    0  501  0.28810477480E+03  0.33818642104E+03  0.65461700764E+03  0.80982457816E+03  0.17296821693E+03 0.  0.
        -24    2    5    5    0    0  0.12565727824E+03  0.13413308631E+03  0.38604338533E+03  0.43541726900E+03  0.82324154242E+02 0.  0.
          5    1    3    3  502    0 -0.24320428623E+03 -0.23769727258E+03  0.10167596489E+04  0.10721336633E+04  0.47000000000E+01 0. -1.
        -11    1    4    4    0    0 -0.34871373355E+02 -0.68514370766E+02  0.37512923022E+03  0.38292580358E+03  0.00000000000E+00 0.  1.
         12    1    4    4    0    0 -0.10029115222E+02 -0.31974777690E+02  0.31470558901E+02  0.45971356713E+02  0.00000000000E+00 0. -1.
         -5    1    5    5    0  501  0.16244749656E+03  0.20405333472E+03  0.26857362231E+03  0.37440730916E+03  0.47000000000E+01 0.  1.
         11    1    6    6    0    0 -0.11244891145E+02  0.20885361573E+02  0.45496985258E+02  0.51309078851E+02  0.00000000000E+00 0. -1.
        -12    1    6    6    0    0  0.13690216939E+03  0.11324772474E+03  0.34054640007E+03  0.38410819015E+03  0.00000000000E+00 0.  1.
<mgrwt>
<rscale>  2 0.47667276E+03</rscale>
<asrwt>0</asrwt>
<pdfrwt beam="1">  1        1 0.33760242E+00 0.47667276E+03</pdfrwt>
<pdfrwt beam="2">  1       -1 0.17913767E-01 0.47667276E+03</pdfrwt>
<totfact> 0.58232178E+01</totfact>
</mgrwt>
</event>
<event>
12    1  0.4404304E-002  0.2078529E+03  0.7546771E-02  0.1143278E+00
         -2   -1    0    0    0  501 -0.00000000000E+00  0.00000000000E+00  0.64355558228E+02  0.64355558228E+02  0.00000000000E+00 0. -1.
          2   -1    0    0  502    0  0.00000000000E+00 -0.00000000000E+00 -0.79691574261E+03  0.79691574261E+03  0.00000000000E+00 0.  1.
          6    2    1    2  502    0 -0.54943107672E+02  0.10122652480E+03 -0.19524433899E+03  0.28513618286E+03  0.17296455263E+03 0.  0.
         24    2    3    3    0    0  0.31860893433E+02  0.40370824712E+02 -0.54088469409E+02  0.10854224084E+03  0.78809488679E+02 0.  0.
         -6    2    1    2    0  501  0.54943107672E+02 -0.10122652480E+03 -0.53731584539E+03  0.57613511798E+03  0.17308322290E+03 0.  0.
        -24    2    5    5    0    0 -0.26994416103E+01 -0.12047850417E+03 -0.33851690620E+03  0.36820144966E+03  0.80350823216E+02 0.  0.
          5    1    3    3  502    0 -0.86804001105E+02  0.60855700088E+02 -0.14115586958E+03  0.17659394202E+03  0.47000000000E+01 0. -1.
        -11    1    4    4    0    0  0.12501990975E+02  0.37759052646E+02 -0.71860096501E+02  0.82133545547E+02  0.00000000000E+00 0.  1.
         12    1    4    4    0    0  0.19358902457E+02  0.26117720660E+01  0.17771627092E+02  0.26408695295E+02  0.00000000000E+00 0. -1.
         -5    1    5    5    0  501  0.57642549283E+02  0.19251979373E+02 -0.19879893919E+03  0.20793366832E+03  0.47000000000E+01 0.  1.
         13    1    6    6    0    0 -0.41170552311E+02 -0.52461012136E+02 -0.15378768292E+03  0.16762405433E+03  0.00000000000E+00 0. -1.
        -14    1    6    6    0    0  0.38471110701E+02 -0.68017492037E+02 -0.18472922329E+03  0.20057739533E+03  0.00000000000E+00 0.  1.
<mgrwt>
<rscale>  2 0.20785288E+03</rscale>
<asrwt>0</asrwt>
<pdfrwt beam="2">  1        2 0.12260242E+00 0.20785288E+03</pdfrwt>
<pdfrwt beam="1">  1       -2 0.99008554E-02 0.20785288E+03</pdfrwt>
<totfact> 0.23895454E+03</totfact>
</mgrwt>
</event>
<event>
12    1  0.4404304E-002  0.1779611E+03  0.7546771E-02  0.1169791E+00
         -2   -1    0    0    0  501 -0.00000000000E+00  0.00000000000E+00  0.66211254718E+03  0.66211254718E+03  0.00000000000E+00 0.  1.
          2   -1    0    0  502    0  0.00000000000E+00 -0.00000000000E+00 -0.49108325401E+02  0.49108325401E+02  0.00000000000E+00 0. -1.
          6    2    1    2  502    0  0.31148819853E+02  0.41480669892E+02  0.25086536756E+03  0.30815180381E+03  0.17126939773E+03 0.  0.
         24    2    3    3    0    0  0.88421948235E+01 -0.35905910542E+02  0.18583376837E+03  0.20453005298E+03  0.77012559273E+02 0.  0.
         -6    2    1    2    0  501 -0.31148819853E+02 -0.41480669892E+02  0.36213885422E+03  0.40306906877E+03  0.16920174204E+03 0.  0.
        -24    2    5    5    0    0 -0.22482438550E+01  0.14807795150E+02  0.31120279831E+03  0.32170441808E+03  0.80138789239E+02 0.  0.
          5    1    3    3  502    0  0.22306625029E+02  0.77386580435E+02  0.65031599193E+02  0.10362175083E+03  0.47000000000E+01 0. -1.
        -13    1    4    4    0    0  0.16900443305E+02 -0.16953327248E+02  0.18201750907E+03  0.18358489561E+03  0.00000000000E+00 0.  1.
         14    1    4    4    0    0 -0.80582484816E+01 -0.18952583295E+02  0.38162592953E+01  0.20945157368E+02  0.00000000000E+00 0. -1.
         -5    1    5    5    0  501 -0.28900575998E+02 -0.56288465042E+02  0.50936055911E+02  0.81364650688E+02  0.47000000000E+01 0.  1.
         13    1    6    6    0    0  0.23909165680E+02  0.23219871759E+02  0.57060475081E+02  0.66081074934E+02  0.00000000000E+00 0. -1.
        -14    1    6    6    0    0 -0.26157409535E+02 -0.84120766085E+01  0.25414232323E+03  0.25562334315E+03  0.00000000000E+00 0.  1.
<mgrwt>
<rscale>  2 0.17796111E+03</rscale>
<asrwt>0</asrwt>
<pdfrwt beam="2">  1        2 0.75551275E-02 0.17796111E+03</pdfrwt>
<pdfrwt beam="1">  1       -2 0.10186346E+00 0.17796111E+03</pdfrwt>
<totfact> 0.74209201E+02</totfact>
</mgrwt>
</event>
<event>
12    1  0.4404304E-002  0.1752436E+03  0.7546771E-02  0.1172487E+00
          3   -1    0    0  502    0  0.00000000000E+00  0.00000000000E+00  0.19705549023E+03  0.19705549023E+03  0.00000000000E+00 0.  1.
         -3   -1    0    0    0  501 -0.00000000000E+00 -0.00000000000E+00 -0.18464294945E+03  0.18464294945E+03  0.00000000000E+00 0. -1.
          6    2    1    2  502    0 -0.29918267677E+02 -0.49741546771E+00  0.81578285409E+02  0.19337225513E+03  0.17274970981E+03 0.  0.
         24    2    3    3    0    0 -0.13198840699E+02  0.65548802556E+02  0.34542241282E+02  0.11044987214E+03  0.80840292614E+02 0.  0.
         -6    2    1    2    0  501  0.29918267677E+02  0.49741546771E+00 -0.69165744629E+02  0.18832618456E+03  0.17259055999E+03 0.  0.
        -24    2    5    5    0    0  0.18830107015E+02  0.13120333335E+02  0.29938470640E+02  0.87698053075E+02  0.79170199014E+02 0.  0.
          5    1    3    3  502    0 -0.16719426978E+02 -0.66046218024E+02  0.47036044126E+02  0.82922382990E+02  0.47000000000E+01 0. -1.
        -13    1    4    4    0    0 -0.39213610956E+02  0.65317466373E+02  0.36268170002E+02  0.84376885774E+02  0.00000000000E+00 0.  1.
         14    1    4    4    0    0  0.26014770257E+02  0.23133618267E+00 -0.17259287197E+01  0.26072986363E+02  0.00000000000E+00 0. -1.
         -5    1    5    5    0  501  0.11088160662E+02 -0.12622917867E+02 -0.99104215268E+02  0.10062813149E+03  0.47000000000E+01 0.  1.
         13    1    6    6    0    0  0.33529336826E+02  0.34398625598E+02 -0.13162712433E+00  0.48036436137E+02  0.00000000000E+00 0. -1.
        -14    1    6    6    0    0 -0.14699229811E+02 -0.21278292262E+02  0.30070097764E+02  0.39661616938E+02  0.00000000000E+00 0.  1.
<mgrwt>
<rscale>  2 0.17524360E+03</rscale>
<asrwt>0</asrwt>
<pdfrwt beam="1">  1        3 0.30316230E-01 0.17524360E+03</pdfrwt>
<pdfrwt beam="2">  1       -3 0.28406607E-01 0.17524360E+03</pdfrwt>
<totfact> 0.30085688E+02</totfact>
</mgrwt>
</event>
<event>
12    1  0.4404304E-002  0.2526450E+03  0.7546771E-02  0.1111645E+00
         -2   -1    0    0    0  501 -0.00000000000E+00  0.00000000000E+00  0.14215339715E+03  0.14215339715E+03  0.00000000000E+00 0.  1.
          2   -1    0    0  502    0  0.00000000000E+00 -0.00000000000E+00 -0.48711051848E+03  0.48711051848E+03  0.00000000000E+00 0. -1.
          6    2    1    2  502    0 -0.18336893508E+03  0.13099176903E+02 -0.84444563315E+02  0.26630910205E+03  0.17318746714E+03 0.  0.
         24    2    3    3    0    0 -0.61508906284E+02  0.53836843514E+02  0.34794230670E+00  0.11229195006E+03  0.76990971626E+02 0.  0.
         -6    2    1    2    0  501  0.18336893508E+03 -0.13099176903E+02 -0.26051255802E+03  0.36295481358E+03  0.17341755686E+03 0.  0.
        -24    2    5    5    0    0  0.18544005676E+03 -0.24477550508E+02 -0.27623914092E+03  0.34287566169E+03  0.79173804219E+02 0.  0.
          5    1    3    3  502    0 -0.12186002879E+03 -0.40737666611E+02 -0.84792505622E+02  0.15401715199E+03  0.47000000000E+01 0. -1.
        -13    1    4    4    0    0 -0.75740603117E+02  0.41056305661E+02 -0.15396573759E+02  0.87517504984E+02  0.00000000000E+00 0.  1.
         14    1    4    4    0    0  0.14231696832E+02  0.12780537853E+02  0.15744516066E+02  0.24774445073E+02  0.00000000000E+00 0. -1.
         -5    1    5    5    0  501 -0.20711216866E+01  0.11378373605E+02  0.15726582895E+02  0.20079151887E+02  0.47000000000E+01 0.  1.
         13    1    6    6    0    0  0.59034945215E+02  0.27761234814E+02 -0.73029671689E+02  0.97924174043E+02  0.00000000000E+00 0. -1.
        -14    1    6    6    0    0  0.12640511155E+03 -0.52238785322E+02 -0.20320946923E+03  0.24495148765E+03  0.00000000000E+00 0.  1.
<mgrwt>
<rscale>  2 0.25264504E+03</rscale>
<asrwt>0</asrwt>
<pdfrwt beam="2">  1        2 0.74940081E-01 0.25264504E+03</pdfrwt>
<pdfrwt beam="1">  1       -2 0.21869753E-01 0.25264504E+03</pdfrwt>
<totfact> 0.11543329E+03</totfact>
</mgrwt>
</event>
<event>
12    1  0.4404304E-002  0.1739587E+03  0.7546771E-02  0.1173781E+00
         -2   -1    0    0    0  501 -0.00000000000E+00  0.00000000000E+00  0.12476038072E+03  0.12476038072E+03  0.00000000000E+00 0.  1.
          2   -1    0    0  502    0  0.00000000000E+00 -0.00000000000E+00 -0.30882459178E+03  0.30882459178E+03  0.00000000000E+00 0. -1.
          6    2    1    2  502    0  0.10463115354E+00 -0.37153216715E+01 -0.19320565031E+03  0.26124051710E+03  0.17579638762E+03 0.  0.
         24    2    3    3    0    0  0.21087776609E+02  0.27531140741E+02 -0.24701438501E+02  0.88519953172E+02  0.77607750984E+02 0.  0.
         -6    2    1    2    0  501 -0.10463115354E+00  0.37153216715E+01  0.91414392603E+01  0.17234445540E+03  0.17206170646E+03 0.  0.
        -24    2    5    5    0    0  0.54909498360E+02 -0.34136397778E+02 -0.13722377398E+02  0.10160442978E+03  0.77167414412E+02 0.  0.
          5    1    3    3  502    0 -0.20983145456E+02 -0.31246462412E+02 -0.16850421181E+03  0.17272056393E+03  0.47000000000E+01 0. -1.
        -11    1    4    4    0    0 -0.25314213217E+02  0.10946442413E+02  0.87815322302E+01  0.28943899195E+02  0.00000000000E+00 0.  1.
         12    1    4    4    0    0  0.46401989826E+02  0.16584698327E+02 -0.33482970732E+02  0.59576053977E+02  0.00000000000E+00 0. -1.
         -5    1    5    5    0  501 -0.55014129513E+02  0.37851719449E+02  0.22863816658E+02  0.70740025612E+02  0.47000000000E+01 0.  1.
         11    1    6    6    0    0 -0.68896921942E+01  0.17039396049E+02 -0.10790721743E+02  0.21313107515E+02  0.00000000000E+00 0. -1.
        -12    1    6    6    0    0  0.61799190554E+02 -0.51175793827E+02 -0.29316556555E+01  0.80291322270E+02  0.00000000000E+00 0.  1.
<mgrwt>
<rscale>  2 0.17395874E+03</rscale>
<asrwt>0</asrwt>
<pdfrwt beam="2">  1        2 0.47511475E-01 0.17395874E+03</pdfrwt>
<pdfrwt beam="1">  1       -2 0.19193905E-01 0.17395874E+03</pdfrwt>
<totfact> 0.23494097E+03</totfact>
</mgrwt>
</event>
<event>
12    1  0.4404304E-002  0.2767058E+03  0.7546771E-02  0.1097502E+00
          2   -1    0    0  502    0  0.00000000000E+00  0.00000000000E+00  0.17498712052E+04  0.17498712052E+04  0.00000000000E+00 0.  1.
         -2   -1    0    0    0  501 -0.00000000000E+00 -0.00000000000E+00 -0.64272983673E+02  0.64272983673E+02  0.00000000000E+00 0. -1.
          6    2    1    2  502    0 -0.19101292401E+03 -0.10036822599E+03  0.33017435096E+03  0.43075203711E+03  0.17312566970E+03 0.  0.
         24    2    3    3    0    0 -0.12471415789E+03 -0.87097750426E+02  0.31891418264E+03  0.36204604537E+03  0.78939494376E+02 0.  0.
         -6    2    1    2    0  501  0.19101292401E+03  0.10036822599E+03  0.13554238705E+04  0.13833921517E+04  0.17332125879E+03 0.  0.
        -24    2    5    5    0    0  0.10390504553E+03  0.12217225905E+03  0.10516005729E+04  0.10665422116E+04  0.76981848112E+02 0.  0.
          5    1    3    3  502    0 -0.66298766111E+02 -0.13270475569E+02  0.11260168327E+02  0.68705991736E+02  0.47000000000E+01 0. -1.
        -13    1    4    4    0    0 -0.75837754173E+02 -0.81166106149E+02  0.15361496472E+03  0.18957019578E+03  0.00000000000E+00 0.  1.
         14    1    4    4    0    0 -0.48876403722E+02 -0.59316442773E+01  0.16529921792E+03  0.17247584959E+03  0.00000000000E+00 0. -1.
         -5    1    5    5    0  501  0.87107878472E+02 -0.21804033050E+02  0.30382329767E+03  0.31684994012E+03  0.47000000000E+01 0.  1.
         13    1    6    6    0    0  0.34123839499E+02  0.34241341424E+01  0.11962321689E+03  0.12444225623E+03  0.00000000000E+00 0. -1.
        -14    1    6    6    0    0  0.69781206035E+02  0.11874812490E+03  0.93197735597E+03  0.94209995538E+03  0.00000000000E+00 0.  1.
<mgrwt>
<rscale>  2 0.27670578E+03</rscale>
<asrwt>0</asrwt>
<pdfrwt beam="1">  1        2 0.26921092E+00 0.27670578E+03</pdfrwt>
<pdfrwt beam="2">  1       -2 0.98881527E-02 0.27670578E+03</pdfrwt>
<totfact> 0.68022777E+02</totfact>
</mgrwt>
</event>
<event>
12    1  0.4404304E-002  0.1865672E+03  0.7546771E-02  0.1161594E+00
          1   -1    0    0  502    0  0.00000000000E+00  0.00000000000E+00  0.10735225323E+04  0.10735225323E+04  0.00000000000E+00 0.  1.
         -1   -1    0    0    0  501 -0.00000000000E+00 -0.00000000000E+00 -0.38807999486E+02  0.38807999486E+02  0.00000000000E+00 0. -1.
          6    2    1    2  502    0  0.33244222735E+02  0.62078226803E+02  0.74319310131E+03  0.76627933657E+03  0.17288479179E+03 0.  0.
         24    2    3    3    0    0  0.44107274042E+02 -0.15014872282E+02  0.55524278260E+03  0.56278790159E+03  0.79150341283E+02 0.  0.
         -6    2    1    2    0  501 -0.33244222735E+02 -0.62078226803E+02  0.29152143147E+03  0.34605119518E+03  0.17264935590E+03 0.  0.
        -24    2    5    5    0    0 -0.22877040947E+02 -0.10570767834E+03  0.17880606958E+03  0.22465164697E+03  0.82457744962E+02 0.  0.
          5    1    3    3  502    0 -0.10863051307E+02  0.77093099084E+02  0.18795031871E+03  0.20349143498E+03  0.47000000000E+01 0. -1.
        -11    1    4    4    0    0  0.15896972569E+02  0.32425274935E+01  0.48123842035E+03  0.48151183261E+03  0.00000000000E+00 0.  1.
         12    1    4    4    0    0  0.28210301473E+02 -0.18257399775E+02  0.74004362248E+02  0.81276068972E+02  0.00000000000E+00 0. -1.
         -5    1    5    5    0  501 -0.10367181788E+02  0.43629451541E+02  0.11271536189E+03  0.12139954821E+03  0.47000000000E+01 0.  1.
         11    1    6    6    0    0 -0.26814471919E+02 -0.10486073108E+03  0.18669142027E+03  0.21579730126E+03  0.00000000000E+00 0. -1.
        -12    1    6    6    0    0  0.39374309718E+01 -0.84694725904E+00 -0.78853506952E+01  0.88543457072E+01  0.00000000000E+00 0.  1.
<mgrwt>
<rscale>  2 0.18656724E+03</rscale>
<asrwt>0</asrwt>
<pdfrwt beam="1">  1        1 0.16515729E+00 0.18656724E+03</pdfrwt>
<pdfrwt beam="2">  1       -1 0.59704623E-02 0.18656724E+03</pdfrwt>
<totfact> 0.18939957E+03</totfact>
</mgrwt>
</event>
<event>
12    1  0.4404304E-002  0.2759533E+03  0.7546771E-02  0.1097920E+00
          2   -1    0    0  502    0  0.00000000000E+00  0.00000000000E+00  0.11690853255E+04  0.11690853255E+04  0.00000000000E+00 0. -1.
         -2   -1    0    0    0  501 -0.00000000000E+00 -0.00000000000E+00 -0.98358564230E+02  0.98358564230E+02  0.00000000000E+00 0.  1.
          6    2    1    2  502    0  0.21143830894E+03  0.28431563738E+02  0.90325919662E+03  0.94437960375E+03  0.17453122181E+03 0.  0.
         24    2    3    3    0    0  0.12907437906E+03  0.81357058307E+02  0.48218798062E+03  0.51205104366E+03  0.80074068178E+02 0.  0.
         -6    2    1    2    0  501 -0.21143830894E+03 -0.28431563738E+02  0.16746756462E+03  0.32306428595E+03  0.17552958540E+03 0.  0.
        -24    2    5    5    0    0 -0.37193862953E+02  0.25838034522E+02  0.72351427230E+02  0.11721121737E+03  0.80329029529E+02 0.  0.
          5    1    3    3  502    0  0.82363929886E+02 -0.52925494569E+02  0.42107121600E+03  0.43232856008E+03  0.47000000000E+01 0. -1.
        -11    1    4    4    0    0  0.62022275111E+02  0.55779768761E+02  0.14473948230E+03  0.16705586775E+03  0.00000000000E+00 0.  1.
         12    1    4    4    0    0  0.67052103947E+02  0.25577289546E+02  0.33744849832E+03  0.34499517591E+03  0.00000000000E+00 0. -1.
         -5    1    5    5    0  501 -0.17424444599E+03 -0.54269598260E+02  0.95116137386E+02  0.20585306858E+03  0.47000000000E+01 0.  1.
         13    1    6    6    0    0 -0.55268283268E+02  0.28837334480E+02  0.26320233229E+02  0.67667789033E+02  0.00000000000E+00 0. -1.
        -14    1    6    6    0    0  0.18074420315E+02 -0.29992999581E+01  0.46031194000E+02  0.49543428334E+02  0.00000000000E+00 0.  1.
<mgrwt>
<rscale>  2 0.27595326E+03</rscale>
<asrwt>0</asrwt>
<pdfrwt beam="1">  1        2 0.17985927E+00 0.27595326E+03</pdfrwt>
<pdfrwt beam="2">  1       -2 0.15132088E-01 0.27595326E+03</pdfrwt>
<totfact> 0.70436527E+02</totfact>
</mgrwt>
</event>
<event>
12    1  0.4404304E-002  0.1761648E+03  0.7546771E-02  0.1171567E+00
         -2   -1    0    0    0  501 -0.00000000000E+00  0.00000000000E+00  0.57104056066E+02  0.57104056066E+02  0.00000000000E+00 0. -1.
          2   -1    0    0  502    0  0.00000000000E+00 -0.00000000000E+00 -0.55695022745E+03  0.55695022745E+03  0.00000000000E+00 0.  1.
          6    2    1    2  502    0 -0.17302653177E+02  0.29736810269E+02 -0.29787849017E+03  0.34613802234E+03  0.17290539585E+03 0.  0.
         24    2    3    3    0    0  0.31494292585E+02 -0.22039596917E+02 -0.23236366409E+03  0.24930713526E+03  0.81752926592E+02 0.  0.
         -6    2    1    2    0  501  0.17302653177E+02 -0.29736810269E+02 -0.20196768122E+03  0.26791626117E+03  0.17263985361E+03 0.  0.
        -24    2    5    5    0    0 -0.15197838501E+02  0.14304655383E+02 -0.25327531747E+02  0.82930410199E+02  0.76160170763E+02 0.  0.
          5    1    3    3  502    0 -0.48796945761E+02  0.51776407185E+02 -0.65514826079E+02  0.96830887081E+02  0.47000000000E+01 0. -1.
        -11    1    4    4    0    0 -0.17721194135E+02 -0.34488961265E+02 -0.84510096721E+02  0.92981103556E+02  0.00000000000E+00 0.  1.
         12    1    4    4    0    0  0.49215486720E+02  0.12449364349E+02 -0.14785356737E+03  0.15632603171E+03  0.00000000000E+00 0. -1.
         -5    1    5    5    0  501  0.32500491678E+02 -0.44041465652E+02 -0.17664014947E+03  0.18498585097E+03  0.47000000000E+01 0.  1.
         13    1    6    6    0    0 -0.34261636765E+02 -0.18834683851E+02 -0.43952348743E+01  0.39343654624E+02  0.00000000000E+00 0. -1.
        -14    1    6    6    0    0  0.19063798264E+02  0.33139339234E+02 -0.20932296873E+02  0.43586755574E+02  0.00000000000E+00 0.  1.
<mgrwt>
<rscale>  2 0.17616476E+03</rscale>
<asrwt>0</asrwt>
<pdfrwt beam="2">  1        2 0.85684648E-01 0.17616476E+03</pdfrwt>
<pdfrwt beam="1">  1       -2 0.87852397E-02 0.17616476E+03</pdfrwt>
<totfact> 0.43958704E+03</totfact>
</mgrwt>
</event>
<event>
12    1  0.4404304E-002  0.1806184E+03  0.7546771E-02  0.1167206E+00
          3   -1    0    0  502    0  0.00000000000E+00  0.00000000000E+00  0.73937968708E+02  0.73937968708E+02  0.00000000000E+00 0.  1.
         -3   -1    0    0    0  501 -0.00000000000E+00 -0.00000000000E+00 -0.54792614619E+03  0.54792614619E+03  0.00000000000E+00 0. -1.
          6    2    1    2  502    0 -0.25156213850E+02  0.44776220621E+02 -0.99897549418E+02  0.20650049214E+03  0.17327777655E+03 0.  0.
         24    2    3    3    0    0  0.41239827905E+02  0.53662589501E+01 -0.12464257406E+02  0.89760396232E+02  0.78562401175E+02 0.  0.
         -6    2    1    2    0  501  0.25156213850E+02 -0.44776220621E+02 -0.37409062807E+03  0.41536362277E+03  0.17304738103E+03 0.  0.
        -24    2    5    5    0    0  0.62542363751E+02 -0.23330136640E+02 -0.35111611830E+03  0.36629655824E+03  0.80217189580E+02 0.  0.
          5    1    3    3  502    0 -0.66396041755E+02  0.39409961671E+02 -0.87433292012E+02  0.11674009590E+03  0.47000000000E+01 0. -1.
        -13    1    4    4    0    0  0.19006025730E+02  0.41925990065E+02 -0.82174508700E+01  0.46760497813E+02  0.00000000000E+00 0.  1.
         14    1    4    4    0    0  0.22233802174E+02 -0.36559731114E+02 -0.42468065355E+01  0.42999898419E+02  0.00000000000E+00 0. -1.
         -5    1    5    5    0  501 -0.37386149901E+02 -0.21446083981E+02 -0.22974509765E+02  0.49067064529E+02  0.47000000000E+01 0.  1.
         13    1    6    6    0    0  0.29715658036E+02  0.24833192722E+02 -0.21127098017E+03  0.21479090962E+03  0.00000000000E+00 0. -1.
        -14    1    6    6    0    0  0.32826705715E+02 -0.48163329362E+02 -0.13984513814E+03  0.15150564862E+03  0.00000000000E+00 0.  1.
<mgrwt>
<rscale>  2 0.18061842E+03</rscale>
<asrwt>0</asrwt>
<pdfrwt beam="1">  1        3 0.11375072E-01 0.18061842E+03</pdfrwt>
<pdfrwt beam="2">  1       -3 0.84296333E-01 0.18061842E+03</pdfrwt>
<totfact> 0.19089019E+02</totfact>
</mgrwt>
</event>
<event>
12    1  0.4404304E-002  0.2797635E+03  0.7546771E-02  0.1095818E+00
         -2   -1    0    0    0  501 -0.00000000000E+00  0.00000000000E+00  0.31081453101E+03  0.31081453101E+03  0.00000000000E+00 0. -1.
          2   -1    0    0  502    0  0.00000000000E+00 -0.00000000000E+00 -0.25188432057E+03  0.25188432057E+03  0.00000000000E+00 0.  1.
          6    2    1    2  502    0  0.46369803461E+02 -0.21726504676E+03  0.25052987880E+02  0.28203698560E+03  0.17193879676E+03 0.  0.
         24    2    3    3    0    0  0.65655155560E+01 -0.14641730068E+03  0.78390597337E+02  0.18471907850E+03  0.80591068230E+02 0.  0.
         -6    2    1    2    0  501 -0.46369803461E+02  0.21726504676E+03  0.33877222560E+02  0.28066186598E+03  0.16813434388E+03 0.  0.
        -24    2    5    5    0    0  0.38956723556E+02  0.12052247291E+03  0.15297090872E+02  0.15025077328E+03  0.79359946405E+02 0.  0.
          5    1    3    3  502    0  0.39804287905E+02 -0.70847746076E+02 -0.53337609457E+02  0.97317907099E+02  0.47000000000E+01 0. -1.
        -11    1    4    4    0    0 -0.62499058853E+01 -0.10921153259E+03  0.15430714923E+02  0.11047319646E+03  0.00000000000E+00 0.  1.
         12    1    4    4    0    0  0.12815421441E+02 -0.37205768094E+02  0.62959882415E+02  0.74245882040E+02  0.00000000000E+00 0. -1.
         -5    1    5    5    0  501 -0.85326527016E+02  0.96742573842E+02  0.18580131689E+02  0.13041109270E+03  0.47000000000E+01 0.  1.
         11    1    6    6    0    0  0.35838516680E+02  0.12055623823E+03  0.34803173214E+02  0.13049699889E+03  0.00000000000E+00 0. -1.
        -12    1    6    6    0    0  0.31182068753E+01 -0.33765312417E-01 -0.19506082342E+02  0.19753774387E+02  0.00000000000E+00 0.  1.
<mgrwt>
<rscale>  2 0.27976354E+03</rscale>
<asrwt>0</asrwt>
<pdfrwt beam="2">  1        2 0.38751434E-01 0.27976354E+03</pdfrwt>
<pdfrwt beam="1">  1       -2 0.47817620E-01 0.27976354E+03</pdfrwt>
<totfact> 0.55762257E+02</totfact>
</mgrwt>
</event>
<event>
12    1  0.4404304E-002  0.2223871E+03  0.7546771E-02  0.1132116E+00
         -2   -1    0    0    0  501 -0.00000000000E+00  0.00000000000E+00  0.19593692093E+02  0.19593692093E+02  0.00000000000E+00 0. -1.
          2   -1    0    0  502    0  0.00000000000E+00 -0.00000000000E+00 -0.27344041914E+04  0.27344041914E+04  0.00000000000E+00 0.  1.
          6    2    1    2  502    0  0.65488278571E+02  0.10539901843E+03 -0.17361719464E+04  0.17502867367E+04  0.18388302159E+03 0.  0.
         24    2    3    3    0    0  0.71969669552E+02 -0.25373369850E+01 -0.10582395230E+04  0.10637689103E+04  0.80915605312E+02 0.  0.
         -6    2    1    2    0  501 -0.65488278571E+02 -0.10539901843E+03 -0.97863855290E+03  0.10037111467E+04  0.18521603916E+03 0.  0.
        -24    2    5    5    0    0  0.88763895782E+01 -0.47981364132E+02 -0.24672354489E+03  0.26577581093E+03  0.85925970909E+02 0.  0.
          5    1    3    3  502    0 -0.64813909816E+01  0.10793635542E+03 -0.67793242342E+03  0.68651782640E+03  0.47000000000E+01 0. -1.
        -13    1    4    4    0    0  0.34986017619E+02  0.29898583061E+02 -0.76901489659E+03  0.77039071768E+03  0.00000000000E+00 0.  1.
         14    1    4    4    0    0  0.36983651933E+02 -0.32435920046E+02 -0.28922462639E+03  0.29337819266E+03  0.00000000000E+00 0. -1.
         -5    1    5    5    0  501 -0.74364668149E+02 -0.57417654300E+02 -0.73191500801E+03  0.73793533582E+03  0.47000000000E+01 0.  1.
         13    1    6    6    0    0 -0.27527229510E+02  0.94166468403E+01 -0.52784095840E+02  0.60270908205E+02  0.00000000000E+00 0. -1.
        -14    1    6    6    0    0  0.36403619088E+02 -0.57398010972E+02 -0.19393944905E+03  0.20550490273E+03  0.00000000000E+00 0.  1.
<mgrwt>
<rscale>  2 0.22238712E+03</rscale>
<asrwt>0</asrwt>
<pdfrwt beam="2">  1        2 0.42067746E+00 0.22238712E+03</pdfrwt>
<pdfrwt beam="1">  1       -2 0.30144150E-02 0.22238712E+03</pdfrwt>
<totfact> 0.12579950E+03</totfact>
</mgrwt>
</event>
<event>
12    1  0.4404304E-002  0.2249177E+03  0.7546771E-02  0.1130269E+00
         -2   -1    0    0    0  501 -0.00000000000E+00  0.00000000000E+00  0.61281976576E+03  0.61281976576E+03  0.00000000000E+00 0.  1.
          2   -1    0    0  502    0  0.00000000000E+00 -0.00000000000E+00 -0.87202724515E+02  0.87202724515E+02  0.00000000000E+00 0. -1.
          6    2    1    2  502    0  0.23038613301E+02 -0.13841491691E+03  0.34763053103E+03  0.41613095893E+03  0.18063366782E+03 0.  0.
         24    2    3    3    0    0 -0.43330889002E+00 -0.14315900995E+02  0.60333545006E+02  0.10226292128E+03  0.81316884084E+02 0.  0.
         -6    2    1    2    0  501 -0.23038613301E+02  0.13841491691E+03  0.17798651021E+03  0.28389153134E+03  0.17095536501E+03 0.  0.
        -24    2    5    5    0    0  0.81636763882E+01  0.13717337899E+03  0.19194350105E+03  0.24936600613E+03  0.80361159154E+02 0.  0.
          5    1    3    3  502    0  0.23471922191E+02 -0.12409901591E+03  0.28729698603E+03  0.31386803765E+03  0.47000000000E+01 0. -1.
        -13    1    4    4    0    0 -0.37387179727E+01  0.30413467923E+01  0.77487097543E+02  0.77636834608E+02  0.00000000000E+00 0.  1.
         14    1    4    4    0    0  0.33054090827E+01 -0.17357247787E+02 -0.17153552537E+02  0.24626086668E+02  0.00000000000E+00 0. -1.
         -5    1    5    5    0  501 -0.31202289689E+02  0.12415379116E+01 -0.13956990835E+02  0.34525525215E+02  0.47000000000E+01 0.  1.
         13    1    6    6    0    0 -0.14541574154E+02 -0.11080478823E+01  0.43650303740E+01  0.15222964203E+02  0.00000000000E+00 0. -1.
        -14    1    6    6    0    0  0.22705250542E+02  0.13828142688E+03  0.18757847067E+03  0.23414304192E+03  0.00000000000E+00 0.  1.
<mgrwt>
<rscale>  2 0.22491775E+03</rscale>
<asrwt>0</asrwt>
<pdfrwt beam="2">  1        2 0.13415804E-01 0.22491775E+03</pdfrwt>
<pdfrwt beam="1">  1       -2 0.94279961E-01 0.22491775E+03</pdfrwt>
<totfact> 0.43789527E+02</totfact>
</mgrwt>
</event>
<event>
12    1  0.4404304E-002  0.2139624E+03  0.7546771E-02  0.1138466E+00
         -1   -1    0    0    0  501 -0.00000000000E+00  0.00000000000E+00  0.13145564253E+03  0.13145564253E+03  0.00000000000E+00 0. -1.
          1   -1    0    0  502    0  0.00000000000E+00 -0.00000000000E+00 -0.51051096205E+03  0.51051096205E+03  0.00000000000E+00 0.  1.
          6    2    1    2  502    0 -0.66240372884E+02  0.10606432329E+03 -0.84415265566E+01  0.21391959674E+03  0.17335774232E+03 0.  0.
         24    2    3    3    0    0  0.15856141394E+02  0.39666102453E+02  0.39483247883E+02  0.97870316720E+02  0.78707401989E+02 0.  0.
         -6    2    1    2    0  501  0.66240372884E+02 -0.10606432329E+03 -0.37061379296E+03  0.42804700785E+03  0.17387417784E+03 0.  0.
        -24    2    5    5    0    0  0.16732389884E+02 -0.21035843646E+02 -0.66151924005E+02  0.10804700413E+03  0.81090063899E+02 0.  0.
          5    1    3    3  502    0 -0.82096514278E+02  0.66398220838E+02 -0.47924774440E+02  0.11604928002E+03  0.47000000000E+01 0. -1.
        -11    1    4    4    0    0 -0.23625709314E+02  0.15922020831E+02 -0.10061663649E+02  0.30214598513E+02  0.00000000000E+00 0.  1.
         12    1    4    4    0    0  0.39481850708E+02  0.23744081622E+02  0.49544911533E+02  0.67655718207E+02  0.00000000000E+00 0. -1.
         -5    1    5    5    0  501  0.49507983000E+02 -0.85028479644E+02 -0.30446186895E+03  0.32000000371E+03  0.47000000000E+01 0.  1.
         13    1    6    6    0    0 -0.28824440414E+02 -0.38455743011E+01 -0.44058234373E+01  0.29411699832E+02  0.00000000000E+00 0. -1.
        -14    1    6    6    0    0  0.45556830298E+02 -0.17190269345E+02 -0.61746100568E+02  0.78635304300E+02  0.00000000000E+00 0.  1.
<mgrwt>
<rscale>  2 0.21396240E+03</rscale>
<asrwt>0</asrwt>
<pdfrwt beam="2">  1        1 0.78540149E-01 0.21396240E+03</pdfrwt>
<pdfrwt beam="1">  1       -1 0.20223945E-01 0.21396240E+03</pdfrwt>
<totfact> 0.87149416E+02</totfact>
</mgrwt>
</event>
<event>
12    1  0.4404304E-002  0.2003558E+03  0.7546771E-02  0.1149439E+00
          2   -1    0    0  502    0  0.00000000000E+00  0.00000000000E+00  0.49052326547E+03  0.49052326547E+03  0.00000000000E+00 0.  1.
         -2   -1    0    0    0  501 -0.00000000000E+00 -0.00000000000E+00 -0.82765114372E+02  0.82765114372E+02  0.00000000000E+00 0. -1.
          6    2    1    2  502    0 -0.10018715859E+03 -0.11417344344E+02  0.23489088729E+03  0.30915691920E+03  0.17388631131E+03 0.  0.
         24    2    3    3    0    0 -0.38027188421E+02  0.36179426353E+02  0.20339474554E+03  0.22463821466E+03  0.79610847390E+02 0.  0.
         -6    2    1    2    0  501  0.10018715859E+03  0.11417344344E+02  0.17286726381E+03  0.26413146064E+03  0.17237898684E+03 0.  0.
        -24    2    5    5    0    0  0.10604655027E+03 -0.20715045651E+02  0.62802410217E+02  0.14922634781E+03  0.81543707382E+02 0.  0.
          5    1    3    3  502    0 -0.62159970170E+02 -0.47596770696E+02  0.31496141751E+02  0.84518704542E+02  0.47000000000E+01 0. -1.
        -13    1    4    4    0    0 -0.36914476972E+01  0.50791768652E+02  0.15726620547E+03  0.16530604929E+03  0.00000000000E+00 0.  1.
         14    1    4    4    0    0 -0.34335740724E+02 -0.14612342300E+02  0.46128540068E+02  0.59332165369E+02  0.00000000000E+00 0. -1.
         -5    1    5    5    0  501 -0.58593916742E+01  0.32132389995E+02  0.11006485359E+03  0.11490511282E+03  0.47000000000E+01 0.  1.
         13    1    6    6    0    0  0.27276535265E+02  0.36608790995E+01 -0.18712284763E+02  0.33280039257E+02  0.00000000000E+00 0. -1.
        -14    1    6    6    0    0  0.78770015000E+02 -0.24375924751E+02  0.81514694981E+02  0.11594630856E+03  0.00000000000E+00 0.  1.
<mgrwt>
<rscale>  2 0.20035582E+03</rscale>
<asrwt>0</asrwt>
<pdfrwt beam="1">  1        2 0.75465116E-01 0.20035582E+03</pdfrwt>
<pdfrwt beam="2">  1       -2 0.12733095E-01 0.20035582E+03</pdfrwt>
<totfact> 0.28206007E+03</totfact>
</mgrwt>
</event>
<event>
12    1  0.4404304E-002  0.2461468E+03  0.7546771E-02  0.1115764E+00
          2   -1    0    0  502    0  0.00000000000E+00  0.00000000000E+00  0.86713305786E+03  0.86713305786E+03  0.00000000000E+00 0.  1.
         -2   -1    0    0    0  501 -0.00000000000E+00 -0.00000000000E+00 -0.72715971587E+02  0.72715971587E+02  0.00000000000E+00 0. -1.
          6    2    1    2  502    0  0.15348971570E+03 -0.85626517533E+02  0.30259390146E+03  0.38937543092E+03  0.17076054483E+03 0.  0.
         24    2    3    3    0    0  0.59575536250E+02 -0.89419899353E+02  0.22282195872E+03  0.26600640849E+03  0.97798881113E+02 0.  0.
         -6    2    1    2    0  501 -0.15348971570E+03  0.85626517533E+02  0.49182318481E+03  0.55047359852E+03  0.17389693565E+03 0.  0.
        -24    2    5    5    0    0 -0.42118901789E+02 -0.12346727501E+02  0.50014868728E+02  0.84406121553E+02  0.51927475328E+02 0.  0.
          5    1    3    3  502    0  0.93914179451E+02  0.37933818203E+01  0.79771942742E+02  0.12336902243E+03  0.47000000000E+01 0. -1.
        -11    1    4    4    0    0  0.40327384343E+01  0.21160765415E+02  0.33778023014E+02  0.40062398966E+02  0.00000000000E+00 0.  1.
         12    1    4    4    0    0  0.55542797816E+02 -0.11058066477E+03  0.18904393571E+03  0.22594400952E+03  0.00000000000E+00 0. -1.
         -5    1    5    5    0  501 -0.11137081391E+03  0.97973245034E+02  0.44180831608E+03  0.46606747697E+03  0.47000000000E+01 0.  1.
         13    1    6    6    0    0 -0.12246392055E+01 -0.49515936656E+01  0.41717721714E+02  0.42028399042E+02  0.00000000000E+00 0. -1.
        -14    1    6    6    0    0 -0.40894262583E+02 -0.73951338353E+01  0.82971470141E+01  0.42377722512E+02  0.00000000000E+00 0.  1.
<mgrwt>
<rscale>  2 0.24614678E+03</rscale>
<asrwt>0</asrwt>
<pdfrwt beam="1">  1        2 0.13340508E+00 0.24614678E+03</pdfrwt>
<pdfrwt beam="2">  1       -2 0.11187073E-01 0.24614678E+03</pdfrwt>
<totfact> 0.17669387E+03</totfact>
</mgrwt>
</event>
<event>
12    1  0.4404304E-002  0.2713422E+03  0.7546771E-02  0.1100514E+00
         -2   -1    0    0    0  501 -0.00000000000E+00  0.00000000000E+00  0.94732305745E+03  0.94732305745E+03  0.00000000000E+00 0.  1.
          2   -1    0    0  502    0  0.00000000000E+00 -0.00000000000E+00 -0.11444442982E+03  0.11444442982E+03  0.00000000000E+00 0. -1.
          6    2    1    2  502    0  0.50809844127E+01 -0.20760667635E+03  0.71677063356E+03  0.76627690794E+03  0.17405117073E+03 0.  0.
         24    2    3    3    0    0 -0.18085113966E+02 -0.22719945806E+03  0.65838749106E+03  0.70031308044E+03  0.70835423100E+02 0.  0.
         -6    2    1    2    0  501 -0.50809844127E+01  0.20760667635E+03  0.11610799407E+03  0.29549057934E+03  0.17523489299E+03 0.  0.
        -24    2    5    5    0    0 -0.44442525023E+02  0.20974464127E+03  0.11453438755E+03  0.25576064087E+03  0.79545125025E+02 0.  0.
          5    1    3    3  502    0  0.23166098379E+02  0.19592781711E+02  0.58383142505E+02  0.65963827497E+02  0.47000000000E+01 0. -1.
        -13    1    4    4    0    0 -0.37261551513E+02 -0.18489113032E+03  0.57104927299E+03  0.60139041020E+03  0.00000000000E+00 0.  1.
         14    1    4    4    0    0  0.19176437547E+02 -0.42308327747E+02  0.87338218065E+02  0.98922670246E+02  0.00000000000E+00 0. -1.
         -5    1    5    5    0  501  0.39361540610E+02 -0.21379649148E+01  0.15736065190E+01  0.39729938468E+02  0.47000000000E+01 0.  1.
         13    1    6    6    0    0 -0.35848290008E+02  0.11147461629E+03  0.19358071470E+02  0.11868624564E+03  0.00000000000E+00 0. -1.
        -14    1    6    6    0    0 -0.85942350152E+01  0.98270024981E+02  0.95176316080E+02  0.13707439523E+03  0.00000000000E+00 0.  1.
<mgrwt>
<rscale>  2 0.27134221E+03</rscale>
<asrwt>0</asrwt>
<pdfrwt beam="2">  1        2 0.17606836E-01 0.27134221E+03</pdfrwt>
<pdfrwt beam="1">  1       -2 0.14574200E+00 0.27134221E+03</pdfrwt>
<totfact> 0.11044865E+02</totfact>
</mgrwt>
</event>
<event>
12    1  0.4404304E-002  0.1826122E+03  0.7546771E-02  0.1165299E+00
          1   -1    0    0  502    0  0.00000000000E+00  0.00000000000E+00  0.27225946656E+04  0.27225946656E+04  0.00000000000E+00 0.  1.
         -1   -1    0    0    0  501 -0.00000000000E+00 -0.00000000000E+00 -0.17600526376E+02  0.17600526376E+02  0.00000000000E+00 0. -1.
          6    2    1    2  502    0 -0.11565782165E+02 -0.50142905466E+02  0.20978087936E+04  0.21055738681E+04  0.17318054515E+03 0.  0.
         24    2    3    3    0    0 -0.68089913748E+01 -0.56219766065E+02  0.20930480702E+04  0.20953606521E+04  0.80492322118E+02 0.  0.
         -6    2    1    2    0  501  0.11565782165E+02  0.50142905466E+02  0.60718534556E+03  0.63462132381E+03  0.17726280629E+03 0.  0.
        -24    2    5    5    0    0  0.55989080489E+02 -0.12264955785E+02  0.44472610453E+03  0.45494587870E+03  0.76871569676E+02 0.  0.
          5    1    3    3  502    0 -0.47567907899E+01  0.60768605989E+01  0.47607234487E+01  0.10213216002E+02  0.47000000000E+01 0. -1.
        -13    1    4    4    0    0  0.10931018976E+01 -0.47919856894E+02  0.50464665146E+03  0.50691789314E+03  0.00000000000E+00 0.  1.
         14    1    4    4    0    0 -0.79020932725E+01 -0.82999091709E+01  0.15884014187E+04  0.15884427590E+04  0.00000000000E+00 0. -1.
         -5    1    5    5    0  501 -0.44423298325E+02  0.62407861251E+02  0.16245924103E+03  0.17967544511E+03  0.47000000000E+01 0.  1.
         13    1    6    6    0    0  0.98424368012E+01  0.30247589493E+02  0.11582123879E+03  0.12010973976E+03  0.00000000000E+00 0. -1.
        -14    1    6    6    0    0  0.46146643688E+02 -0.42512545278E+02  0.32890486574E+03  0.33483613894E+03  0.00000000000E+00 0.  1.
<mgrwt>
<rscale>  2 0.18261218E+03</rscale>
<asrwt>0</asrwt>
<pdfrwt beam="1">  1        1 0.41886038E+00 0.18261218E+03</pdfrwt>
<pdfrwt beam="2">  1       -1 0.27077755E-02 0.18261218E+03</pdfrwt>
<totfact> 0.50202854E+02</totfact>
</mgrwt>
</event>
<event>
12    1  0.4404304E-002  0.2353434E+03  0.7546771E-02  0.1122934E+00
         -2   -1    0    0    0  501 -0.00000000000E+00  0.00000000000E+00  0.31760108306E+02  0.31760108306E+02  0.00000000000E+00 0. -1.
          2   -1    0    0  502    0  0.00000000000E+00 -0.00000000000E+00 -0.17772686443E+04  0.17772686443E+04  0.00000000000E+00 0.  1.
          6    2    1    2  502    0  0.14906300127E+03 -0.54810575657E+02 -0.99677242401E+03  0.10241837908E+04  0.17370433058E+03 0.  0.
         24    2    3    3    0    0 -0.48140276612E+00 -0.38356113558E+02 -0.40502139804E+03  0.41358928962E+03  0.74446923520E+02 0.  0.
         -6    2    1    2    0  501 -0.14906300127E+03  0.54810575657E+02 -0.74873611198E+03  0.78484496183E+03  0.17364294161E+03 0.  0.
        -24    2    5    5    0    0 -0.10500404907E+03 -0.95283910382E+01 -0.62185736063E+03  0.63584495697E+03  0.80471061713E+02 0.  0.
          5    1    3    3  502    0  0.14954440404E+03 -0.16454462099E+02 -0.59175102597E+03  0.61059450115E+03  0.47000000000E+01 0. -1.
        -11    1    4    4    0    0 -0.12827923090E+02 -0.24564509872E+02 -0.38619165893E+03  0.38718466936E+03  0.00000000000E+00 0.  1.
         12    1    4    4    0    0  0.12346520324E+02 -0.13791603686E+02 -0.18829739107E+02  0.26404620262E+02  0.00000000000E+00 0. -1.
         -5    1    5    5    0  501 -0.44058952207E+02  0.64338966695E+02 -0.12687875135E+03  0.14900000486E+03  0.47000000000E+01 0.  1.
         13    1    6    6    0    0 -0.36338584538E+02  0.14856819200E+02 -0.80036357668E+02  0.89146151637E+02  0.00000000000E+00 0. -1.
        -14    1    6    6    0    0 -0.68665464528E+02 -0.24385210238E+02 -0.54182100296E+03  0.54669880533E+03  0.00000000000E+00 0.  1.
<mgrwt>
<rscale>  2 0.23534339E+03</rscale>
<asrwt>0</asrwt>
<pdfrwt beam="2">  1        2 0.27342595E+00 0.23534339E+03</pdfrwt>
<pdfrwt beam="1">  1       -2 0.48861704E-02 0.23534339E+03</pdfrwt>
<totfact> 0.19760353E+03</totfact>
</mgrwt>
</event>
<event>
12    1  0.4404304E-002  0.2136648E+03  0.7546771E-02  0.1138696E+00
         -2   -1    0    0    0  501 -0.00000000000E+00  0.00000000000E+00  0.42604081349E+03  0.42604081349E+03  0.00000000000E+00 0. -1.
          2   -1    0    0  502    0  0.00000000000E+00 -0.00000000000E+00 -0.10796622850E+03  0.10796622850E+03  0.00000000000E+00 0.  1.
          6    2    1    2  502    0  0.24692615419E+02 -0.12408115438E+03  0.13535563359E+03  0.25228515438E+03  0.17123315521E+03 0.  0.
         24    2    3    3    0    0  0.68172703455E+01  0.61508862022E+01  0.56332758684E+02  0.98836084278E+02  0.80690044481E+02 0.  0.
         -6    2    1    2    0  501 -0.24692615419E+02  0.12408115438E+03  0.18271895139E+03  0.28172188761E+03  0.17313332617E+03 0.  0.
        -24    2    5    5    0    0  0.51860217123E+02  0.36610261933E+02  0.82864493388E+02  0.12841012688E+03  0.74785312870E+02 0.  0.
          5    1    3    3  502    0  0.17875345074E+02 -0.13023204058E+03  0.79022874910E+02  0.15344907010E+03  0.47000000000E+01 0. -1.
        -13    1    4    4    0    0  0.33570937122E+02  0.28768425834E+02  0.20532366807E+02  0.48746366335E+02  0.00000000000E+00 0.  1.
         14    1    4    4    0    0 -0.26753666776E+02 -0.22617539632E+02  0.35800391878E+02  0.50089717942E+02  0.00000000000E+00 0. -1.
         -5    1    5    5    0  501 -0.76552832542E+02  0.87470892444E+02  0.99854458006E+02  0.15331176073E+03  0.47000000000E+01 0.  1.
         13    1    6    6    0    0  0.52919774638E+02  0.21454189610E+02  0.93713875997E+02  0.10974094657E+03  0.00000000000E+00 0. -1.
        -14    1    6    6    0    0 -0.10595575151E+01  0.15156072322E+02 -0.10849382608E+02  0.18669180307E+02  0.00000000000E+00 0.  1.
<mgrwt>
<rscale>  2 0.21366482E+03</rscale>
<asrwt>0</asrwt>
<pdfrwt beam="2">  1        2 0.16610189E-01 0.21366482E+03</pdfrwt>
<pdfrwt beam="1">  1       -2 0.65544740E-01 0.21366482E+03</pdfrwt>
<totfact> 0.75486432E+02</totfact>
</mgrwt>
</event>
<event>
12    1  0.4404304E-002  0.1763347E+03  0.7546771E-02  0.1171398E+00
          2   -1    0    0  502    0  0.00000000000E+00  0.00000000000E+00  0.45965236249E+03  0.45965236249E+03  0.00000000000E+00 0. -1.
         -2   -1    0    0    0  501 -0.00000000000E+00 -0.00000000000E+00 -0.93506932368E+02  0.93506932368E+02  0.00000000000E+00 0.  1.
          6    2    1    2  502    0 -0.30250753567E+02 -0.10977326313E+02  0.38092753244E+02  0.18101188567E+03  0.17400757202E+03 0.  0.
         24    2    3    3    0    0 -0.52087264554E+02 -0.31881882450E+02  0.80257343610E+02  0.12891796702E+03  0.80306061164E+02 0.  0.
         -6    2    1    2    0  501  0.30250753567E+02  0.10977326313E+02  0.32805267688E+03  0.37214740919E+03  0.17274120984E+03 0.  0.
        -24    2    5    5    0    0  0.44769410425E+02 -0.46320064668E+02  0.13316755160E+03  0.16844153184E+03  0.80554977196E+02 0.  0.
          5    1    3    3  502    0  0.21836510988E+02  0.20904556137E+02 -0.42164590365E+02  0.52093918648E+02  0.47000000000E+01 0. -1.
        -11    1    4    4    0    0  0.20555560668E+02 -0.17130262101E+02  0.20678782211E+02  0.33816992589E+02  0.00000000000E+00 0.  1.
         12    1    4    4    0    0 -0.72642825222E+02 -0.14751620349E+02  0.59578561398E+02  0.95100974430E+02  0.00000000000E+00 0. -1.
         -5    1    5    5    0  501 -0.14518656858E+02  0.57297390982E+02  0.19488512528E+03  0.20370587735E+03  0.47000000000E+01 0.  1.
         11    1    6    6    0    0 -0.73119725555E+01  0.18550682227E+02  0.24627509075E+02  0.31687646757E+02  0.00000000000E+00 0. -1.
        -12    1    6    6    0    0  0.52081382980E+02 -0.64870746895E+02  0.10854004252E+03  0.13675388509E+03  0.00000000000E+00 0.  1.
<mgrwt>
<rscale>  2 0.17633467E+03</rscale>
<asrwt>0</asrwt>
<pdfrwt beam="1">  1        2 0.70715747E-01 0.17633467E+03</pdfrwt>
<pdfrwt beam="2">  1       -2 0.14385682E-01 0.17633467E+03</pdfrwt>
<totfact> 0.24742031E+03</totfact>
</mgrwt>
</event>
<event>
12    1  0.4404304E-002  0.1896027E+03  0.7546771E-02  0.1158820E+00
          1   -1    0    0  502    0  0.00000000000E+00  0.00000000000E+00  0.30753036148E+03  0.30753036148E+03  0.00000000000E+00 0. -1.
         -1   -1    0    0    0  501 -0.00000000000E+00 -0.00000000000E+00 -0.17390988957E+03  0.17390988957E+03  0.00000000000E+00 0.  1.
          6    2    1    2  502    0  0.73887351593E+02 -0.41616334707E+02  0.20363474919E+03  0.27562021658E+03  0.16525172518E+03 0.  0.
         24    2    3    3    0    0 -0.63825951598E+01  0.65570675427E+01  0.49684238669E+02  0.95379292473E+02  0.80900885068E+02 0.  0.
         -6    2    1    2    0  501 -0.73887351593E+02  0.41616334707E+02 -0.70014277267E+02  0.20582003447E+03  0.17397881344E+03 0.  0.
        -24    2    5    5    0    0 -0.24377299181E+02 -0.44146992320E+02 -0.37250112620E+02  0.10140655814E+03  0.79702631689E+02 0.  0.
          5    1    3    3  502    0  0.80269946753E+02 -0.48173402249E+02  0.15395051052E+03  0.18024092411E+03  0.47000000000E+01 0. -1.
        -11    1    4    4    0    0  0.16622499977E+01  0.35234094831E+02 -0.24273676513E+01  0.35356705550E+02  0.00000000000E+00 0.  1.
         12    1    4    4    0    0 -0.80448451575E+01 -0.28677027288E+02  0.52111606321E+02  0.60022586924E+02  0.00000000000E+00 0. -1.
         -5    1    5    5    0  501 -0.49510052412E+02  0.85763327027E+02 -0.32764164647E+02  0.10441347632E+03  0.47000000000E+01 0.  1.
         13    1    6    6    0    0 -0.39609687153E+02 -0.38410294794E+02 -0.54595167328E+02  0.77620296045E+02  0.00000000000E+00 0. -1.
        -14    1    6    6    0    0  0.15232387972E+02 -0.57366975260E+01  0.17345054708E+02  0.23786262099E+02  0.00000000000E+00 0.  1.
<mgrwt>
<rscale>  2 0.18960268E+03</rscale>
<asrwt>0</asrwt>
<pdfrwt beam="1">  1        1 0.47312363E-01 0.18960268E+03</pdfrwt>
<pdfrwt beam="2">  1       -1 0.26755368E-01 0.18960268E+03</pdfrwt>
<totfact> 0.10515779E+03</totfact>
</mgrwt>
</event>
<event>
12    1  0.4404304E-002  0.1748308E+03  0.7546771E-02  0.1172902E+00
         -2   -1    0    0    0  501 -0.00000000000E+00  0.00000000000E+00  0.20340444295E+02  0.20340444295E+02  0.00000000000E+00 0. -1.
          2   -1    0    0  502    0  0.00000000000E+00 -0.00000000000E+00 -0.16124796788E+04  0.16124796788E+04  0.00000000000E+00 0.  1.
          6    2    1    2  502    0 -0.10362084962E+01  0.15539393211E+01 -0.57352672859E+03  0.59891693216E+03  0.17252563510E+03 0.  0.
         24    2    3    3    0    0  0.27073732150E+01 -0.56123234851E+02 -0.22666375346E+03  0.24723997196E+03  0.81203443524E+02 0.  0.
         -6    2    1    2    0  501  0.10362084962E+01 -0.15539393211E+01 -0.10186125059E+04  0.10339031909E+04  0.17714650027E+03 0.  0.
        -24    2    5    5    0    0 -0.26384852824E+02  0.63233480498E+02 -0.64109398963E+03  0.64985678162E+03  0.81349244362E+02 0.  0.
          5    1    3    3  502    0 -0.37435817112E+01  0.57677174172E+02 -0.34686297512E+03  0.35167696020E+03  0.47000000000E+01 0. -1.
        -13    1    4    4    0    0 -0.12183514434E+01 -0.75291062026E+01 -0.17865406698E+03  0.17881679863E+03  0.00000000000E+00 0.  1.
         14    1    4    4    0    0  0.39257246585E+01 -0.48594128648E+02 -0.48009686477E+02  0.68423173332E+02  0.00000000000E+00 0. -1.
         -5    1    5    5    0  501  0.27421061320E+02 -0.64787419819E+02 -0.37751851627E+03  0.38404640930E+03  0.47000000000E+01 0.  1.
         11    1    6    6    0    0 -0.51872552579E+02  0.43779622333E+02 -0.31730073248E+03  0.32447984818E+03  0.00000000000E+00 0. -1.
        -12    1    6    6    0    0  0.25487699755E+02  0.19453858165E+02 -0.32379325715E+03  0.32537693344E+03  0.00000000000E+00 0.  1.
<mgrwt>
<rscale>  2 0.17483078E+03</rscale>
<asrwt>0</asrwt>
<pdfrwt beam="2">  1        2 0.24807390E+00 0.17483078E+03</pdfrwt>
<pdfrwt beam="1">  1       -2 0.31292978E-02 0.17483078E+03</pdfrwt>
<totfact> 0.46954900E+03</totfact>
</mgrwt>
</event>
<event>
12    1  0.4404304E-002  0.1828767E+03  0.7546771E-02  0.1165048E+00
          2   -1    0    0  502    0  0.00000000000E+00  0.00000000000E+00  0.47269454765E+02  0.47269454765E+02  0.00000000000E+00 0.  1.
         -2   -1    0    0    0  501 -0.00000000000E+00 -0.00000000000E+00 -0.86862522785E+03  0.86862522785E+03  0.00000000000E+00 0. -1.
          6    2    1    2  502    0 -0.26206183423E+02 -0.53719486621E+02 -0.60842040882E+03  0.63539230115E+03  0.17313415378E+03 0.  0.
         24    2    3    3    0    0 -0.68596658548E+02 -0.60216473563E+02 -0.29544019887E+03  0.31945264704E+03  0.80209459178E+02 0.  0.
         -6    2    1    2    0  501  0.26206183423E+02  0.53719486621E+02 -0.21293536427E+03  0.28050238146E+03  0.17253280661E+03 0.  0.
        -24    2    5    5    0    0  0.71231071144E+02  0.74912911978E+02 -0.15756201383E+03  0.20590546644E+03  0.82978690210E+02 0.  0.
          5    1    3    3  502    0  0.42390475125E+02  0.64969869424E+01 -0.31298020995E+03  0.31593965411E+03  0.47000000000E+01 0. -1.
        -11    1    4    4    0    0 -0.62339198308E+02 -0.40240956872E+02 -0.28773318686E+03  0.29714625536E+03  0.00000000000E+00 0.  1.
         12    1    4    4    0    0 -0.62574602400E+01 -0.19975516692E+02 -0.77070120144E+01  0.22306391684E+02  0.00000000000E+00 0. -1.
         -5    1    5    5    0  501 -0.45024887721E+02 -0.21193425357E+02 -0.55373350440E+02  0.74596915027E+02  0.47000000000E+01 0.  1.
         13    1    6    6    0    0 -0.76215133101E+00  0.21071770364E+01 -0.73210289233E+02  0.73244573310E+02  0.00000000000E+00 0. -1.
        -14    1    6    6    0    0  0.71993222475E+02  0.72805734942E+02 -0.84351724597E+02  0.13266089313E+03  0.00000000000E+00 0.  1.
<mgrwt>
<rscale>  2 0.18287670E+03</rscale>
<asrwt>0</asrwt>
<pdfrwt beam="1">  1        2 0.72722240E-02 0.18287670E+03</pdfrwt>
<pdfrwt beam="2">  1       -2 0.13363465E+00 0.18287670E+03</pdfrwt>
<totfact> 0.40628284E+02</totfact>
</mgrwt>
</event>
<event>
12    1  0.4404304E-002  0.2563157E+03  0.7546771E-02  0.1109377E+00
          2   -1    0    0  502    0  0.00000000000E+00  0.00000000000E+00  0.34525420105E+03  0.34525420105E+03  0.00000000000E+00 0.  1.
         -2   -1    0    0    0  501 -0.00000000000E+00 -0.00000000000E+00 -0.22742532142E+03  0.22742532142E+03  0.00000000000E+00 0. -1.
          6    2    1    2  502    0  0.65031318051E+02 -0.17565752600E+03  0.17462294576E+03  0.31014368081E+03  0.17496082646E+03 0.  0.
         24    2    3    3    0    0 -0.30380938188E+02 -0.57689496556E+02  0.62478080412E+02  0.12141499875E+03  0.81160408886E+02 0.  0.
         -6    2    1    2    0  501 -0.65031318051E+02  0.17565752600E+03 -0.56794066134E+02  0.26253584166E+03  0.17497103600E+03 0.  0.
        -24    2    5    5    0    0 -0.10349739364E+03  0.11800561070E+03 -0.73953596211E+02  0.19098221295E+03  0.79799978840E+02 0.  0.
          5    1    3    3  502    0  0.95412256239E+02 -0.11796802944E+03  0.11214486534E+03  0.18872868207E+03  0.47000000000E+01 0. -1.
        -13    1    4    4    0    0  0.66653520698E+01 -0.60847429516E+02  0.57354301013E+02  0.83882968722E+02  0.00000000000E+00 0.  1.
         14    1    4    4    0    0 -0.37046290257E+02  0.31579329598E+01  0.51237793990E+01  0.37532030024E+02  0.00000000000E+00 0. -1.
         -5    1    5    5    0  501  0.38466075590E+02  0.57651915304E+02  0.17159530077E+02  0.71553628713E+02  0.47000000000E+01 0.  1.
         13    1    6    6    0    0 -0.38831092483E+02  0.68168031123E+02 -0.76119226997E+02  0.10931089117E+03  0.00000000000E+00 0. -1.
        -14    1    6    6    0    0 -0.64666301159E+02  0.49837579573E+02  0.21656307864E+01  0.81671321772E+02  0.00000000000E+00 0.  1.
<mgrwt>
<rscale>  2 0.25631566E+03</rscale>
<asrwt>0</asrwt>
<pdfrwt beam="1">  1        2 0.53116031E-01 0.25631566E+03</pdfrwt>
<pdfrwt beam="2">  1       -2 0.34988511E-01 0.25631566E+03</pdfrwt>
<totfact> 0.72299952E+02</totfact>
</mgrwt>
</event>
<event>
12    1  0.4404304E-002  0.2430394E+03  0.7546771E-02  0.1117785E+00
          2   -1    0    0  502    0  0.00000000000E+00  0.00000000000E+00  0.54027684736E+03  0.54027684736E+03  0.00000000000E+00 0.  1.
         -2   -1    0    0    0  501 -0.00000000000E+00 -0.00000000000E+00 -0.11669374057E+03  0.11669374057E+03  0.00000000000E+00 0. -1.
          6    2    1    2  502    0  0.57405463616E+02 -0.16075809594E+03  0.29410068959E+03  0.38136373968E+03  0.17263989590E+03 0.  0.
         24    2    3    3    0    0  0.35143028829E+02 -0.44144882151E+02  0.22165355740E+03  0.24220579130E+03  0.79684018079E+02 0.  0.
         -6    2    1    2    0  501 -0.57405463616E+02  0.16075809594E+03  0.12948241720E+03  0.27560684825E+03  0.17336344993E+03 0.  0.
        -24    2    5    5    0    0  0.85697080317E+01  0.25118212837E+02  0.14624527788E+02  0.85961584866E+02  0.80443475483E+02 0.  0.
          5    1    3    3  502    0  0.22262434787E+02 -0.11661321379E+03  0.72447132197E+02  0.13915794838E+03  0.47000000000E+01 0. -1.
        -11    1    4    4    0    0  0.42259999555E+02 -0.41854455661E+02  0.76700904993E+02  0.97060454604E+02  0.00000000000E+00 0.  1.
         12    1    4    4    0    0 -0.71169707264E+01 -0.22904264899E+01  0.14495265240E+03  0.14514533670E+03  0.00000000000E+00 0. -1.
         -5    1    5    5    0  501 -0.65975171648E+02  0.13563988310E+03  0.11485788941E+03  0.18964526338E+03  0.47000000000E+01 0.  1.
         13    1    6    6    0    0 -0.20383105396E+02  0.35064202054E+02  0.31180048701E+02  0.51158231872E+02  0.00000000000E+00 0. -1.
        -14    1    6    6    0    0  0.28952813428E+02 -0.99459892170E+01 -0.16555520913E+02  0.34803352994E+02  0.00000000000E+00 0.  1.
<mgrwt>
<rscale>  2 0.24303936E+03</rscale>
<asrwt>0</asrwt>
<pdfrwt beam="1">  1        2 0.83119514E-01 0.24303936E+03</pdfrwt>
<pdfrwt beam="2">  1       -2 0.17952883E-01 0.24303936E+03</pdfrwt>
<totfact> 0.14395397E+03</totfact>
</mgrwt>
</event>
<event>
12    1  0.4404304E-002  0.1993732E+03  0.7546771E-02  0.1150269E+00
         -2   -1    0    0    0  501 -0.00000000000E+00  0.00000000000E+00  0.17091292706E+02  0.17091292706E+02  0.00000000000E+00 0. -1.
          2   -1    0    0  502    0  0.00000000000E+00 -0.00000000000E+00 -0.28367166080E+04  0.28367166080E+04  0.00000000000E+00 0.  1.
          6    2    1    2  502    0 -0.99112532123E+02 -0.18015175820E+02 -0.79629060413E+03  0.82053803615E+03  0.17045850509E+03 0.  0.
         24    2    3    3    0    0 -0.32753178837E+02 -0.55552758860E+02 -0.26109452496E+03  0.27991842212E+03  0.77621468290E+02 0.  0.
         -6    2    1    2    0  501  0.99112532123E+02  0.18015175820E+02 -0.20233347112E+04  0.20332698646E+04  0.17365237728E+03 0.  0.
        -24    2    5    5    0    0  0.77451477398E+02 -0.49907296233E+02 -0.15162556580E+04  0.15211820599E+04  0.80462223663E+02 0.  0.
          5    1    3    3  502    0 -0.66359353285E+02  0.37537583040E+02 -0.53519607917E+03  0.54061961402E+03  0.47000000000E+01 0. -1.
        -13    1    4    4    0    0 -0.27201854804E+02 -0.59736669920E+01 -0.19567410622E+03  0.19764610153E+03  0.00000000000E+00 0.  1.
         14    1    4    4    0    0 -0.55513240335E+01 -0.49579091867E+02 -0.65420418736E+02  0.82272320598E+02  0.00000000000E+00 0. -1.
         -5    1    5    5    0  501  0.21661054725E+02  0.67922472052E+02 -0.50707905317E+03  0.51208780465E+03  0.47000000000E+01 0.  1.
         11    1    6    6    0    0 -0.81195092144E+01  0.85361961348E+01 -0.38770246044E+03  0.38788141345E+03  0.00000000000E+00 0. -1.
        -12    1    6    6    0    0  0.85570986613E+02 -0.58443492367E+02 -0.11285531976E+04  0.11333006465E+04  0.00000000000E+00 0.  1.
<mgrwt>
<rscale>  2 0.19937319E+03</rscale>
<asrwt>0</asrwt>
<pdfrwt beam="2">  1        2 0.43641791E+00 0.19937319E+03</pdfrwt>
<pdfrwt beam="1">  1       -2 0.26294298E-02 0.19937319E+03</pdfrwt>
<totfact> 0.13538968E+03</totfact>
</mgrwt>
</event>
<event>
12    1  0.4404304E-002  0.2902180E+03  0.7546771E-02  0.1090235E+00
         -2   -1    0    0    0  501 -0.00000000000E+00  0.00000000000E+00  0.20193933846E+03  0.20193933846E+03  0.00000000000E+00 0.  1.
          2   -1    0    0  502    0  0.00000000000E+00 -0.00000000000E+00 -0.46218296841E+03  0.46218296841E+03  0.00000000000E+00 0. -1.
          6    2    1    2  502    0  0.22802375620E+03 -0.47984494715E+02 -0.26699233711E+02  0.29217552319E+03  0.17423071528E+03 0.  0.
         24    2    3    3    0    0  0.14298540952E+03 -0.51433368276E+02  0.50574421167E+02  0.17712456547E+03  0.75664528733E+02 0.  0.
         -6    2    1    2    0  501 -0.22802375620E+03  0.47984494715E+02 -0.23354439624E+03  0.37194678367E+03  0.17176751656E+03 0.  0.
        -24    2    5    5    0    0 -0.24021284943E+03  0.25447659634E+02 -0.23416200677E+03  0.34589003077E+03  0.80363372000E+02 0.  0.
          5    1    3    3  502    0  0.85038346683E+02  0.34488735617E+01 -0.77273654878E+02  0.11505095773E+03  0.47000000000E+01 0. -1.
        -13    1    4    4    0    0  0.55915638588E+02 -0.38938236995E+02  0.57129838029E+02  0.88918858136E+02  0.00000000000E+00 0.  1.
         14    1    4    4    0    0  0.87069770932E+02 -0.12495131282E+02 -0.65554168627E+01  0.88205707333E+02  0.00000000000E+00 0. -1.
         -5    1    5    5    0  501  0.12189093227E+02  0.22536835080E+02  0.61761053185E+00  0.26056752904E+02  0.47000000000E+01 0.  1.
         13    1    6    6    0    0 -0.13914818282E+03  0.30822755763E+02 -0.85991687123E+02  0.16645368518E+03  0.00000000000E+00 0. -1.
        -14    1    6    6    0    0 -0.10106466661E+03 -0.53750961285E+01 -0.14817031965E+03  0.17943634560E+03  0.00000000000E+00 0.  1.
<mgrwt>
<rscale>  2 0.29021798E+03</rscale>
<asrwt>0</asrwt>
<pdfrwt beam="2">  1        2 0.71105071E-01 0.29021798E+03</pdfrwt>
<pdfrwt beam="1">  1       -2 0.31067591E-01 0.29021798E+03</pdfrwt>
<totfact> 0.65461817E+02</totfact>
</mgrwt>
</event>
<event>
12    1  0.4404304E-002  0.1845147E+03  0.7546771E-02  0.1163504E+00
          1   -1    0    0  502    0  0.00000000000E+00  0.00000000000E+00  0.14074625859E+03  0.14074625859E+03  0.00000000000E+00 0.  1.
         -1   -1    0    0    0  501 -0.00000000000E+00 -0.00000000000E+00 -0.24281961132E+03  0.24281961132E+03  0.00000000000E+00 0. -1.
          6    2    1    2  502    0 -0.14961353582E+02 -0.61959464568E+02 -0.62830725926E+02  0.19476031718E+03  0.17297706113E+03 0.  0.
         24    2    3    3    0    0 -0.41477312288E+02 -0.99750110341E+02 -0.58578431126E+02  0.14816202338E+03  0.82765334714E+02 0.  0.
         -6    2    1    2    0  501  0.14961353582E+02  0.61959464568E+02 -0.39242626805E+02  0.18880555273E+03  0.17333417330E+03 0.  0.
        -24    2    5    5    0    0 -0.50716781181E+02  0.39987437046E+01 -0.17791788033E+02  0.98498902741E+02  0.82445765659E+02 0.  0.
          5    1    3    3  502    0  0.26515958706E+02  0.37790645772E+02 -0.42522947996E+01  0.46598293800E+02  0.47000000000E+01 0. -1.
        -13    1    4    4    0    0 -0.22680293432E+02  0.42247235832E+01 -0.31575730782E+02  0.39105891806E+02  0.00000000000E+00 0.  1.
         14    1    4    4    0    0 -0.18797018856E+02 -0.10397483392E+03 -0.27002700345E+02  0.10905613157E+03  0.00000000000E+00 0. -1.
         -5    1    5    5    0  501  0.65678134763E+02  0.57960720864E+02 -0.21450838772E+02  0.90306649993E+02  0.47000000000E+01 0.  1.
         11    1    6    6    0    0 -0.39000924785E+02 -0.31562382687E+02 -0.30788642843E+02  0.58865921067E+02  0.00000000000E+00 0. -1.
        -12    1    6    6    0    0 -0.11715856396E+02  0.35561126392E+02  0.12996854810E+02  0.39632981673E+02  0.00000000000E+00 0.  1.
<mgrwt>
<rscale>  2 0.18451466E+03</rscale>
<asrwt>0</asrwt>
<pdfrwt beam="1">  1        1 0.21653271E-01 0.18451466E+03</pdfrwt>
<pdfrwt beam="2">  1       -1 0.37356863E-01 0.18451466E+03</pdfrwt>
<totfact> 0.15880355E+03</totfact>
</mgrwt>
</event>
<event>
12    1  0.4404304E-002  0.1974589E+03  0.7546771E-02  0.1151901E+00
         -2   -1    0    0    0  501 -0.00000000000E+00  0.00000000000E+00  0.15198736802E+02  0.15198736802E+02  0.00000000000E+00 0. -1.
          2   -1    0    0  502    0  0.00000000000E+00 -0.00000000000E+00 -0.28390455338E+04  0.28390455338E+04  0.00000000000E+00 0.  1.
          6    2    1    2  502    0  0.56795139477E+02  0.71960852766E+02 -0.96102114029E+03  0.98085321484E+03  0.17351468177E+03 0.  0.
         24    2    3    3    0    0  0.38180520740E+02 -0.20324214977E+02 -0.30935888755E+03  0.32240897316E+03  0.79836074499E+02 0.  0.
         -6    2    1    2    0  501 -0.56795139477E+02 -0.71960852766E+02 -0.18628256567E+04  0.18733910557E+04  0.17626845520E+03 0.  0.
        -24    2    5    5    0    0 -0.23690503986E+02 -0.17313804759E+02 -0.38868703650E+03  0.39786098885E+03  0.79716662582E+02 0.  0.
          5    1    3    3  502    0  0.18614618737E+02  0.92285067743E+02 -0.65166225274E+03  0.65844424168E+03  0.47000000000E+01 0. -1.
        -11    1    4    4    0    0 -0.18059322317E+01 -0.43177647036E+02 -0.17935681858E+03  0.18448967170E+03  0.00000000000E+00 0.  1.
         12    1    4    4    0    0  0.39986452972E+02  0.22853432058E+02 -0.13000206897E+03  0.13791930146E+03  0.00000000000E+00 0. -1.
         -5    1    5    5    0  501 -0.33104635491E+02 -0.54647048007E+02 -0.14741386202E+04  0.14755300669E+04  0.47000000000E+01 0.  1.
         11    1    6    6    0    0  0.26315715327E+02  0.76757136085E+01 -0.93867939161E+02  0.97788667313E+02  0.00000000000E+00 0. -1.
        -12    1    6    6    0    0 -0.50006219313E+02 -0.24989518368E+02 -0.29481909734E+03  0.30007232154E+03  0.00000000000E+00 0.  1.
<mgrwt>
<rscale>  2 0.19745894E+03</rscale>
<asrwt>0</asrwt>
<pdfrwt beam="2">  1        2 0.43677615E+00 0.19745894E+03</pdfrwt>
<pdfrwt beam="1">  1       -2 0.23382676E-02 0.19745894E+03</pdfrwt>
<totfact> 0.16052738E+03</totfact>
</mgrwt>
</event>
<event>
12    1  0.4404304E-002  0.1973518E+03  0.7546771E-02  0.1151993E+00
          2   -1    0    0  502    0  0.00000000000E+00  0.00000000000E+00  0.17284114374E+04  0.17284114374E+04  0.00000000000E+00 0.  1.
         -2   -1    0    0    0  501 -0.00000000000E+00 -0.00000000000E+00 -0.28466105483E+02  0.28466105483E+02  0.00000000000E+00 0. -1.
          6    2    1    2  502    0 -0.18831183821E+02 -0.92803334498E+02  0.12455202582E+04  0.12608123187E+04  0.17134735798E+03 0.  0.
         24    2    3    3    0    0  0.34795076585E+02  0.19237855091E+01  0.54810133224E+03  0.55493396422E+03  0.79512489197E+02 0.  0.
         -6    2    1    2    0  501  0.18831183821E+02  0.92803334498E+02  0.45442507376E+03  0.49606522420E+03  0.17496138609E+03 0.  0.
        -24    2    5    5    0    0  0.16153878154E+02  0.13027453849E+03  0.41009172224E+03  0.43776603766E+03  0.78939723355E+02 0.  0.
          5    1    3    3  502    0 -0.53626260406E+02 -0.94727120007E+02  0.69741892592E+03  0.70587835446E+03  0.47000000000E+01 0. -1.
        -11    1    4    4    0    0  0.12753168751E+02  0.11909063861E+02  0.50654694889E+03  0.50684739374E+03  0.00000000000E+00 0.  1.
         12    1    4    4    0    0  0.22041907833E+02 -0.99852783515E+01  0.41554383349E+02  0.48086570476E+02  0.00000000000E+00 0. -1.
         -5    1    5    5    0  501  0.26773056674E+01 -0.37471203988E+02  0.44333351515E+02  0.58299186533E+02  0.47000000000E+01 0.  1.
         13    1    6    6    0    0  0.11934741224E+02 -0.82391876766E+01  0.34456202340E+02  0.37383848670E+02  0.00000000000E+00 0. -1.
        -14    1    6    6    0    0  0.42191369299E+01  0.13851372616E+03  0.37563551990E+03  0.40038218899E+03  0.00000000000E+00 0.  1.
<mgrwt>
<rscale>  2 0.19735184E+03</rscale>
<asrwt>0</asrwt>
<pdfrwt beam="1">  1        2 0.26590937E+00 0.19735184E+03</pdfrwt>
<pdfrwt beam="2">  1       -2 0.43794022E-02 0.19735184E+03</pdfrwt>
<totfact> 0.24761730E+03</totfact>
</mgrwt>
</event>
<event>
12    1  0.4404304E-002  0.2922318E+03  0.7546771E-02  0.1089190E+00
          2   -1    0    0  502    0  0.00000000000E+00  0.00000000000E+00  0.52066152177E+03  0.52066152177E+03  0.00000000000E+00 0.  1.
         -2   -1    0    0    0  501 -0.00000000000E+00 -0.00000000000E+00 -0.23059074789E+03  0.23059074789E+03  0.00000000000E+00 0. -1.
          6    2    1    2  502    0 -0.48352299916E+02 -0.23058920991E+03 -0.56819327469E+02  0.29761950189E+03  0.17274143480E+03 0.  0.
         24    2    3    3    0    0 -0.77263730843E+02 -0.16788051578E+03  0.10176204554E+02  0.20129327250E+03  0.79132008262E+02 0.  0.
         -6    2    1    2    0  501  0.48352299916E+02  0.23058920991E+03  0.34689010134E+03  0.45363276776E+03  0.17303357172E+03 0.  0.
        -24    2    5    5    0    0  0.51869136562E+02  0.23869512523E+03  0.24769404695E+03  0.35393311275E+03  0.65196144586E+02 0.  0.
          5    1    3    3  502    0  0.28911430928E+02 -0.62708694135E+02 -0.66995532023E+02  0.96326229395E+02  0.47000000000E+01 0. -1.
        -11    1    4    4    0    0 -0.73384216221E+02 -0.74922331389E+02  0.23022520698E+02  0.10737148313E+03  0.00000000000E+00 0.  1.
         12    1    4    4    0    0 -0.38795146226E+01 -0.92958184390E+02 -0.12846316143E+02  0.93921789364E+02  0.00000000000E+00 0. -1.
         -5    1    5    5    0  501 -0.35168366463E+01 -0.81059153138E+01  0.99196054393E+02  0.99699655016E+02  0.47000000000E+01 0.  1.
         13    1    6    6    0    0 -0.59227260289E+01  0.35086875859E+02  0.12961325004E+02  0.37870351028E+02  0.00000000000E+00 0. -1.
        -14    1    6    6    0    0  0.57791862591E+02  0.20360824937E+03  0.23473272195E+03  0.31606276172E+03  0.00000000000E+00 0.  1.
<mgrwt>
<rscale>  2 0.29223180E+03</rscale>
<asrwt>0</asrwt>
<pdfrwt beam="1">  1        2 0.80101772E-01 0.29223180E+03</pdfrwt>
<pdfrwt beam="2">  1       -2 0.35475500E-01 0.29223180E+03</pdfrwt>
<totfact> 0.44745555E+02</totfact>
</mgrwt>
</event>
<event>
12    1  0.4404304E-002  0.1764840E+03  0.7546771E-02  0.1171250E+00
         -2   -1    0    0    0  501 -0.00000000000E+00  0.00000000000E+00  0.28523148942E+02  0.28523148942E+02  0.00000000000E+00 0.  1.
          2   -1    0    0  502    0  0.00000000000E+00 -0.00000000000E+00 -0.12953148816E+04  0.12953148816E+04  0.00000000000E+00 0. -1.
          6    2    1    2  502    0  0.25628642084E+02  0.49233761824E+01 -0.89909632150E+03  0.91647654062E+03  0.17570995204E+03 0.  0.
         24    2    3    3    0    0  0.24369136455E+02  0.44221036691E+02 -0.27204087469E+03  0.28817206360E+03  0.80545303012E+02 0.  0.
         -6    2    1    2    0  501 -0.25628642084E+02 -0.49233761824E+01 -0.36769541117E+03  0.40736148993E+03  0.17338512381E+03 0.  0.
        -24    2    5    5    0    0 -0.32306517821E+02 -0.44045899336E+02 -0.35090746510E+03  0.36401300696E+03  0.79910373767E+02 0.  0.
          5    1    3    3  502    0  0.12595056287E+01 -0.39297660509E+02 -0.62705544680E+03  0.62830447702E+03  0.47000000000E+01 0. -1.
        -11    1    4    4    0    0  0.45890240526E+02  0.31036010591E+02 -0.10026789893E+03  0.11455478901E+03  0.00000000000E+00 0.  1.
         12    1    4    4    0    0 -0.21521104070E+02  0.13185026100E+02 -0.17177297576E+03  0.17361727459E+03  0.00000000000E+00 0. -1.
         -5    1    5    5    0  501  0.66778757369E+01  0.39122523154E+02 -0.16787946070E+02  0.43348482967E+02  0.47000000000E+01 0.  1.
         13    1    6    6    0    0 -0.44538783405E+02 -0.15592145077E+02 -0.30503715523E+03  0.30866565129E+03  0.00000000000E+00 0. -1.
        -14    1    6    6    0    0  0.12232265584E+02 -0.28453754260E+02 -0.45870309867E+02  0.55347355674E+02  0.00000000000E+00 0.  1.
<mgrwt>
<rscale>  2 0.17648404E+03</rscale>
<asrwt>0</asrwt>
<pdfrwt beam="2">  1        2 0.19927916E+00 0.17648404E+03</pdfrwt>
<pdfrwt beam="1">  1       -2 0.43881780E-02 0.17648404E+03</pdfrwt>
<totfact> 0.41809957E+03</totfact>
</mgrwt>
</event>
<event>
12    1  0.4404304E-002  0.2038621E+03  0.7546771E-02  0.1146521E+00
          1   -1    0    0  502    0  0.00000000000E+00  0.00000000000E+00  0.18841375703E+03  0.18841375703E+03  0.00000000000E+00 0. -1.
         -1   -1    0    0    0  501 -0.00000000000E+00 -0.00000000000E+00 -0.23279164452E+03  0.23279164452E+03  0.00000000000E+00 0.  1.
          6    2    1    2  502    0  0.63270340885E+02 -0.87305228667E+02 -0.70288517052E+02  0.21449451088E+03  0.17158694759E+03 0.  0.
         24    2    3    3    0    0 -0.16444041933E+01 -0.10675428503E+03 -0.56892949872E+02  0.14525780716E+03  0.80398018388E+02 0.  0.
         -6    2    1    2    0  501 -0.63270340885E+02  0.87305228667E+02  0.25910629561E+02  0.20671089067E+03  0.17444968504E+03 0.  0.
        -24    2    5    5    0    0  0.33954938064E+02  0.48034074006E+02  0.15911497996E+02  0.10127346332E+03  0.80888370730E+02 0.  0.
          5    1    3    3  502    0  0.64914745079E+02  0.19449056359E+02 -0.13395567180E+02  0.69236703719E+02  0.47000000000E+01 0. -1.
        -11    1    4    4    0    0 -0.21644719470E+02  0.30671806257E+01 -0.12027687248E+02  0.24951287311E+02  0.00000000000E+00 0.  1.
         12    1    4    4    0    0  0.20000315277E+02 -0.10982146565E+03 -0.44865262624E+02  0.12030651985E+03  0.00000000000E+00 0. -1.
         -5    1    5    5    0  501 -0.97225278949E+02  0.39271154661E+02  0.99991315648E+01  0.10543742735E+03  0.47000000000E+01 0.  1.
         11    1    6    6    0    0  0.15098760551E+02  0.20109916509E+02 -0.33240601560E+02  0.41681157664E+02  0.00000000000E+00 0. -1.
        -12    1    6    6    0    0  0.18856177513E+02  0.27924157497E+02  0.49152099556E+02  0.59592305654E+02  0.00000000000E+00 0.  1.
<mgrwt>
<rscale>  2 0.20386215E+03</rscale>
<asrwt>0</asrwt>
<pdfrwt beam="1">  1        1 0.28986732E-01 0.20386215E+03</pdfrwt>
<pdfrwt beam="2">  1       -1 0.35814099E-01 0.20386215E+03</pdfrwt>
<totfact> 0.11834025E+03</totfact>
</mgrwt>
</event>
<event>
12    1  0.4404304E-002  0.1894626E+03  0.7546771E-02  0.1158947E+00
          2   -1    0    0  502    0  0.00000000000E+00  0.00000000000E+00  0.33253054664E+03  0.33253054664E+03  0.00000000000E+00 0.  1.
         -2   -1    0    0    0  501 -0.00000000000E+00 -0.00000000000E+00 -0.11017901926E+03  0.11017901926E+03  0.00000000000E+00 0. -1.
          6    2    1    2  502    0 -0.67216867752E+02  0.34857802196E+02  0.79963316739E+02  0.20609426331E+03  0.17420545244E+03 0.  0.
         24    2    3    3    0    0 -0.10254246929E+03  0.38322494711E+02  0.17339427894E+02  0.13395728477E+03  0.75235143218E+02 0.  0.
         -6    2    1    2    0  501  0.67216867752E+02 -0.34857802196E+02  0.14238821064E+03  0.23661530258E+03  0.17314509869E+03 0.  0.
        -24    2    5    5    0    0 -0.23790054279E+02  0.10338940663E+02  0.54415507857E+02  0.10213001767E+03  0.82441692347E+02 0.  0.
          5    1    3    3  502    0  0.35325601538E+02 -0.34646925144E+01  0.62623888845E+02  0.72136978536E+02  0.47000000000E+01 0. -1.
        -11    1    4    4    0    0 -0.97229006778E+02  0.56776354937E+02  0.20650265772E+02  0.11447037921E+03  0.00000000000E+00 0.  1.
         12    1    4    4    0    0 -0.53134625124E+01 -0.18453860227E+02 -0.33108378779E+01  0.19486905567E+02  0.00000000000E+00 0. -1.
         -5    1    5    5    0  501  0.91006922031E+02 -0.45196742859E+02  0.87972702784E+02  0.13448528491E+03  0.47000000000E+01 0.  1.
         11    1    6    6    0    0  0.54961568511E+01  0.37099752996E+02  0.36207584408E+01  0.37679030032E+02  0.00000000000E+00 0. -1.
        -12    1    6    6    0    0 -0.29286211130E+02 -0.26760812333E+02  0.50794749416E+02  0.64450987637E+02  0.00000000000E+00 0.  1.
<mgrwt>
<rscale>  2 0.18946262E+03</rscale>
<asrwt>0</asrwt>
<pdfrwt beam="1">  1        2 0.51158545E-01 0.18946262E+03</pdfrwt>
<pdfrwt beam="2">  1       -2 0.16950618E-01 0.18946262E+03</pdfrwt>
<totfact> 0.26830027E+03</totfact>
</mgrwt>
</event>
<event>
12    1  0.4404304E-002  0.2147369E+03  0.7546771E-02  0.1137869E+00
          1   -1    0    0  502    0  0.00000000000E+00  0.00000000000E+00  0.24571066829E+03  0.24571066829E+03  0.00000000000E+00 0.  1.
         -1   -1    0    0    0  501 -0.00000000000E+00 -0.00000000000E+00 -0.20561510300E+03  0.20561510300E+03  0.00000000000E+00 0. -1.
          6    2    1    2  502    0  0.59641909845E+01  0.12292991934E+03  0.86707252652E+02  0.23146330877E+03  0.17581177151E+03 0.  0.
         24    2    3    3    0    0  0.81012302392E+01  0.95858617947E+02  0.12960368710E+03  0.18047687543E+03  0.80748264931E+02 0.  0.
         -6    2    1    2    0  501 -0.59641909845E+01 -0.12292991934E+03 -0.46611687371E+02  0.21986246252E+03  0.17612358269E+03 0.  0.
        -24    2    5    5    0    0  0.38302637896E+02 -0.98759486134E+00 -0.20214700388E+02  0.87392188262E+02  0.75899229535E+02 0.  0.
          5    1    3    3  502    0 -0.21370392548E+01  0.27071301398E+02 -0.42896434450E+02  0.50986433340E+02  0.47000000000E+01 0. -1.
        -13    1    4    4    0    0  0.40210192784E+02  0.70910283980E+02  0.65536022733E+02  0.10459492461E+03  0.00000000000E+00 0.  1.
         14    1    4    4    0    0 -0.32108962544E+02  0.24948333967E+02  0.64067664370E+02  0.75881950826E+02  0.00000000000E+00 0. -1.
         -5    1    5    5    0  501 -0.44266828880E+02 -0.12194232448E+03 -0.26396986983E+02  0.13247027426E+03  0.47000000000E+01 0.  1.
         13    1    6    6    0    0  0.49124584181E+02 -0.24342507737E+02 -0.26502886585E+02  0.60894872125E+02  0.00000000000E+00 0. -1.
        -14    1    6    6    0    0 -0.10821946285E+02  0.23354912875E+02  0.62881861969E+01  0.26497316137E+02  0.00000000000E+00 0.  1.
<mgrwt>
<rscale>  2 0.21473694E+03</rscale>
<asrwt>0</asrwt>
<pdfrwt beam="1">  1        1 0.37801641E-01 0.21473694E+03</pdfrwt>
<pdfrwt beam="2">  1       -1 0.31633093E-01 0.21473694E+03</pdfrwt>
<totfact> 0.10509664E+03</totfact>
</mgrwt>
</event>
<event>
12    1  0.4404304E-002  0.1790657E+03  0.7546771E-02  0.1168710E+00
          3   -1    0    0  502    0  0.00000000000E+00  0.00000000000E+00  0.15354990924E+03  0.15354990924E+03  0.00000000000E+00 0.  1.
         -3   -1    0    0    0  501 -0.00000000000E+00 -0.00000000000E+00 -0.21114068893E+03  0.21114068893E+03  0.00000000000E+00 0. -1.
          6    2    1    2  502    0 -0.16158998352E+02 -0.41293748511E+02 -0.97312798639E+01  0.17960826477E+03  0.17377613205E+03 0.  0.
         24    2    3    3    0    0  0.39038407990E+02  0.94939575397E+01  0.30936640775E+02  0.94155853906E+02  0.79335468450E+02 0.  0.
         -6    2    1    2    0  501  0.16158998352E+02  0.41293748511E+02 -0.47859499828E+02  0.18508233340E+03  0.17320118798E+03 0.  0.
        -24    2    5    5    0    0  0.17189510474E+02  0.92519764022E+02 -0.15260926192E+02  0.12417319104E+03  0.79565692976E+02 0.  0.
          5    1    3    3  502    0 -0.55197406342E+02 -0.50787706051E+02 -0.40667920639E+02  0.85452410861E+02  0.47000000000E+01 0. -1.
        -13    1    4    4    0    0  0.23254746476E+02 -0.34146314862E+02  0.68718174927E+01  0.41880495795E+02  0.00000000000E+00 0.  1.
         14    1    4    4    0    0  0.15783661514E+02  0.43640272402E+02  0.24064823283E+02  0.52275358112E+02  0.00000000000E+00 0. -1.
         -5    1    5    5    0  501 -0.10305121214E+01 -0.51226015510E+02 -0.32598573636E+02  0.60909142363E+02  0.47000000000E+01 0.  1.
         11    1    6    6    0    0  0.48524570529E+02  0.66203210610E+02 -0.66041387314E+01  0.82347517804E+02  0.00000000000E+00 0. -1.
        -12    1    6    6    0    0 -0.31335060055E+02  0.26316553411E+02 -0.86567874608E+01  0.41825673231E+02  0.00000000000E+00 0.  1.
<mgrwt>
<rscale>  2 0.17906571E+03</rscale>
<asrwt>0</asrwt>
<pdfrwt beam="1">  1        3 0.23623063E-01 0.17906571E+03</pdfrwt>
<pdfrwt beam="2">  1       -3 0.32483183E-01 0.17906571E+03</pdfrwt>
<totfact> 0.37111050E+02</totfact>
</mgrwt>
</event>
<event>
12    1  0.4404304E-002  0.1931210E+03  0.7546771E-02  0.1155676E+00
         -2   -1    0    0    0  501 -0.00000000000E+00  0.00000000000E+00  0.19622103079E+02  0.19622103079E+02  0.00000000000E+00 0. -1.
          2   -1    0    0  502    0  0.00000000000E+00 -0.00000000000E+00 -0.24507811331E+04  0.24507811331E+04  0.00000000000E+00 0.  1.
          6    2    1    2  502    0 -0.13840170966E+01  0.86042967382E+02 -0.62972529502E+03  0.65863293496E+03  0.17273704896E+03 0.  0.
         24    2    3    3    0    0  0.42112329846E+02  0.11683918431E+03 -0.40863347362E+03  0.43115980981E+03  0.59098413849E+02 0.  0.
         -6    2    1    2    0  501  0.13840170966E+01 -0.86042967382E+02 -0.18014337350E+04  0.18117703012E+04  0.17303992327E+03 0.  0.
        -24    2    5    5    0    0  0.58991632471E+02 -0.73272681172E+02 -0.91344670786E+03  0.92181256744E+03  0.80651242201E+02 0.  0.
          5    1    3    3  502    0 -0.43496346943E+02 -0.30796216924E+02 -0.22109182140E+03  0.22747312515E+03  0.47000000000E+01 0. -1.
        -13    1    4    4    0    0  0.27621969719E+02  0.19271068103E+02 -0.16335077240E+03  0.16678675643E+03  0.00000000000E+00 0.  1.
         14    1    4    4    0    0  0.14490360127E+02  0.97568116203E+02 -0.24528270122E+03  0.26437305338E+03  0.00000000000E+00 0. -1.
         -5    1    5    5    0  501 -0.57607615374E+02 -0.12770286210E+02 -0.88798702713E+03  0.88995773378E+03  0.47000000000E+01 0.  1.
         13    1    6    6    0    0 -0.20446679753E+02 -0.15470525868E+02 -0.18134604532E+03  0.18314964383E+03  0.00000000000E+00 0. -1.
        -14    1    6    6    0    0  0.79438312224E+02 -0.57802155303E+02 -0.73210066255E+03  0.73866292361E+03  0.00000000000E+00 0.  1.
<mgrwt>
<rscale>  2 0.19312100E+03</rscale>
<asrwt>0</asrwt>
<pdfrwt beam="2">  1        2 0.37704283E+00 0.19312100E+03</pdfrwt>
<pdfrwt beam="1">  1       -2 0.30187884E-02 0.19312100E+03</pdfrwt>
<totfact> 0.18054695E+03</totfact>
</mgrwt>
</event>
<event>
12    1  0.4404304E-002  0.2142286E+03  0.7546771E-02  0.1138260E+00
         -2   -1    0    0    0  501 -0.00000000000E+00  0.00000000000E+00  0.16447553550E+02  0.16447553550E+02  0.00000000000E+00 0. -1.
          2   -1    0    0  502    0  0.00000000000E+00 -0.00000000000E+00 -0.29844571553E+04  0.29844571553E+04  0.00000000000E+00 0.  1.
          6    2    1    2  502    0 -0.88944611454E+02 -0.89190597951E+02 -0.18661151977E+04  0.18783614016E+04  0.17317481788E+03 0.  0.
         24    2    3    3    0    0 -0.11199634167E+03 -0.31100758761E+02 -0.10085979267E+04  0.10185569055E+04  0.81718750208E+02 0.  0.
         -6    2    1    2    0  501  0.88944611454E+02  0.89190597951E+02 -0.11018944041E+04  0.11225433072E+04  0.17339576735E+03 0.  0.
        -24    2    5    5    0    0  0.40513755386E+01 -0.11250107910E+02 -0.37354311609E+03  0.38239947955E+03  0.80943954744E+02 0.  0.
          5    1    3    3  502    0  0.23051730214E+02 -0.58089839189E+02 -0.85751727094E+03  0.85980449617E+03  0.47000000000E+01 0. -1.
        -11    1    4    4    0    0 -0.11110807454E+03 -0.50322412456E+02 -0.82778568771E+03  0.83672366657E+03  0.00000000000E+00 0.  1.
         12    1    4    4    0    0 -0.88826712938E+00  0.19221653695E+02 -0.18081223901E+03  0.18183323888E+03  0.00000000000E+00 0. -1.
         -5    1    5    5    0  501  0.84893235915E+02  0.10044070586E+03 -0.72835128802E+03  0.74014382768E+03  0.47000000000E+01 0.  1.
         11    1    6    6    0    0  0.37344513345E+02 -0.30403371676E+01 -0.28493203506E+03  0.28738496991E+03  0.00000000000E+00 0. -1.
        -12    1    6    6    0    0 -0.33293137807E+02 -0.82097707420E+01 -0.88611081037E+02  0.95014509645E+02  0.00000000000E+00 0.  1.
<mgrwt>
<rscale>  2 0.21422861E+03</rscale>
<asrwt>0</asrwt>
<pdfrwt beam="2">  1        2 0.45914770E+00 0.21422861E+03</pdfrwt>
<pdfrwt beam="1">  1       -2 0.25303904E-02 0.21422861E+03</pdfrwt>
<totfact> 0.11737615E+03</totfact>
</mgrwt>
</event>
<event>
12    1  0.4404304E-002  0.2398491E+03  0.7546771E-02  0.1119893E+00
         -2   -1    0    0    0  501 -0.00000000000E+00  0.00000000000E+00  0.57365714297E+02  0.57365714297E+02  0.00000000000E+00 0. -1.
          2   -1    0    0  502    0  0.00000000000E+00 -0.00000000000E+00 -0.10030796069E+04  0.10030796069E+04  0.00000000000E+00 0.  1.
          6    2    1    2  502    0  0.12266005118E+03 -0.11167083674E+03 -0.48149059070E+03  0.53795207821E+03  0.17333027891E+03 0.  0.
         24    2    3    3    0    0  0.11939963171E+03 -0.56111017565E+02 -0.44689630094E+03  0.47225292505E+03  0.76823193668E+02 0.  0.
         -6    2    1    2    0  501 -0.12266005118E+03  0.11167083674E+03 -0.46422330190E+03  0.52249324298E+03  0.17314748338E+03 0.  0.
        -24    2    5    5    0    0 -0.80035314200E+02  0.11347182032E+03 -0.20950850684E+03  0.26418755476E+03  0.81361810009E+02 0.  0.
          5    1    3    3  502    0  0.32604194766E+01 -0.55559819171E+02 -0.34594289762E+02  0.65699153158E+02  0.47000000000E+01 0. -1.
        -11    1    4    4    0    0  0.43803859818E+02 -0.37553098505E+02 -0.30498949139E+03  0.31039910309E+03  0.00000000000E+00 0.  1.
         12    1    4    4    0    0  0.75595771889E+02 -0.18557919059E+02 -0.14190680955E+03  0.16185382196E+03  0.00000000000E+00 0. -1.
         -5    1    5    5    0  501 -0.42624736984E+02 -0.18009835804E+01 -0.25471479506E+03  0.25830568822E+03  0.47000000000E+01 0.  1.
         13    1    6    6    0    0 -0.13545224650E+02  0.88383473697E+02 -0.10677692402E+03  0.13927104163E+03  0.00000000000E+00 0. -1.
        -14    1    6    6    0    0 -0.66490089549E+02  0.25088346619E+02 -0.10273158282E+03  0.12491651313E+03  0.00000000000E+00 0.  1.
<mgrwt>
<rscale>  2 0.23984906E+03</rscale>
<asrwt>0</asrwt>
<pdfrwt beam="2">  1        2 0.15431993E+00 0.23984906E+03</pdfrwt>
<pdfrwt beam="1">  1       -2 0.88254949E-02 0.23984906E+03</pdfrwt>
<totfact> 0.21130803E+03</totfact>
</mgrwt>
</event>
<event>
12    1  0.4404304E-002  0.2012388E+03  0.7546771E-02  0.1148698E+00
          1   -1    0    0  502    0  0.00000000000E+00  0.00000000000E+00  0.28389011411E+03  0.28389011411E+03  0.00000000000E+00 0.  1.
         -1   -1    0    0    0  501 -0.00000000000E+00 -0.00000000000E+00 -0.17705557868E+03  0.17705557868E+03  0.00000000000E+00 0. -1.
          6    2    1    2  502    0  0.51324995462E+02 -0.85791915675E+02  0.15462763771E+03  0.25243082688E+03  0.17267631008E+03 0.  0.
         24    2    3    3    0    0  0.45220932789E+02 -0.11154401718E+03  0.16840350145E+03  0.22222660971E+03  0.80857443893E+02 0.  0.
         -6    2    1    2    0  501 -0.51324995462E+02  0.85791915675E+02 -0.47793102268E+02  0.20851486591E+03  0.17663454001E+03 0.  0.
        -24    2    5    5    0    0 -0.46268812220E+02  0.35839169482E+01 -0.89434373318E+02  0.11610379786E+03  0.57688276983E+02 0.  0.
          5    1    3    3  502    0  0.61040626730E+01  0.25752101500E+02 -0.13775863749E+02  0.30204217169E+02  0.47000000000E+01 0. -1.
        -11    1    4    4    0    0  0.54053558232E+02 -0.11410850540E+03  0.12432336138E+03  0.17719716800E+03  0.00000000000E+00 0.  1.
         12    1    4    4    0    0 -0.88326254423E+01  0.25644882251E+01  0.44080140078E+02  0.45029441717E+02  0.00000000000E+00 0. -1.
         -5    1    5    5    0  501 -0.50561832427E+01  0.82207998727E+02  0.41641271050E+02  0.92411068051E+02  0.47000000000E+01 0.  1.
         11    1    6    6    0    0 -0.38348087368E+01 -0.22609722750E+02 -0.38567475122E+02  0.44870429663E+02  0.00000000000E+00 0. -1.
        -12    1    6    6    0    0 -0.42434003483E+02  0.26193639698E+02 -0.50866898196E+02  0.71233368194E+02  0.00000000000E+00 0.  1.
<mgrwt>
<rscale>  2 0.20123877E+03</rscale>
<asrwt>0</asrwt>
<pdfrwt beam="1">  1        1 0.43675402E-01 0.20123877E+03</pdfrwt>
<pdfrwt beam="2">  1       -1 0.27239320E-01 0.20123877E+03</pdfrwt>
<totfact> 0.11288423E+03</totfact>
</mgrwt>
</event>
<event>
12    1  0.4404304E-002  0.1770877E+03  0.7546771E-02  0.1170652E+00
         -2   -1    0    0    0  501 -0.00000000000E+00  0.00000000000E+00  0.35391961176E+02  0.35391961176E+02  0.00000000000E+00 0. -1.
          2   -1    0    0  502    0  0.00000000000E+00 -0.00000000000E+00 -0.93553771897E+03  0.93553771897E+03  0.00000000000E+00 0.  1.
          6    2    1    2  502    0 -0.13205699198E+02  0.37977459834E+02 -0.33657645552E+03  0.37995549743E+03  0.17165602720E+03 0.  0.
         24    2    3    3    0    0  0.39979685105E+02  0.25788184044E+02 -0.29931684510E+03  0.31371629366E+03  0.81018105956E+02 0.  0.
         -6    2    1    2    0  501  0.13205699198E+02 -0.37977459834E+02 -0.56356930228E+03  0.59097418271E+03  0.17327275670E+03 0.  0.
        -24    2    5    5    0    0  0.29323889128E+02 -0.71422068290E+02 -0.21746653571E+03  0.24285415613E+03  0.75666668242E+02 0.  0.
          5    1    3    3  502    0 -0.53185384303E+02  0.12189275790E+02 -0.37259610419E+02  0.66239203772E+02  0.47000000000E+01 0. -1.
        -11    1    4    4    0    0 -0.91319807588E+01 -0.69424923504E+00 -0.19668209334E+03  0.19689520282E+03  0.00000000000E+00 0.  1.
         12    1    4    4    0    0  0.49111665864E+02  0.26482433279E+02 -0.10263475176E+03  0.11682109084E+03  0.00000000000E+00 0. -1.
         -5    1    5    5    0  501 -0.16118189930E+02  0.33444608456E+02 -0.34610276657E+03  0.34812002658E+03  0.47000000000E+01 0.  1.
         13    1    6    6    0    0  0.41695054519E+02 -0.11200866373E+02 -0.60909340964E+02  0.74658454281E+02  0.00000000000E+00 0. -1.
        -14    1    6    6    0    0 -0.12371165391E+02 -0.60221201918E+02 -0.15655719474E+03  0.16819570184E+03  0.00000000000E+00 0.  1.
<mgrwt>
<rscale>  2 0.17708771E+03</rscale>
<asrwt>0</asrwt>
<pdfrwt beam="2">  1        2 0.14392886E+00 0.17708771E+03</pdfrwt>
<pdfrwt beam="1">  1       -2 0.54449178E-02 0.17708771E+03</pdfrwt>
<totfact> 0.48767022E+03</totfact>
</mgrwt>
</event>
<event>
12    1  0.4404304E-002  0.2032555E+03  0.7546771E-02  0.1147021E+00
          1   -1    0    0  502    0  0.00000000000E+00  0.00000000000E+00  0.22760854017E+03  0.22760854017E+03  0.00000000000E+00 0.  1.
         -1   -1    0    0    0  501 -0.00000000000E+00 -0.00000000000E+00 -0.19540984854E+03  0.19540984854E+03  0.00000000000E+00 0. -1.
          6    2    1    2  502    0  0.13282946643E+02 -0.10559439395E+03 -0.40368046144E+02  0.20643838263E+03  0.17222257102E+03 0.  0.
         24    2    3    3    0    0  0.16111577107E+02 -0.13483927665E+03  0.13318504426E+01  0.15521108825E+03  0.75149814677E+02 0.  0.
         -6    2    1    2    0  501 -0.13282946643E+02  0.10559439395E+03  0.72566737779E+02  0.21658000608E+03  0.17411018033E+03 0.  0.
        -24    2    5    5    0    0 -0.72422560954E+02  0.95532764518E+02  0.43024618464E+02  0.14954600589E+03  0.78366789219E+02 0.  0.
          5    1    3    3  502    0 -0.28286304642E+01  0.29244882697E+02 -0.41699896587E+02  0.51227294381E+02  0.47000000000E+01 0. -1.
        -11    1    4    4    0    0 -0.54181903103E+01 -0.13303742013E+03  0.52613278686E+01  0.13325161729E+03  0.00000000000E+00 0.  1.
         12    1    4    4    0    0  0.21529767418E+02 -0.18018565254E+01 -0.39294774260E+01  0.21959470960E+02  0.00000000000E+00 0. -1.
         -5    1    5    5    0  501  0.59139614310E+02  0.10061629436E+02  0.29542119315E+02  0.67034000189E+02  0.47000000000E+01 0.  1.
         11    1    6    6    0    0 -0.24864724683E+02  0.71349084026E+00 -0.14583805921E+02  0.28834892021E+02  0.00000000000E+00 0. -1.
        -12    1    6    6    0    0 -0.47557836270E+02  0.94819273678E+02  0.57608424385E+02  0.12071111387E+03  0.00000000000E+00 0.  1.
<mgrwt>
<rscale>  2 0.20325551E+03</rscale>
<asrwt>0</asrwt>
<pdfrwt beam="1">  1        1 0.35016699E-01 0.20325551E+03</pdfrwt>
<pdfrwt beam="2">  1       -1 0.30063054E-01 0.20325551E+03</pdfrwt>
<totfact> 0.12605417E+03</totfact>
</mgrwt>
</event>
<event>
12    1  0.4404304E-002  0.1766584E+03  0.7546771E-02  0.1171077E+00
         -2   -1    0    0    0  501 -0.00000000000E+00  0.00000000000E+00  0.45419436807E+02  0.45419436807E+02  0.00000000000E+00 0.  1.
          2   -1    0    0  502    0  0.00000000000E+00 -0.00000000000E+00 -0.69326053378E+03  0.69326053378E+03  0.00000000000E+00 0. -1.
          6    2    1    2  502    0 -0.35212250898E+02  0.32648671149E+01 -0.35814802232E+03  0.39921289702E+03  0.17277259413E+03 0.  0.
         24    2    3    3    0    0 -0.37142057173E+02 -0.47446478081E+02 -0.31886774893E+03  0.33486699924E+03  0.82635132822E+02 0.  0.
         -6    2    1    2    0  501  0.35212250898E+02 -0.32648671149E+01 -0.28969307465E+03  0.33946707356E+03  0.17339335214E+03 0.  0.
        -24    2    5    5    0    0 -0.25809283468E+02 -0.65866161520E+01 -0.25330735868E+03  0.26818824080E+03  0.83969112885E+02 0.  0.
          5    1    3    3  502    0  0.19298062755E+01  0.50711345196E+02 -0.39280273394E+02  0.64345897785E+02  0.47000000000E+01 0. -1.
        -11    1    4    4    0    0 -0.53946494021E+02 -0.24085841800E+02 -0.11815753499E+03  0.13210433402E+03  0.00000000000E+00 0.  1.
         12    1    4    4    0    0  0.16804436847E+02 -0.23360636281E+02 -0.20071021394E+03  0.20276266522E+03  0.00000000000E+00 0. -1.
         -5    1    5    5    0  501  0.61021534366E+02  0.33217490371E+01 -0.36385715966E+02  0.71278832758E+02  0.47000000000E+01 0.  1.
         11    1    6    6    0    0 -0.87734129443E+00  0.76476190601E+01 -0.23275153264E+03  0.23287879197E+03  0.00000000000E+00 0. -1.
        -12    1    6    6    0    0 -0.24931942174E+02 -0.14234235212E+02 -0.20555826045E+02  0.35309448835E+02  0.00000000000E+00 0.  1.
<mgrwt>
<rscale>  2 0.17665840E+03</rscale>
<asrwt>0</asrwt>
<pdfrwt beam="2">  1        2 0.10665547E+00 0.17665840E+03</pdfrwt>
<pdfrwt beam="1">  1       -2 0.69876056E-02 0.17665840E+03</pdfrwt>
<totfact> 0.48643202E+03</totfact>
</mgrwt>
</event>
<event>
12    1  0.4404304E-002  0.2168769E+03  0.7546771E-02  0.1136233E+00
          2   -1    0    0  502    0  0.00000000000E+00  0.00000000000E+00  0.38082163779E+03  0.38082163779E+03  0.00000000000E+00 0.  1.
         -2   -1    0    0    0  501 -0.00000000000E+00 -0.00000000000E+00 -0.12547517648E+03  0.12547517648E+03  0.00000000000E+00 0. -1.
          6    2    1    2  502    0  0.12624670401E+03 -0.30222149470E+02  0.96013671402E+02  0.23720238923E+03  0.17376633669E+03 0.  0.
         24    2    3    3    0    0  0.11444269989E+03  0.32634328112E+02  0.33801949171E+02  0.14785665810E+03  0.80974617304E+02 0.  0.
         -6    2    1    2    0  501 -0.12624670401E+03  0.30222149470E+02  0.15933278991E+03  0.26909442505E+03  0.17370452803E+03 0.  0.
        -24    2    5    5    0    0 -0.33732832488E+02 -0.27137440084E+02  0.23421669054E+02  0.94902399655E+02  0.81139054943E+02 0.  0.
          5    1    3    3  502    0  0.11804004121E+02 -0.62856477581E+02  0.62211722231E+02  0.89345731124E+02  0.47000000000E+01 0. -1.
        -11    1    4    4    0    0  0.63281588137E+02  0.35382977406E+02  0.56403667751E+02  0.91857978548E+02  0.00000000000E+00 0.  1.
         12    1    4    4    0    0  0.51161111754E+02 -0.27486492942E+01 -0.22601718581E+02  0.55998679553E+02  0.00000000000E+00 0. -1.
         -5    1    5    5    0  501 -0.92513871524E+02  0.57359589554E+02  0.13591112085E+03  0.17419202539E+03  0.47000000000E+01 0.  1.
         13    1    6    6    0    0  0.11922849439E+02 -0.11806349241E+01  0.38452042401E+02  0.40275399469E+02  0.00000000000E+00 0. -1.
        -14    1    6    6    0    0 -0.45655681927E+02 -0.25956805160E+02 -0.15030373348E+02  0.54627000186E+02  0.00000000000E+00 0.  1.
<mgrwt>
<rscale>  2 0.21687694E+03</rscale>
<asrwt>0</asrwt>
<pdfrwt beam="1">  1        2 0.58587944E-01 0.21687694E+03</pdfrwt>
<pdfrwt beam="2">  1       -2 0.19303873E-01 0.21687694E+03</pdfrwt>
<totfact> 0.18696708E+03</totfact>
</mgrwt>
</event>
<event>
12    1  0.4404304E-002  0.1789206E+03  0.7546771E-02  0.1168852E+00
         -2   -1    0    0    0  501 -0.00000000000E+00  0.00000000000E+00  0.82499122486E+03  0.82499122486E+03  0.00000000000E+00 0.  1.
          2   -1    0    0  502    0  0.00000000000E+00 -0.00000000000E+00 -0.38819022113E+02  0.38819022113E+02  0.00000000000E+00 0. -1.
          6    2    1    2  502    0  0.35338900618E+02  0.43150033059E+02  0.39095103968E+03  0.43085552943E+03  0.17228757520E+03 0.  0.
         24    2    3    3    0    0  0.32235061102E+02  0.93498170141E+02  0.24468560181E+03  0.27606458318E+03  0.80991378360E+02 0.  0.
         -6    2    1    2    0  501 -0.35338900618E+02 -0.43150033059E+02  0.39522116307E+03  0.43295471754E+03  0.16774759746E+03 0.  0.
        -24    2    5    5    0    0  0.28643382964E+02 -0.68451270963E+02  0.21781167766E+03  0.24261265502E+03  0.76895731781E+02 0.  0.
          5    1    3    3  502    0  0.31038395156E+01 -0.50348137082E+02  0.14626543787E+03  0.15479094626E+03  0.47000000000E+01 0. -1.
        -13    1    4    4    0    0 -0.18945166610E+02  0.35877496527E+02  0.14195361143E+03  0.14763787418E+03  0.00000000000E+00 0.  1.
         14    1    4    4    0    0  0.51180227712E+02  0.57620673614E+02  0.10273199038E+03  0.12842670900E+03  0.00000000000E+00 0. -1.
         -5    1    5    5    0  501 -0.63982283582E+02  0.25301237904E+02  0.17740948541E+03  0.19034206252E+03  0.47000000000E+01 0.  1.
         11    1    6    6    0    0 -0.23534069390E+02 -0.76234873589E+01  0.33608432121E+02  0.41731243586E+02  0.00000000000E+00 0. -1.
        -12    1    6    6    0    0  0.52177452354E+02 -0.60827783605E+02  0.18420324554E+03  0.20088141144E+03  0.00000000000E+00 0.  1.
<mgrwt>
<rscale>  2 0.17892063E+03</rscale>
<asrwt>0</asrwt>
<pdfrwt beam="2">  1        2 0.59721579E-02 0.17892063E+03</pdfrwt>
<pdfrwt beam="1">  1       -2 0.12692171E+00 0.17892063E+03</pdfrwt>
<totfact> 0.59419546E+02</totfact>
</mgrwt>
</event>
<event>
12    1  0.4404304E-002  0.2704368E+03  0.7546771E-02  0.1101030E+00
          1   -1    0    0  502    0  0.00000000000E+00  0.00000000000E+00  0.10826765023E+03  0.10826765023E+03  0.00000000000E+00 0. -1.
         -1   -1    0    0    0  501 -0.00000000000E+00 -0.00000000000E+00 -0.67839501273E+03  0.67839501273E+03  0.00000000000E+00 0.  1.
          6    2    1    2  502    0 -0.16066346183E+02 -0.20742838914E+03 -0.31055398633E+03  0.41170534482E+03  0.17254810466E+03 0.  0.
         24    2    3    3    0    0  0.19644523703E+02 -0.62604051718E+02 -0.20117402711E+03  0.22667718367E+03  0.81279651873E+02 0.  0.
         -6    2    1    2    0  501  0.16066346183E+02  0.20742838914E+03 -0.25957337616E+03  0.37495731815E+03  0.17300285755E+03 0.  0.
        -24    2    5    5    0    0 -0.27901383966E+01  0.42254593325E+02 -0.40610206557E+02  0.99993848797E+02  0.80971262750E+02 0.  0.
          5    1    3    3  502    0 -0.35710869886E+02 -0.14482433742E+03 -0.10937995922E+03  0.18502816115E+03  0.47000000000E+01 0. -1.
        -11    1    4    4    0    0  0.28635103226E+02  0.87950167221E+01 -0.38374701266E+02  0.48682020841E+02  0.00000000000E+00 0.  1.
         12    1    4    4    0    0 -0.89905795227E+01 -0.71399068440E+02 -0.16279932585E+03  0.17799516283E+03  0.00000000000E+00 0. -1.
         -5    1    5    5    0  501  0.18856484579E+02  0.16517379582E+03 -0.21896316960E+03  0.27496346935E+03  0.47000000000E+01 0.  1.
         13    1    6    6    0    0  0.18666716627E+02  0.60263440336E+02 -0.31655067015E+02  0.70584501263E+02  0.00000000000E+00 0. -1.
        -14    1    6    6    0    0 -0.21456855023E+02 -0.18008847012E+02 -0.89551395424E+01  0.29409347534E+02  0.00000000000E+00 0.  1.
<mgrwt>
<rscale>  2 0.27043676E+03</rscale>
<asrwt>0</asrwt>
<pdfrwt beam="1">  1        1 0.16656561E-01 0.27043676E+03</pdfrwt>
<pdfrwt beam="2">  1       -1 0.10436846E+00 0.27043676E+03</pdfrwt>
<totfact> 0.29791519E+02</totfact>
</mgrwt>
</event>
<event>
12    1  0.4404304E-002  0.3124145E+03  0.7546771E-02  0.1079194E+00
         -2   -1    0    0    0  501 -0.00000000000E+00  0.00000000000E+00  0.37217090381E+03  0.37217090381E+03  0.00000000000E+00 0. -1.
          2   -1    0    0  502    0  0.00000000000E+00 -0.00000000000E+00 -0.26982840312E+03  0.26982840312E+03  0.00000000000E+00 0.  1.
          6    2    1    2  502    0 -0.10073713439E+03  0.23879344353E+03  0.10499847563E+03  0.32983451081E+03  0.17491668221E+03 0.  0.
         24    2    3    3    0    0  0.14792699964E+02  0.78561617464E+02  0.50188079114E+02  0.12477927367E+03  0.81610490393E+02 0.  0.
         -6    2    1    2    0  501  0.10073713439E+03 -0.23879344353E+03 -0.26559749438E+01  0.31216479613E+03  0.17398139793E+03 0.  0.
        -24    2    5    5    0    0  0.45566191033E+02 -0.82513150395E+02 -0.57398170996E+02  0.13756192949E+03  0.82122083857E+02 0.  0.
          5    1    3    3  502    0 -0.11552983436E+03  0.16023182606E+03  0.54810396519E+02  0.20505523713E+03  0.47000000000E+01 0. -1.
        -11    1    4    4    0    0  0.48913395546E+01  0.33179972873E+02 -0.21151131636E+02  0.39651055118E+02  0.00000000000E+00 0.  1.
         12    1    4    4    0    0  0.99013604093E+01  0.45381644591E+02  0.71339210750E+02  0.85128218553E+02  0.00000000000E+00 0. -1.
         -5    1    5    5    0  501  0.55170943360E+02 -0.15628029313E+03  0.54742196052E+02  0.17460286665E+03  0.47000000000E+01 0.  1.
         11    1    6    6    0    0  0.24584149465E+02  0.11620245460E+02 -0.21459855933E+02  0.34640091312E+02  0.00000000000E+00 0. -1.
        -12    1    6    6    0    0  0.20982041568E+02 -0.94133395855E+02 -0.35938315063E+02  0.10292183817E+03  0.00000000000E+00 0.  1.
<mgrwt>
<rscale>  2 0.31241451E+03</rscale>
<asrwt>0</asrwt>
<pdfrwt beam="2">  1        2 0.41512062E-01 0.31241451E+03</pdfrwt>
<pdfrwt beam="1">  1       -2 0.57257062E-01 0.31241451E+03</pdfrwt>
<totfact> 0.35917371E+02</totfact>
</mgrwt>
</event>
<event>
12    1  0.4404304E-002  0.2275775E+03  0.7546771E-02  0.1128357E+00
         -2   -1    0    0    0  501 -0.00000000000E+00  0.00000000000E+00  0.35847849889E+02  0.35847849889E+02  0.00000000000E+00 0.  1.
          2   -1    0    0  502    0  0.00000000000E+00 -0.00000000000E+00 -0.16057975185E+04  0.16057975185E+04  0.00000000000E+00 0. -1.
          6    2    1    2  502    0  0.49538213731E+02  0.13914130695E+03 -0.10458524765E+04  0.10703912182E+04  0.17353852473E+03 0.  0.
         24    2    3    3    0    0  0.76038216567E+02  0.30817179357E+02 -0.47938233852E+03  0.49302922262E+03  0.80863334987E+02 0.  0.
         -6    2    1    2    0  501 -0.49538213731E+02 -0.13914130695E+03 -0.52409719215E+03  0.57125415019E+03  0.17273997617E+03 0.  0.
        -24    2    5    5    0    0 -0.91248070786E+02 -0.12714419687E+03 -0.34909264936E+03  0.39088696131E+03  0.80218959516E+02 0.  0.
          5    1    3    3  502    0 -0.26500002836E+02  0.10832412760E+03 -0.56647013796E+03  0.57736199561E+03  0.47000000000E+01 0. -1.
        -11    1    4    4    0    0 -0.13732209737E+01 -0.14510463470E+02 -0.18778265032E+02  0.23771043805E+02  0.00000000000E+00 0.  1.
         12    1    4    4    0    0  0.77411437541E+02  0.45327642827E+02 -0.46060407349E+03  0.46925817881E+03  0.00000000000E+00 0. -1.
         -5    1    5    5    0  501  0.41709857055E+02 -0.11997110084E+02 -0.17500454279E+03  0.18036718888E+03  0.47000000000E+01 0.  1.
         13    1    6    6    0    0 -0.64027743289E+02 -0.23943127851E+02 -0.15447956579E+03  0.16892827333E+03  0.00000000000E+00 0. -1.
        -14    1    6    6    0    0 -0.27220327497E+02 -0.10320106902E+03 -0.19461308357E+03  0.22195868798E+03  0.00000000000E+00 0.  1.
<mgrwt>
<rscale>  2 0.22757749E+03</rscale>
<asrwt>0</asrwt>
<pdfrwt beam="2">  1        2 0.24704580E+00 0.22757749E+03</pdfrwt>
<pdfrwt beam="1">  1       -2 0.55150533E-02 0.22757749E+03</pdfrwt>
<totfact> 0.20218633E+03</totfact>
</mgrwt>
</event>
<event>
12    1  0.4404304E-002  0.1758021E+03  0.7546771E-02  0.1171929E+00
          1   -1    0    0  502    0  0.00000000000E+00  0.00000000000E+00  0.72804403025E+02  0.72804403025E+02  0.00000000000E+00 0. -1.
         -1   -1    0    0    0  501 -0.00000000000E+00 -0.00000000000E+00 -0.68913253868E+03  0.68913253868E+03  0.00000000000E+00 0.  1.
          6    2    1    2  502    0  0.10232217134E+02  0.14885877435E+02 -0.74257273469E+02  0.19267427616E+03  0.17686985728E+03 0.  0.
         24    2    3    3    0    0 -0.82018621282E+01 -0.89866646147E+01 -0.11637938538E+03  0.14065431986E+03  0.78047714065E+02 0.  0.
         -6    2    1    2    0  501 -0.10232217134E+02 -0.14885877435E+02 -0.54207086219E+03  0.56926266555E+03  0.17289556136E+03 0.  0.
        -24    2    5    5    0    0 -0.26805517853E+02  0.13600640072E+02 -0.13703835027E+03  0.16286436131E+03  0.82715038190E+02 0.  0.
          5    1    3    3  502    0  0.18434079263E+02  0.23872542050E+02  0.42122111906E+02  0.52019956301E+02  0.47000000000E+01 0. -1.
        -11    1    4    4    0    0 -0.25929325552E+02  0.27680911429E+02 -0.62591594414E+02  0.73186545706E+02  0.00000000000E+00 0.  1.
         12    1    4    4    0    0  0.17727463424E+02 -0.36667576043E+02 -0.53787790962E+02  0.67467774151E+02  0.00000000000E+00 0. -1.
         -5    1    5    5    0  501  0.16573300719E+02 -0.28486517507E+02 -0.40503251192E+03  0.40639830424E+03  0.47000000000E+01 0.  1.
         11    1    6    6    0    0  0.28286793946E+02 -0.68867724333E+01 -0.49386650017E+02  0.57328976497E+02  0.00000000000E+00 0. -1.
        -12    1    6    6    0    0 -0.55092311799E+02  0.20487412505E+02 -0.87651700255E+02  0.10553538482E+03  0.00000000000E+00 0.  1.
<mgrwt>
<rscale>  2 0.17580212E+03</rscale>
<asrwt>0</asrwt>
<pdfrwt beam="1">  1        1 0.11200678E-01 0.17580212E+03</pdfrwt>
<pdfrwt beam="2">  1       -1 0.10602039E+00 0.17580212E+03</pdfrwt>
<totfact> 0.48631467E+02</totfact>
</mgrwt>
</event>
<event>
12    1  0.4404304E-002  0.1765272E+03  0.7546771E-02  0.1171207E+00
          2   -1    0    0  502    0  0.00000000000E+00  0.00000000000E+00  0.48268160236E+03  0.48268160236E+03  0.00000000000E+00 0. -1.
         -2   -1    0    0    0  501 -0.00000000000E+00 -0.00000000000E+00 -0.79490609170E+02  0.79490609170E+02  0.00000000000E+00 0.  1.
          6    2    1    2  502    0 -0.28417335347E+02  0.20822126981E+02  0.79446216480E+02  0.19325738623E+03  0.17261404954E+03 0.  0.
         24    2    3    3    0    0  0.25708302852E+02 -0.41213958094E+02  0.39199646772E+02  0.10149717189E+03  0.80034720075E+02 0.  0.
         -6    2    1    2    0  501  0.28417335347E+02 -0.20822126981E+02  0.32374477671E+03  0.36891482530E+03  0.17333886454E+03 0.  0.
        -24    2    5    5    0    0 -0.41694392326E+02 -0.33008529639E+02  0.24910267270E+03  0.26567870537E+03  0.75531765244E+02 0.  0.
          5    1    3    3  502    0 -0.54125638200E+02  0.62036085075E+02  0.40246569707E+02  0.91760214337E+02  0.47000000000E+01 0. -1.
        -13    1    4    4    0    0 -0.10997088833E+02 -0.15021382773E+02 -0.19840266448E+02  0.27206875527E+02  0.00000000000E+00 0.  1.
         14    1    4    4    0    0  0.36705391685E+02 -0.26192575321E+02  0.59039913221E+02  0.74290296364E+02  0.00000000000E+00 0. -1.
         -5    1    5    5    0  501  0.70111727674E+02  0.12186402658E+02  0.74642104003E+02  0.10323611992E+03  0.47000000000E+01 0.  1.
         13    1    6    6    0    0 -0.49255353237E+02 -0.48972833671E+02  0.15385578874E+03  0.16880767752E+03  0.00000000000E+00 0. -1.
        -14    1    6    6    0    0  0.75609609106E+01  0.15964304032E+02  0.95246883965E+02  0.96871027857E+02  0.00000000000E+00 0.  1.
<mgrwt>
<rscale>  2 0.17652716E+03</rscale>
<asrwt>0</asrwt>
<pdfrwt beam="1">  1        2 0.74258706E-01 0.17652716E+03</pdfrwt>
<pdfrwt beam="2">  1       -2 0.12229325E-01 0.17652716E+03</pdfrwt>
<totfact> 0.30519176E+03</totfact>
</mgrwt>
</event>
<event>
12    1  0.4404304E-002  0.2376000E+03  0.7546771E-02  0.1121402E+00
         -2   -1    0    0    0  501 -0.00000000000E+00  0.00000000000E+00  0.37840980509E+03  0.37840980509E+03  0.00000000000E+00 0. -1.
          2   -1    0    0  502    0  0.00000000000E+00 -0.00000000000E+00 -0.14929624297E+03  0.14929624297E+03  0.00000000000E+00 0.  1.
          6    2    1    2  502    0 -0.10236593112E+03  0.12697335463E+03  0.12157033824E+03  0.26666679665E+03  0.17242626440E+03 0.  0.
         24    2    3    3    0    0 -0.78568422111E+02  0.19418787670E+02  0.10603321102E+03  0.15532139426E+03  0.79571398182E+02 0.  0.
         -6    2    1    2    0  501  0.10236593112E+03 -0.12697335463E+03  0.10754322389E+03  0.26103925141E+03  0.17313269226E+03 0.  0.
        -24    2    5    5    0    0  0.63810803888E+02 -0.11366749113E+02  0.93064810855E+02  0.13822598046E+03  0.79021142597E+02 0.  0.
          5    1    3    3  502    0 -0.23797509005E+02  0.10755456696E+03  0.15537127213E+02  0.11134540238E+03  0.47000000000E+01 0. -1.
        -11    1    4    4    0    0 -0.37917064466E+02 -0.30875147476E+00 -0.22537429646E+01  0.37985240062E+02  0.00000000000E+00 0.  1.
         12    1    4    4    0    0 -0.40651357645E+02  0.19727539144E+02  0.10828695399E+03  0.11733615420E+03  0.00000000000E+00 0. -1.
         -5    1    5    5    0  501  0.38555127228E+02 -0.11560660552E+03  0.14478413030E+02  0.12281327094E+03  0.47000000000E+01 0.  1.
         13    1    6    6    0    0 -0.16815009435E+02 -0.13467781451E+02  0.19021090459E+02  0.28738955474E+02  0.00000000000E+00 0. -1.
        -14    1    6    6    0    0  0.80625813323E+02  0.21010323379E+01  0.74043720397E+02  0.10948702499E+03  0.00000000000E+00 0.  1.
<mgrwt>
<rscale>  2 0.23759999E+03</rscale>
<asrwt>0</asrwt>
<pdfrwt beam="2">  1        2 0.22968653E-01 0.23759999E+03</pdfrwt>
<pdfrwt beam="1">  1       -2 0.58216892E-01 0.23759999E+03</pdfrwt>
<totfact> 0.66695480E+02</totfact>
</mgrwt>
</event>
<event>
12    1  0.4404304E-002  0.2332189E+03  0.7546771E-02  0.1124394E+00
          2   -1    0    0  502    0  0.00000000000E+00  0.00000000000E+00  0.24338490539E+04  0.24338490539E+04  0.00000000000E+00 0. -1.
         -2   -1    0    0    0  501 -0.00000000000E+00 -0.00000000000E+00 -0.50044584256E+02  0.50044584256E+02  0.00000000000E+00 0.  1.
          6    2    1    2  502    0  0.60531090969E+02  0.14503883313E+03  0.26523771384E+03  0.35239629786E+03  0.17068049043E+03 0.  0.
         24    2    3    3    0    0  0.49767259372E+02  0.17357409839E+03  0.20494208616E+03  0.28466318814E+03  0.80169347452E+02 0.  0.
         -6    2    1    2    0  501 -0.60531090969E+02 -0.14503883313E+03  0.21185667558E+04  0.21314973403E+04  0.17394118774E+03 0.  0.
        -24    2    5    5    0    0 -0.33945410344E+01 -0.14881009842E+03  0.13184449859E+04  0.13293154753E+04  0.81403217644E+02 0.  0.
          5    1    3    3  502    0  0.10763831598E+02 -0.28535265258E+02  0.60295627687E+02  0.67733109718E+02  0.47000000000E+01 0. -1.
        -13    1    4    4    0    0  0.16681473782E+02  0.11383928634E+03  0.73460517897E+02  0.13650678508E+03  0.00000000000E+00 0.  1.
         14    1    4    4    0    0  0.33085785590E+02  0.59734812043E+02  0.13148156826E+03  0.14815640307E+03  0.00000000000E+00 0. -1.
         -5    1    5    5    0  501 -0.57136549935E+02  0.37712652903E+01  0.80012176994E+03  0.80218186498E+03  0.47000000000E+01 0.  1.
         11    1    6    6    0    0  0.59492873679E+01 -0.22366287747E+02  0.54954440773E+03  0.55003154539E+03  0.00000000000E+00 0. -1.
        -12    1    6    6    0    0 -0.93438284023E+01 -0.12644381067E+03  0.76890057817E+03  0.77928392996E+03  0.00000000000E+00 0.  1.
<mgrwt>
<rscale>  2 0.23321890E+03</rscale>
<asrwt>0</asrwt>
<pdfrwt beam="1">  1        2 0.37443822E+00 0.23321890E+03</pdfrwt>
<pdfrwt beam="2">  1       -2 0.76991687E-02 0.23321890E+03</pdfrwt>
<totfact> 0.44198432E+02</totfact>
</mgrwt>
</event>
<event>
12    1  0.4404304E-002  0.2396963E+03  0.7546771E-02  0.1119995E+00
          2   -1    0    0  502    0  0.00000000000E+00  0.00000000000E+00  0.14175433028E+04  0.14175433028E+04  0.00000000000E+00 0. -1.
         -2   -1    0    0    0  501 -0.00000000000E+00 -0.00000000000E+00 -0.42002900871E+02  0.42002900871E+02  0.00000000000E+00 0.  1.
          6    2    1    2  502    0  0.62819226100E+02 -0.15406677055E+03  0.82580579444E+03  0.86003335350E+03  0.17326088434E+03 0.  0.
         24    2    3    3    0    0  0.17321975235E+02 -0.61352527371E+01  0.35301888968E+03  0.36253633732E+03  0.80452266908E+02 0.  0.
         -6    2    1    2    0  501 -0.62819226100E+02  0.15406677055E+03  0.54973460752E+03  0.59951285020E+03  0.17182751205E+03 0.  0.
        -24    2    5    5    0    0  0.14786081577E+02  0.31576107201E+02  0.27951831973E+03  0.29281189067E+03  0.79953946130E+02 0.  0.
          5    1    3    3  502    0  0.45497250865E+02 -0.14793151782E+03  0.47278690475E+03  0.49749701618E+03  0.47000000000E+01 0. -1.
        -13    1    4    4    0    0  0.33834508199E+02 -0.31429981648E+02  0.14083666108E+03  0.14821465108E+03  0.00000000000E+00 0.  1.
         14    1    4    4    0    0 -0.16512532965E+02  0.25294728911E+02  0.21218222861E+03  0.21432168624E+03  0.00000000000E+00 0. -1.
         -5    1    5    5    0  501 -0.77605307677E+02  0.12249066335E+03  0.27021628779E+03  0.30670095953E+03  0.47000000000E+01 0.  1.
         11    1    6    6    0    0 -0.24848088391E+02  0.37190403410E+02  0.18160516897E+03  0.18703205875E+03  0.00000000000E+00 0. -1.
        -12    1    6    6    0    0  0.39634169968E+02 -0.56142962097E+01  0.97913150751E+02  0.10577983192E+03  0.00000000000E+00 0.  1.
<mgrwt>
<rscale>  2 0.23969628E+03</rscale>
<asrwt>0</asrwt>
<pdfrwt beam="1">  1        2 0.21808355E+00 0.23969628E+03</pdfrwt>
<pdfrwt beam="2">  1       -2 0.64619858E-02 0.23969628E+03</pdfrwt>
<totfact> 0.19964412E+03</totfact>
</mgrwt>
</event>
<event>
12    1  0.4404304E-002  0.1769815E+03  0.7546771E-02  0.1170757E+00
          2   -1    0    0  502    0  0.00000000000E+00  0.00000000000E+00  0.68606736005E+03  0.68606736005E+03  0.00000000000E+00 0.  1.
         -2   -1    0    0    0  501 -0.00000000000E+00 -0.00000000000E+00 -0.51193095640E+02  0.51193095640E+02  0.00000000000E+00 0. -1.
          6    2    1    2  502    0 -0.20590093683E+01 -0.29306297302E+02  0.44180813460E+03  0.47668888669E+03  0.17656377974E+03 0.  0.
         24    2    3    3    0    0 -0.20159546321E+02 -0.57245982705E+02  0.13594658553E+03  0.16898507999E+03  0.79943563210E+02 0.  0.
         -6    2    1    2    0  501  0.20590093683E+01  0.29306297302E+02  0.19306612981E+03  0.26057156900E+03  0.17251061854E+03 0.  0.
        -24    2    5    5    0    0  0.56490803170E+02  0.16611642535E+02  0.17431220549E+03  0.20142958633E+03  0.81987656118E+02 0.  0.
          5    1    3    3  502    0  0.18100536952E+02  0.27939685403E+02  0.30586154907E+03  0.30770380670E+03  0.47000000000E+01 0. -1.
        -13    1    4    4    0    0 -0.31417563250E+02  0.35458084212E+01  0.78346836248E+02  0.84485873304E+02  0.00000000000E+00 0.  1.
         14    1    4    4    0    0  0.11258016929E+02 -0.60791791126E+02  0.57599749285E+02  0.84499206690E+02  0.00000000000E+00 0. -1.
         -5    1    5    5    0  501 -0.54431793802E+02  0.12694654767E+02  0.18753924315E+02  0.59141982663E+02  0.47000000000E+01 0.  1.
         11    1    6    6    0    0  0.12056641610E+02 -0.27368101477E+02  0.23055153849E+02  0.37761299029E+02  0.00000000000E+00 0. -1.
        -12    1    6    6    0    0  0.44434161560E+02  0.43979744011E+02  0.15125705164E+03  0.16366828730E+03  0.00000000000E+00 0.  1.
<mgrwt>
<rscale>  2 0.17698150E+03</rscale>
<asrwt>0</asrwt>
<pdfrwt beam="1">  1        2 0.10554882E+00 0.17698150E+03</pdfrwt>
<pdfrwt beam="2">  1       -2 0.78758613E-02 0.17698150E+03</pdfrwt>
<totfact> 0.40935781E+03</totfact>
</mgrwt>
</event>
<event>
12    1  0.4404304E-002  0.2364653E+03  0.7546771E-02  0.1122170E+00
          2   -1    0    0  502    0  0.00000000000E+00  0.00000000000E+00  0.43862641057E+03  0.43862641057E+03  0.00000000000E+00 0. -1.
         -2   -1    0    0    0  501 -0.00000000000E+00 -0.00000000000E+00 -0.16815976344E+03  0.16815976344E+03  0.00000000000E+00 0.  1.
          6    2    1    2  502    0 -0.14369494775E+02  0.16290051687E+03  0.28427406238E+03  0.36949920391E+03  0.17022002929E+03 0.  0.
         24    2    3    3    0    0 -0.61716220914E+02  0.84423708602E+02  0.11306064494E+03  0.17524049439E+03  0.83607816276E+02 0.  0.
         -6    2    1    2    0  501  0.14369494775E+02 -0.16290051687E+03 -0.13807415247E+02  0.23728697010E+03  0.17138086442E+03 0.  0.
        -24    2    5    5    0    0 -0.82205559834E+01 -0.84674879437E+02  0.56082442475E+02  0.12988006643E+03  0.80536814889E+02 0.  0.
          5    1    3    3  502    0  0.47346726139E+02  0.78476808266E+02  0.17121341744E+03  0.19425870952E+03  0.47000000000E+01 0. -1.
        -11    1    4    4    0    0 -0.72447723608E+01  0.52692097045E+02  0.95410756062E+01  0.54036801731E+02  0.00000000000E+00 0.  1.
         12    1    4    4    0    0 -0.54471448553E+02  0.31731611557E+02  0.10351956934E+03  0.12120369266E+03  0.00000000000E+00 0. -1.
         -5    1    5    5    0  501  0.22590050758E+02 -0.78225637431E+02 -0.69889857722E+02  0.10740690368E+03  0.47000000000E+01 0.  1.
         11    1    6    6    0    0  0.35665206827E+02 -0.27624448566E+02  0.23607772206E+02  0.50916048993E+02  0.00000000000E+00 0. -1.
        -12    1    6    6    0    0 -0.43885762810E+02 -0.57050430871E+02  0.32474670269E+02  0.78964017432E+02  0.00000000000E+00 0.  1.
<mgrwt>
<rscale>  2 0.23646530E+03</rscale>
<asrwt>0</asrwt>
<pdfrwt beam="1">  1        2 0.67480986E-01 0.23646530E+03</pdfrwt>
<pdfrwt beam="2">  1       -2 0.25870733E-01 0.23646530E+03</pdfrwt>
<totfact> 0.96494900E+02</totfact>
</mgrwt>
</event>
<event>
12    1  0.4404304E-002  0.2135504E+03  0.7546771E-02  0.1138785E+00
         -2   -1    0    0    0  501 -0.00000000000E+00  0.00000000000E+00  0.19808130851E+03  0.19808130851E+03  0.00000000000E+00 0. -1.
          2   -1    0    0  502    0  0.00000000000E+00 -0.00000000000E+00 -0.23029521416E+03  0.23029521416E+03  0.00000000000E+00 0.  1.
          6    2    1    2  502    0 -0.12361445607E+03 -0.21989931989E+02 -0.12428349314E+02  0.21354684199E+03  0.17228957890E+03 0.  0.
         24    2    3    3    0    0 -0.79413885050E+02 -0.69615082866E+02 -0.45924047055E+02  0.14029455710E+03  0.80129393807E+02 0.  0.
         -6    2    1    2    0  501  0.12361445607E+03  0.21989931989E+02 -0.19785556336E+02  0.21482968068E+03  0.17319420488E+03 0.  0.
        -24    2    5    5    0    0  0.12763555353E+03  0.49395551729E+02  0.26016722730E+02  0.16109723252E+03  0.80899279413E+02 0.  0.
          5    1    3    3  502    0 -0.44200571018E+02  0.47625150877E+02  0.33495697741E+02  0.73252284890E+02  0.47000000000E+01 0. -1.
        -11    1    4    4    0    0 -0.25450455274E+02 -0.31439518655E+02 -0.60335852467E+02  0.72640099806E+02  0.00000000000E+00 0.  1.
         12    1    4    4    0    0 -0.53963429776E+02 -0.38175564211E+02  0.14411805412E+02  0.67654457290E+02  0.00000000000E+00 0. -1.
         -5    1    5    5    0  501 -0.40210974574E+01 -0.27405619740E+02 -0.45802279065E+02  0.53732448164E+02  0.47000000000E+01 0.  1.
         13    1    6    6    0    0  0.14651471316E+01 -0.10438662962E+02 -0.12395156163E+02  0.16271208832E+02  0.00000000000E+00 0. -1.
        -14    1    6    6    0    0  0.12617040639E+03  0.59834214690E+02  0.38411878893E+02  0.14482602369E+03  0.00000000000E+00 0.  1.
<mgrwt>
<rscale>  2 0.21355044E+03</rscale>
<asrwt>0</asrwt>
<pdfrwt beam="2">  1        2 0.35430033E-01 0.21355044E+03</pdfrwt>
<pdfrwt beam="1">  1       -2 0.30474047E-01 0.21355044E+03</pdfrwt>
<totfact> 0.14409483E+03</totfact>
</mgrwt>
</event>
<event>
12    1  0.4404304E-002  0.1823279E+03  0.7546771E-02  0.1165569E+00
         -2   -1    0    0    0  501 -0.00000000000E+00  0.00000000000E+00  0.29632623083E+02  0.29632623083E+02  0.00000000000E+00 0. -1.
          2   -1    0    0  502    0  0.00000000000E+00 -0.00000000000E+00 -0.12949171401E+04  0.12949171401E+04  0.00000000000E+00 0.  1.
          6    2    1    2  502    0 -0.47700707552E+02 -0.14951127217E+02 -0.86878093130E+03  0.88730992219E+03  0.17331964029E+03 0.  0.
         24    2    3    3    0    0  0.35659661423E+02 -0.32520085744E+02 -0.40750742067E+03  0.41821189295E+03  0.80682848722E+02 0.  0.
         -6    2    1    2    0  501  0.47700707552E+02  0.14951127217E+02 -0.39650358568E+03  0.43723984097E+03  0.17738289478E+03 0.  0.
        -24    2    5    5    0    0  0.45807257159E+02 -0.57873382627E+02 -0.26999182663E+03  0.29117715042E+03  0.80255300502E+02 0.  0.
          5    1    3    3  502    0 -0.83360368975E+02  0.17568958527E+02 -0.46127351063E+03  0.46909802923E+03  0.47000000000E+01 0. -1.
        -11    1    4    4    0    0  0.39745568306E+02 -0.89404234980E+01 -0.37814226234E+03  0.38033039839E+03  0.00000000000E+00 0.  1.
         12    1    4    4    0    0 -0.40859068830E+01 -0.23579662246E+02 -0.29365158332E+02  0.37881494566E+02  0.00000000000E+00 0. -1.
         -5    1    5    5    0  501  0.18934503936E+01  0.72824509844E+02 -0.12651175906E+03  0.14606269054E+03  0.47000000000E+01 0.  1.
         13    1    6    6    0    0  0.30043207880E+02  0.13813128551E+02 -0.57048964246E+02  0.65939223392E+02  0.00000000000E+00 0. -1.
        -14    1    6    6    0    0  0.15764049279E+02 -0.71686511178E+02 -0.21294286238E+03  0.22523792703E+03  0.00000000000E+00 0.  1.
<mgrwt>
<rscale>  2 0.18232787E+03</rscale>
<asrwt>0</asrwt>
<pdfrwt beam="2">  1        2 0.19921796E+00 0.18232787E+03</pdfrwt>
<pdfrwt beam="1">  1       -2 0.45588665E-02 0.18232787E+03</pdfrwt>
<totfact> 0.39523630E+03</totfact>
</mgrwt>
</event>
<event>
12    1  0.4404304E-002  0.2732960E+03  0.7546771E-02  0.1099408E+00
          1   -1    0    0  502    0  0.00000000000E+00  0.00000000000E+00  0.64196270288E+03  0.64196270288E+03  0.00000000000E+00 0. -1.
         -1   -1    0    0    0  501 -0.00000000000E+00 -0.00000000000E+00 -0.11758122577E+03  0.11758122577E+03  0.00000000000E+00 0.  1.
          6    2    1    2  502    0 -0.20185321232E+03  0.69346982894E+02  0.30262525992E+03  0.40890224840E+03  0.17339341810E+03 0.  0.
         24    2    3    3    0    0 -0.63507847291E+02 -0.40416202531E+01  0.19113623417E+03  0.21660763079E+03  0.79600404158E+02 0.  0.
         -6    2    1    2    0  501  0.20185321232E+03 -0.69346982894E+02  0.22175621720E+03  0.35064168025E+03  0.16798822787E+03 0.  0.
        -24    2    5    5    0    0  0.83097680355E+02 -0.54966682345E+02  0.18577865939E+03  0.22563710400E+03  0.80447695875E+02 0.  0.
          5    1    3    3  502    0 -0.13834536503E+03  0.73388603147E+02  0.11148902575E+03  0.19229461761E+03  0.47000000000E+01 0. -1.
        -11    1    4    4    0    0 -0.69426614961E+02  0.23068941186E+02  0.12416518070E+03  0.14411531151E+03  0.00000000000E+00 0.  1.
         12    1    4    4    0    0  0.59187676701E+01 -0.27110561439E+02  0.66971053466E+02  0.72492319281E+02  0.00000000000E+00 0. -1.
         -5    1    5    5    0  501  0.11875553197E+03 -0.14380300549E+02  0.35977557808E+02  0.12500457625E+03  0.47000000000E+01 0.  1.
         11    1    6    6    0    0  0.16893994558E+02 -0.40113702007E+02  0.22880171837E+02  0.49173350548E+02  0.00000000000E+00 0. -1.
        -12    1    6    6    0    0  0.66203685797E+02 -0.14852980338E+02  0.16289848755E+03  0.17646375346E+03  0.00000000000E+00 0.  1.
<mgrwt>
<rscale>  2 0.27329597E+03</rscale>
<asrwt>0</asrwt>
<pdfrwt beam="1">  1        1 0.98763491E-01 0.27329597E+03</pdfrwt>
<pdfrwt beam="2">  1       -1 0.18089420E-01 0.27329597E+03</pdfrwt>
<totfact> 0.76176842E+02</totfact>
</mgrwt>
</event>
<event>
12    1  0.4404304E-002  0.1827849E+03  0.7546771E-02  0.1165135E+00
          1   -1    0    0  502    0  0.00000000000E+00  0.00000000000E+00  0.39037530828E+03  0.39037530828E+03  0.00000000000E+00 0. -1.
         -1   -1    0    0    0  501 -0.00000000000E+00 -0.00000000000E+00 -0.86456049759E+02  0.86456049759E+02  0.00000000000E+00 0.  1.
          6    2    1    2  502    0 -0.59273724686E+02  0.15614736698E+02  0.12865643794E+03  0.22412796067E+03  0.17298459264E+03 0.  0.
         24    2    3    3    0    0 -0.10515365019E+03 -0.28893380737E+01  0.10399541331E+03  0.16865161902E+03  0.81010395536E+02 0.  0.
         -6    2    1    2    0  501  0.59273724686E+02 -0.15614736698E+02  0.17526282059E+03  0.25270339737E+03  0.17141982477E+03 0.  0.
        -24    2    5    5    0    0  0.79334585469E+02 -0.19153830733E+02  0.19359309644E+03  0.22489957866E+03  0.80253895906E+02 0.  0.
          5    1    3    3  502    0  0.45879925506E+02  0.18504074772E+02  0.24661024632E+02  0.55476341656E+02  0.47000000000E+01 0. -1.
        -11    1    4    4    0    0  0.33943598263E+01 -0.20841718895E+02  0.78153299594E+01  0.22516178795E+02  0.00000000000E+00 0.  1.
         12    1    4    4    0    0 -0.10854801002E+03  0.17952380822E+02  0.96180083347E+02  0.14613544022E+03  0.00000000000E+00 0. -1.
         -5    1    5    5    0  501 -0.20060860783E+02  0.35390940353E+01 -0.18330275856E+02  0.27803818711E+02  0.47000000000E+01 0.  1.
         13    1    6    6    0    0  0.64042471379E+02 -0.14420641342E+02  0.55734284474E+02  0.86114479055E+02  0.00000000000E+00 0. -1.
        -14    1    6    6    0    0  0.15292114090E+02 -0.47331893910E+01  0.13785881197E+03  0.13878509961E+03  0.00000000000E+00 0.  1.
<mgrwt>
<rscale>  2 0.18278490E+03</rscale>
<asrwt>0</asrwt>
<pdfrwt beam="1">  1        1 0.60057738E-01 0.18278490E+03</pdfrwt>
<pdfrwt beam="2">  1       -1 0.13300931E-01 0.18278490E+03</pdfrwt>
<totfact> 0.24003037E+03</totfact>
</mgrwt>
</event>
<event>
12    1  0.4404304E-002  0.1775039E+03  0.7546771E-02  0.1170241E+00
          2   -1    0    0  502    0  0.00000000000E+00  0.00000000000E+00  0.57004659554E+03  0.57004659554E+03  0.00000000000E+00 0.  1.
         -2   -1    0    0    0  501 -0.00000000000E+00 -0.00000000000E+00 -0.55534683971E+02  0.55534683971E+02  0.00000000000E+00 0. -1.
          6    2    1    2  502    0 -0.31495273984E+02  0.76199935857E+01  0.28454235529E+03  0.33850944281E+03  0.18048344615E+03 0.  0.
         24    2    3    3    0    0 -0.69859190299E+02  0.53340341561E+02  0.21987463240E+03  0.25038371060E+03  0.81373521822E+02 0.  0.
         -6    2    1    2    0  501  0.31495273984E+02 -0.76199935857E+01  0.22996955628E+03  0.28707183670E+03  0.16874307697E+03 0.  0.
        -24    2    5    5    0    0 -0.42287900383E+01  0.44814571764E+02  0.71780180505E+02  0.11656799216E+03  0.80059190453E+02 0.  0.
          5    1    3    3  502    0  0.38363916316E+02 -0.45720347975E+02  0.64667722885E+02  0.88125732208E+02  0.47000000000E+01 0. -1.
        -13    1    4    4    0    0 -0.25765374373E+02  0.63489415138E+01  0.16076391673E+03  0.16293925401E+03  0.00000000000E+00 0.  1.
         14    1    4    4    0    0 -0.44093815927E+02  0.46991400047E+02  0.59110715671E+02  0.87444456591E+02  0.00000000000E+00 0. -1.
         -5    1    5    5    0  501  0.35724064022E+02 -0.52434565350E+02  0.15818937577E+03  0.17050384453E+03  0.47000000000E+01 0.  1.
         11    1    6    6    0    0 -0.18501962052E+02 -0.90447956276E+01 -0.54809459638E+01  0.21311304427E+02  0.00000000000E+00 0. -1.
        -12    1    6    6    0    0  0.14273172014E+02  0.53859367392E+02  0.77261126468E+02  0.95256687736E+02  0.00000000000E+00 0.  1.
<mgrwt>
<rscale>  2 0.17750393E+03</rscale>
<asrwt>0</asrwt>
<pdfrwt beam="1">  1        2 0.87699472E-01 0.17750393E+03</pdfrwt>
<pdfrwt beam="2">  1       -2 0.85437979E-02 0.17750393E+03</pdfrwt>
<totfact> 0.44736212E+03</totfact>
</mgrwt>
</event>
<event>
12    1  0.4404304E-002  0.2460724E+03  0.7546771E-02  0.1115812E+00
          2   -1    0    0  502    0  0.00000000000E+00  0.00000000000E+00  0.12455207437E+04  0.12455207437E+04  0.00000000000E+00 0.  1.
         -2   -1    0    0    0  501 -0.00000000000E+00 -0.00000000000E+00 -0.71702059214E+02  0.71702059214E+02  0.00000000000E+00 0. -1.
          6    2    1    2  502    0 -0.13292547130E+03  0.11219543378E+03  0.21379827305E+03  0.32626011395E+03  0.17458225601E+03 0.  0.
         24    2    3    3    0    0 -0.12014879892E+03  0.11919165386E+03  0.23509560188E+03  0.30003309223E+03  0.78150688935E+02 0.  0.
         -6    2    1    2    0  501  0.13292547130E+03 -0.11219543378E+03  0.96002041141E+03  0.99096268894E+03  0.17352482318E+03 0.  0.
        -24    2    5    5    0    0  0.51211516451E+02 -0.13007456026E+03  0.65566356015E+03  0.67528561265E+03  0.81079861286E+02 0.  0.
          5    1    3    3  502    0 -0.12776672384E+02 -0.69962200737E+01 -0.21297328835E+02  0.26227021715E+02  0.47000000000E+01 0. -1.
        -11    1    4    4    0    0 -0.73333561232E+01 -0.11430366097E+02  0.13460644142E+02  0.19121200848E+02  0.00000000000E+00 0.  1.
         12    1    4    4    0    0 -0.11281544279E+03  0.13062201995E+03  0.22163495774E+03  0.28091189138E+03  0.00000000000E+00 0. -1.
         -5    1    5    5    0  501  0.81713954848E+02  0.17879126479E+02  0.30435685126E+03  0.31567707628E+03  0.47000000000E+01 0.  1.
         13    1    6    6    0    0 -0.21877823075E+02 -0.23837010954E+02  0.14866638939E+03  0.15214643462E+03  0.00000000000E+00 0. -1.
        -14    1    6    6    0    0  0.73089339527E+02 -0.10623754931E+03  0.50699717076E+03  0.52313917804E+03  0.00000000000E+00 0.  1.
<mgrwt>
<rscale>  2 0.24607241E+03</rscale>
<asrwt>0</asrwt>
<pdfrwt beam="1">  1        2 0.19161856E+00 0.24607241E+03</pdfrwt>
<pdfrwt beam="2">  1       -2 0.11031087E-01 0.24607241E+03</pdfrwt>
<totfact> 0.10700353E+03</totfact>
</mgrwt>
</event>
<event>
12    1  0.4404304E-002  0.1710075E+03  0.7546771E-02  0.1176801E+00
          2   -1    0    0  502    0  0.00000000000E+00  0.00000000000E+00  0.40290064040E+03  0.40290064040E+03  0.00000000000E+00 0.  1.
         -2   -1    0    0    0  501 -0.00000000000E+00 -0.00000000000E+00 -0.78614553718E+02  0.78614553718E+02  0.00000000000E+00 0. -1.
          6    2    1    2  502    0 -0.67313341580E+01  0.41218654795E+01  0.94021758115E+02  0.19368433815E+03  0.16914854777E+03 0.  0.
         24    2    3    3    0    0 -0.91645228225E+01  0.31255362523E+02  0.12569680382E+03  0.15164214995E+03  0.78324766110E+02 0.  0.
         -6    2    1    2    0  501  0.67313341580E+01 -0.41218654795E+01  0.23026432857E+03  0.28783085597E+03  0.17251852075E+03 0.  0.
        -24    2    5    5    0    0 -0.24848482628E+02 -0.29994587287E+02  0.51072182222E+02  0.10398690618E+03  0.81778887886E+02 0.  0.
          5    1    3    3  502    0  0.24331886645E+01 -0.27133497043E+02 -0.31675045702E+02  0.42042188205E+02  0.47000000000E+01 0. -1.
        -11    1    4    4    0    0 -0.37041715768E+01 -0.92385022793E+01  0.10567019764E+03  0.10613793611E+03  0.00000000000E+00 0.  1.
         12    1    4    4    0    0 -0.54603512457E+01  0.40493864802E+02  0.20026606173E+02  0.45504213839E+02  0.00000000000E+00 0. -1.
         -5    1    5    5    0  501  0.31579816786E+02  0.25872721807E+02  0.17919214635E+03  0.18384394979E+03  0.47000000000E+01 0.  1.
         13    1    6    6    0    0  0.45242519741E+01 -0.30451692171E+02  0.64664125357E+02  0.71618597586E+02  0.00000000000E+00 0. -1.
        -14    1    6    6    0    0 -0.29372734602E+02  0.45710488389E+00 -0.13591943135E+02  0.32368308591E+02  0.00000000000E+00 0.  1.
<mgrwt>
<rscale>  2 0.17100751E+03</rscale>
<asrwt>0</asrwt>
<pdfrwt beam="1">  1        2 0.61984713E-01 0.17100751E+03</pdfrwt>
<pdfrwt beam="2">  1       -2 0.12094547E-01 0.17100751E+03</pdfrwt>
<totfact> 0.37778296E+03</totfact>
</mgrwt>
</event>
<event>
12    1  0.4404304E-002  0.1813857E+03  0.7546771E-02  0.1166469E+00
          2   -1    0    0  502    0  0.00000000000E+00  0.00000000000E+00  0.14209175346E+03  0.14209175346E+03  0.00000000000E+00 0. -1.
         -2   -1    0    0    0  501 -0.00000000000E+00 -0.00000000000E+00 -0.33073766966E+03  0.33073766966E+03  0.00000000000E+00 0.  1.
          6    2    1    2  502    0  0.45434825694E+02 -0.15823405117E+02 -0.22393315655E+03  0.28842209789E+03  0.17528988680E+03 0.  0.
         24    2    3    3    0    0  0.20598133570E+02 -0.75303247511E+02 -0.10444816742E+03  0.15257856454E+03  0.79220808425E+02 0.  0.
         -6    2    1    2    0  501 -0.45434825694E+02  0.15823405117E+02  0.35287240342E+02  0.18440732523E+03  0.17448830543E+03 0.  0.
        -24    2    5    5    0    0  0.20197750547E+02  0.25072546420E+02  0.67952306422E+02  0.11036491697E+03  0.80785625193E+02 0.  0.
          5    1    3    3  502    0  0.24836692124E+02  0.59479842394E+02 -0.11948498912E+03  0.13584353335E+03  0.47000000000E+01 0. -1.
        -13    1    4    4    0    0 -0.23157234222E+01 -0.29776035384E+02 -0.96472844972E+02  0.10099002265E+03  0.00000000000E+00 0.  1.
         14    1    4    4    0    0  0.22913856993E+02 -0.45527212126E+02 -0.79753224524E+01  0.51588541892E+02  0.00000000000E+00 0. -1.
         -5    1    5    5    0  501 -0.65632576241E+02 -0.92491413032E+01 -0.32665066080E+02  0.74042408259E+02  0.47000000000E+01 0.  1.
         13    1    6    6    0    0  0.34195414362E+02  0.32757039278E+02  0.76292095156E+01  0.47964099318E+02  0.00000000000E+00 0. -1.
        -14    1    6    6    0    0 -0.13997663815E+02 -0.76844928576E+01  0.60323096906E+02  0.62400817648E+02  0.00000000000E+00 0.  1.
<mgrwt>
<rscale>  2 0.18138567E+03</rscale>
<asrwt>0</asrwt>
<pdfrwt beam="1">  1        2 0.21860270E-01 0.18138567E+03</pdfrwt>
<pdfrwt beam="2">  1       -2 0.50882718E-01 0.18138567E+03</pdfrwt>
<totfact> 0.92223480E+02</totfact>
</mgrwt>
</event>
<event>
12    1  0.4404304E-002  0.1943459E+03  0.7546771E-02  0.1154599E+00
          2   -1    0    0  502    0  0.00000000000E+00  0.00000000000E+00  0.57347455257E+03  0.57347455257E+03  0.00000000000E+00 0.  1.
         -2   -1    0    0    0  501 -0.00000000000E+00 -0.00000000000E+00 -0.11051265487E+03  0.11051265487E+03  0.00000000000E+00 0. -1.
          6    2    1    2  502    0 -0.49968752376E+02  0.74513060680E+02  0.44897469760E+03  0.48929507388E+03  0.17257554232E+03 0.  0.
         24    2    3    3    0    0 -0.67467360210E+02  0.98861482397E+02  0.25488395436E+03  0.29284570756E+03  0.80419778957E+02 0.  0.
         -6    2    1    2    0  501  0.49968752376E+02 -0.74513060680E+02  0.13987200094E+02  0.19469213356E+03  0.17222169630E+03 0.  0.
        -24    2    5    5    0    0  0.28712102172E+02 -0.11812962037E+03  0.11696141745E+02  0.14589061304E+03  0.79801498859E+02 0.  0.
          5    1    3    3  502    0  0.17498607834E+02 -0.24348421717E+02  0.19409074324E+03  0.19644936632E+03  0.47000000000E+01 0. -1.
        -13    1    4    4    0    0 -0.45367931051E+02  0.26681090862E+02  0.17583353308E+03  0.18354171496E+03  0.00000000000E+00 0.  1.
         14    1    4    4    0    0 -0.22099429159E+02  0.72180391535E+02  0.79050421284E+02  0.10930399259E+03  0.00000000000E+00 0. -1.
         -5    1    5    5    0  501  0.21256650204E+02  0.43616559690E+02  0.22910583495E+01  0.48801520524E+02  0.47000000000E+01 0.  1.
         11    1    6    6    0    0  0.13148475074E+02  0.95708897303E+01 -0.25390508047E+01  0.16459984993E+02  0.00000000000E+00 0. -1.
        -12    1    6    6    0    0  0.15563627098E+02 -0.12770051010E+03  0.14235192550E+02  0.12943062804E+03  0.00000000000E+00 0.  1.
<mgrwt>
<rscale>  2 0.19434592E+03</rscale>
<asrwt>0</asrwt>
<pdfrwt beam="1">  1        2 0.88226852E-01 0.19434592E+03</pdfrwt>
<pdfrwt beam="2">  1       -2 0.17001947E-01 0.19434592E+03</pdfrwt>
<totfact> 0.14694759E+03</totfact>
</mgrwt>
</event>
<event>
12    1  0.4404304E-002  0.2011442E+03  0.7546771E-02  0.1148777E+00
         -1   -1    0    0    0  501 -0.00000000000E+00  0.00000000000E+00  0.30013747787E+03  0.30013747787E+03  0.00000000000E+00 0.  1.
          1   -1    0    0  502    0  0.00000000000E+00 -0.00000000000E+00 -0.20463596863E+03  0.20463596863E+03  0.00000000000E+00 0. -1.
          6    2    1    2  502    0  0.42697450289E+02  0.95004914095E+02 -0.99755216659E+02  0.22412946268E+03  0.17156312782E+03 0.  0.
         24    2    3    3    0    0  0.38942165390E+02  0.27161649915E+02  0.11053929342E+02  0.94061912935E+02  0.80443810451E+02 0.  0.
         -6    2    1    2    0  501 -0.42697450289E+02 -0.95004914095E+02  0.19525672589E+03  0.28064398382E+03  0.17258867484E+03 0.  0.
        -24    2    5    5    0    0 -0.43313082287E+02 -0.16485549211E+02  0.30987990126E+02  0.98512225976E+02  0.81219497073E+02 0.  0.
          5    1    3    3  502    0  0.37552848987E+01  0.67843264180E+02 -0.11080914600E+03  0.13006754975E+03  0.47000000000E+01 0. -1.
        -13    1    4    4    0    0  0.93618281064E+01  0.28736906917E+02  0.41659901649E+02  0.51468447130E+02  0.00000000000E+00 0.  1.
         14    1    4    4    0    0  0.29580337284E+02 -0.15752570021E+01 -0.30605972307E+02  0.42593465805E+02  0.00000000000E+00 0. -1.
         -5    1    5    5    0  501  0.61563199796E+00 -0.78519364884E+02  0.16426873577E+03  0.18213175784E+03  0.47000000000E+01 0.  1.
         11    1    6    6    0    0 -0.53536037816E+02 -0.38005901441E+02  0.34921815073E+02  0.74364568562E+02  0.00000000000E+00 0. -1.
        -12    1    6    6    0    0  0.10222955529E+02  0.21520352231E+02 -0.39338249473E+01  0.24147657414E+02  0.00000000000E+00 0.  1.
<mgrwt>
<rscale>  2 0.20114423E+03</rscale>
<asrwt>0</asrwt>
<pdfrwt beam="2">  1        1 0.31482457E-01 0.20114423E+03</pdfrwt>
<pdfrwt beam="1">  1       -1 0.46174997E-01 0.20114423E+03</pdfrwt>
<totfact> 0.67921689E+02</totfact>
</mgrwt>
</event>
<event>
12    1  0.4404304E-002  0.1772610E+03  0.7546771E-02  0.1170481E+00
         -2   -1    0    0    0  501 -0.00000000000E+00  0.00000000000E+00  0.14979370441E+03  0.14979370441E+03  0.00000000000E+00 0. -1.
          2   -1    0    0  502    0  0.00000000000E+00 -0.00000000000E+00 -0.21684515757E+03  0.21684515757E+03  0.00000000000E+00 0.  1.
          6    2    1    2  502    0  0.30122034744E+02  0.36174991942E+02 -0.66397722204E-01  0.17498911168E+03  0.16853847566E+03 0.  0.
         24    2    3    3    0    0  0.63872126376E+02 -0.32208723987E+01 -0.39270731299E+02  0.10979576398E+03  0.80142977889E+02 0.  0.
         -6    2    1    2    0  501 -0.30122034744E+02 -0.36174991942E+02 -0.66985055433E+02  0.19164975031E+03  0.17328203058E+03 0.  0.
        -24    2    5    5    0    0  0.21454967180E+02 -0.17726142780E+02  0.20083634358E+02  0.88675996834E+02  0.81765202200E+02 0.  0.
          5    1    3    3  502    0 -0.33750091632E+02  0.39395864340E+02  0.39204333577E+02  0.65193347693E+02  0.47000000000E+01 0. -1.
        -11    1    4    4    0    0 -0.21946342255E+01 -0.30621225672E+02 -0.79320716512E+01  0.31707942881E+02  0.00000000000E+00 0.  1.
         12    1    4    4    0    0  0.66066760601E+02  0.27400353274E+02 -0.31338659648E+02  0.78087821101E+02  0.00000000000E+00 0. -1.
         -5    1    5    5    0  501 -0.51577001923E+02 -0.18448849162E+02 -0.87068689791E+02  0.10297375347E+03  0.47000000000E+01 0.  1.
         13    1    6    6    0    0  0.14441437376E+02 -0.49303029447E+02  0.22818635365E+02  0.56214179226E+02  0.00000000000E+00 0. -1.
        -14    1    6    6    0    0  0.70135298040E+01  0.31576886667E+02 -0.27350010067E+01  0.32461817608E+02  0.00000000000E+00 0.  1.
<mgrwt>
<rscale>  2 0.17726097E+03</rscale>
<asrwt>0</asrwt>
<pdfrwt beam="2">  1        2 0.33360793E-01 0.17726097E+03</pdfrwt>
<pdfrwt beam="1">  1       -2 0.23045185E-01 0.17726097E+03</pdfrwt>
<totfact> 0.25116637E+03</totfact>
</mgrwt>
</event>
<event>
12    1  0.4404304E-002  0.1899279E+03  0.7546771E-02  0.1158526E+00
         -2   -1    0    0    0  501 -0.00000000000E+00  0.00000000000E+00  0.28047375311E+02  0.28047375311E+02  0.00000000000E+00 0.  1.
          2   -1    0    0  502    0  0.00000000000E+00 -0.00000000000E+00 -0.21250092666E+04  0.21250092666E+04  0.00000000000E+00 0. -1.
          6    2    1    2  502    0 -0.77368029172E+02  0.26138053910E+02 -0.17231563114E+04  0.17335359661E+04  0.17091010094E+03 0.  0.
         24    2    3    3    0    0 -0.10308161812E+03 -0.19961682861E+02 -0.12043655285E+04  0.12120454669E+04  0.86796306389E+02 0.  0.
         -6    2    1    2    0  501  0.77368029172E+02 -0.26138053910E+02 -0.37380557986E+03  0.41952067574E+03  0.17204062321E+03 0.  0.
        -24    2    5    5    0    0  0.90261762865E+02 -0.28623038283E+01 -0.14144838597E+03  0.18559768742E+03  0.79268386282E+02 0.  0.
          5    1    3    3  502    0  0.25713588952E+02  0.46099736770E+02 -0.51879078284E+03  0.52149049919E+03  0.47000000000E+01 0. -1.
        -11    1    4    4    0    0 -0.62817431913E+02  0.57323190628E+01 -0.30718956076E+03  0.31359897238E+03  0.00000000000E+00 0.  1.
         12    1    4    4    0    0 -0.40264186211E+02 -0.25694001923E+02 -0.89717596777E+03  0.89844649455E+03  0.00000000000E+00 0. -1.
         -5    1    5    5    0  501 -0.12893733693E+02 -0.23275750081E+02 -0.23235719389E+03  0.23392298832E+03  0.47000000000E+01 0.  1.
         11    1    6    6    0    0  0.50411957687E+02  0.20388212625E+02 -0.12551296498E+03  0.13678650909E+03  0.00000000000E+00 0. -1.
        -12    1    6    6    0    0  0.39849805178E+02 -0.23250516453E+02 -0.15935420999E+02  0.48811178335E+02  0.00000000000E+00 0.  1.
<mgrwt>
<rscale>  2 0.18992790E+03</rscale>
<asrwt>0</asrwt>
<pdfrwt beam="2">  1        2 0.32692470E+00 0.18992790E+03</pdfrwt>
<pdfrwt beam="1">  1       -2 0.43149783E-02 0.18992790E+03</pdfrwt>
<totfact> 0.15763579E+03</totfact>
</mgrwt>
</event>
<event>
12    1  0.4404304E-002  0.2097615E+03  0.7546771E-02  0.1141755E+00
         -1   -1    0    0    0  501 -0.00000000000E+00  0.00000000000E+00  0.26983667070E+03  0.26983667070E+03  0.00000000000E+00 0. -1.
          1   -1    0    0  502    0  0.00000000000E+00 -0.00000000000E+00 -0.16566370539E+03  0.16566370539E+03  0.00000000000E+00 0.  1.
          6    2    1    2  502    0  0.68048540145E+02 -0.97291266033E+02  0.24692840876E+02  0.21078460749E+03  0.17240713472E+03 0.  0.
         24    2    3    3    0    0 -0.35363885866E+02 -0.36281764121E+02  0.20796426345E+01  0.88515494827E+02  0.72551340993E+02 0.  0.
         -6    2    1    2    0  501 -0.68048540145E+02  0.97291266033E+02  0.79480124435E+02  0.22471576860E+03  0.17344708765E+03 0.  0.
        -24    2    5    5    0    0  0.14253036100E+02  0.24320876589E+02 -0.64012551478E+01  0.85087947060E+02  0.80027049123E+02 0.  0.
          5    1    3    3  502    0  0.10341242601E+03 -0.61009501912E+02  0.22613198241E+02  0.12226911266E+03  0.47000000000E+01 0. -1.
        -13    1    4    4    0    0 -0.19433442314E+01 -0.47967051538E+02 -0.13449779326E+02  0.49854901304E+02  0.00000000000E+00 0.  1.
         14    1    4    4    0    0 -0.33420541634E+02  0.11685287418E+02  0.15529421960E+02  0.38660593524E+02  0.00000000000E+00 0. -1.
         -5    1    5    5    0  501 -0.82301576245E+02  0.72970389444E+02  0.85881379583E+02  0.13962782154E+03  0.47000000000E+01 0.  1.
         13    1    6    6    0    0  0.30989816556E+01  0.12310001611E+02  0.36775409259E+02  0.38904634083E+02  0.00000000000E+00 0. -1.
        -14    1    6    6    0    0  0.11154054444E+02  0.12010874978E+02 -0.43176664407E+02  0.46183312977E+02  0.00000000000E+00 0.  1.
<mgrwt>
<rscale>  2 0.20976149E+03</rscale>
<asrwt>0</asrwt>
<pdfrwt beam="2">  1        1 0.25486724E-01 0.20976149E+03</pdfrwt>
<pdfrwt beam="1">  1       -1 0.41513334E-01 0.20976149E+03</pdfrwt>
<totfact> 0.10743097E+03</totfact>
</mgrwt>
</event>
<event>
12    1  0.4404304E-002  0.1855718E+03  0.7546771E-02  0.1162517E+00
          1   -1    0    0  502    0  0.00000000000E+00  0.00000000000E+00  0.12187606299E+03  0.12187606299E+03  0.00000000000E+00 0. -1.
         -1   -1    0    0    0  501 -0.00000000000E+00 -0.00000000000E+00 -0.35106475507E+03  0.35106475507E+03  0.00000000000E+00 0.  1.
          6    2    1    2  502    0  0.32846066923E+02 -0.58827199373E+02 -0.10042095377E+02  0.18565936748E+03  0.17271089588E+03 0.  0.
         24    2    3    3    0    0 -0.22731723056E+01 -0.41972668801E+02 -0.66902560646E+02  0.11657508073E+03  0.85714202955E+02 0.  0.
         -6    2    1    2    0  501 -0.32846066923E+02  0.58827199373E+02 -0.21914659670E+03  0.28728145058E+03  0.17310660734E+03 0.  0.
        -24    2    5    5    0    0 -0.82415161709E+02  0.70384165938E+02 -0.16273084620E+03  0.21115336419E+03  0.79738480096E+02 0.  0.
          5    1    3    3  502    0  0.35119239228E+02 -0.16854530572E+02  0.56860465269E+02  0.69084286747E+02  0.47000000000E+01 0. -1.
        -13    1    4    4    0    0 -0.33963980541E+02 -0.25044430430E+02 -0.18254931572E+01  0.42238701389E+02  0.00000000000E+00 0.  1.
         14    1    4    4    0    0  0.31690808235E+02 -0.16928238370E+02 -0.65077067489E+02  0.74336379344E+02  0.00000000000E+00 0. -1.
         -5    1    5    5    0  501  0.49569094787E+02 -0.11556966565E+02 -0.56415750496E+02  0.76128086395E+02  0.47000000000E+01 0.  1.
         11    1    6    6    0    0 -0.36736791362E+02  0.78812740619E+02 -0.92521102171E+02  0.12696926506E+03  0.00000000000E+00 0. -1.
        -12    1    6    6    0    0 -0.45678370348E+02 -0.84285746816E+01 -0.70209744029E+02  0.84184099125E+02  0.00000000000E+00 0.  1.
<mgrwt>
<rscale>  2 0.18557185E+03</rscale>
<asrwt>0</asrwt>
<pdfrwt beam="1">  1        1 0.18750164E-01 0.18557185E+03</pdfrwt>
<pdfrwt beam="2">  1       -1 0.54009962E-01 0.18557185E+03</pdfrwt>
<totfact> 0.98225760E+02</totfact>
</mgrwt>
</event>
<event>
12    1  0.4404304E-002  0.2178193E+03  0.7546771E-02  0.1135519E+00
         -2   -1    0    0    0  501 -0.00000000000E+00  0.00000000000E+00  0.52524207116E+02  0.52524207116E+02  0.00000000000E+00 0.  1.
          2   -1    0    0  502    0  0.00000000000E+00 -0.00000000000E+00 -0.11844057901E+04  0.11844057901E+04  0.00000000000E+00 0. -1.
          6    2    1    2  502    0 -0.12313197625E+03  0.49239188350E+02 -0.86511632494E+03  0.89185766263E+03  0.17145802249E+03 0.  0.
         24    2    3    3    0    0 -0.78836930489E+02  0.33690608120E+02 -0.26323454593E+03  0.28812959857E+03  0.79849362681E+02 0.  0.
         -6    2    1    2    0  501  0.12313197625E+03 -0.49239188350E+02 -0.26676525803E+03  0.34507233457E+03  0.17414141365E+03 0.  0.
        -24    2    5    5    0    0  0.10194125868E+03 -0.10030669176E+03 -0.20310901705E+03  0.26062623678E+03  0.78862601132E+02 0.  0.
          5    1    3    3  502    0 -0.44295045761E+02  0.15548580230E+02 -0.60188177901E+03  0.60372806406E+03  0.47000000000E+01 0. -1.
        -13    1    4    4    0    0 -0.65038228220E+01  0.40931141254E+02 -0.66095030597E+02  0.78014172464E+02  0.00000000000E+00 0.  1.
         14    1    4    4    0    0 -0.72333107667E+02 -0.72405331336E+01 -0.19713951533E+03  0.21011542611E+03  0.00000000000E+00 0. -1.
         -5    1    5    5    0  501  0.21190717569E+02  0.51067503413E+02 -0.63656240983E+02  0.84446097791E+02  0.47000000000E+01 0.  1.
         13    1    6    6    0    0  0.17822492451E+01  0.69270838198E+01  0.28864389315E+01  0.77131337551E+01  0.00000000000E+00 0. -1.
        -14    1    6    6    0    0  0.10015900943E+03 -0.10723377558E+03 -0.20599545598E+03  0.25291310302E+03  0.00000000000E+00 0.  1.
<mgrwt>
<rscale>  2 0.21781932E+03</rscale>
<asrwt>0</asrwt>
<pdfrwt beam="2">  1        2 0.18221627E+00 0.21781932E+03</pdfrwt>
<pdfrwt beam="1">  1       -2 0.80806474E-02 0.21781932E+03</pdfrwt>
<totfact> 0.18978449E+03</totfact>
</mgrwt>
</event>
<event>
12    1  0.4404304E-002  0.1870799E+03  0.7546771E-02  0.1161122E+00
          1   -1    0    0  502    0  0.00000000000E+00  0.00000000000E+00  0.13204310428E+04  0.13204310428E+04  0.00000000000E+00 0. -1.
         -1   -1    0    0    0  501 -0.00000000000E+00 -0.00000000000E+00 -0.27678762087E+02  0.27678762087E+02  0.00000000000E+00 0.  1.
          6    2    1    2  502    0 -0.27459225358E+02  0.61020506407E+02  0.51085148520E+03  0.54436372438E+03  0.17574160927E+03 0.  0.
         24    2    3    3    0    0 -0.84233887864E+02  0.36981019681E+02  0.29034786938E+03  0.31535456776E+03  0.81753742872E+02 0.  0.
         -6    2    1    2    0  501  0.27459225358E+02 -0.61020506407E+02  0.78190079554E+03  0.80374608053E+03  0.17367036779E+03 0.  0.
        -24    2    5    5    0    0 -0.18480514897E+02 -0.36395769449E+02  0.70880091849E+03  0.71384324727E+03  0.74210903186E+02 0.  0.
          5    1    3    3  502    0  0.56774662506E+02  0.24039486726E+02  0.22050361582E+03  0.22900915662E+03  0.47000000000E+01 0. -1.
        -13    1    4    4    0    0 -0.15669258337E+02 -0.67848128368E+01  0.38104333070E+01  0.17495106288E+02  0.00000000000E+00 0.  1.
         14    1    4    4    0    0 -0.68564629527E+02  0.43765832518E+02  0.28653743607E+03  0.29785946147E+03  0.00000000000E+00 0. -1.
         -5    1    5    5    0  501  0.45939740254E+02 -0.24624736958E+02  0.73099877050E+02  0.89902833268E+02  0.47000000000E+01 0.  1.
         11    1    6    6    0    0  0.25052477627E+02 -0.30717136413E+02  0.27809854075E+03  0.28090918012E+03  0.00000000000E+00 0. -1.
        -12    1    6    6    0    0 -0.43532992524E+02 -0.56786330360E+01  0.43070237774E+03  0.43293406715E+03  0.00000000000E+00 0.  1.
<mgrwt>
<rscale>  2 0.18707992E+03</rscale>
<asrwt>0</asrwt>
<pdfrwt beam="1">  1        1 0.20314319E+00 0.18707992E+03</pdfrwt>
<pdfrwt beam="2">  1       -1 0.42582721E-02 0.18707992E+03</pdfrwt>
<totfact> 0.21134394E+03</totfact>
</mgrwt>
</event>
<event>
12    1  0.4404304E-002  0.1745225E+03  0.7546771E-02  0.1173212E+00
         -2   -1    0    0    0  501 -0.00000000000E+00  0.00000000000E+00  0.50798413103E+02  0.50798413103E+02  0.00000000000E+00 0. -1.
          2   -1    0    0  502    0  0.00000000000E+00 -0.00000000000E+00 -0.78031308475E+03  0.78031308475E+03  0.00000000000E+00 0.  1.
          6    2    1    2  502    0  0.33748066511E+01 -0.24415176024E+02 -0.56436357867E+03  0.59066204921E+03  0.17253381497E+03 0.  0.
         24    2    3    3    0    0 -0.59195939580E+02 -0.37643520071E+02 -0.40141240170E+03  0.41554704858E+03  0.81401716681E+02 0.  0.
         -6    2    1    2    0  501 -0.33748066511E+01  0.24415176024E+02 -0.16515109298E+03  0.24044944864E+03  0.17301318938E+03 0.  0.
        -24    2    5    5    0    0  0.32778897381E+02  0.49852964746E+02 -0.40169441073E+02  0.10779699023E+03  0.80292172089E+02 0.  0.
          5    1    3    3  502    0  0.62570746231E+02  0.13228344046E+02 -0.16295117697E+03  0.17511500063E+03  0.47000000000E+01 0. -1.
        -13    1    4    4    0    0  0.82832728203E+01  0.80388470330E+01 -0.16655254013E+03  0.16695204189E+03  0.00000000000E+00 0.  1.
         14    1    4    4    0    0 -0.67479212400E+02 -0.45682367103E+02 -0.23485986157E+03  0.24859500668E+03  0.00000000000E+00 0. -1.
         -5    1    5    5    0  501 -0.36153704033E+02 -0.25437788722E+02 -0.12498165190E+03  0.13265245841E+03  0.47000000000E+01 0.  1.
         13    1    6    6    0    0 -0.93088803744E+01  0.56147884261E+02 -0.28601497224E+02  0.63696827270E+02  0.00000000000E+00 0. -1.
        -14    1    6    6    0    0  0.42087777756E+02 -0.62949195144E+01 -0.11567943849E+02  0.44100162959E+02  0.00000000000E+00 0.  1.
<mgrwt>
<rscale>  2 0.17452254E+03</rscale>
<asrwt>0</asrwt>
<pdfrwt beam="2">  1        2 0.12004816E+00 0.17452254E+03</pdfrwt>
<pdfrwt beam="1">  1       -2 0.78151409E-02 0.17452254E+03</pdfrwt>
<totfact> 0.35403668E+03</totfact>
</mgrwt>
</event>
<event>
12    1  0.4404304E-002  0.2423618E+03  0.7546771E-02  0.1118229E+00
          2   -1    0    0  502    0  0.00000000000E+00  0.00000000000E+00  0.43803899812E+03  0.43803899812E+03  0.00000000000E+00 0. -1.
         -2   -1    0    0    0  501 -0.00000000000E+00 -0.00000000000E+00 -0.13663174248E+03  0.13663174248E+03  0.00000000000E+00 0.  1.
          6    2    1    2  502    0 -0.11679846208E+03 -0.12375018798E+03  0.11142325206E+03  0.26654424131E+03  0.17226346597E+03 0.  0.
         24    2    3    3    0    0 -0.11063825864E+03 -0.27597533315E+02  0.88644572214E+02  0.16742694029E+03  0.84684544237E+02 0.  0.
         -6    2    1    2    0  501  0.11679846208E+03  0.12375018798E+03  0.18998400358E+03  0.30812649929E+03  0.17289311200E+03 0.  0.
        -24    2    5    5    0    0  0.12244360151E+03  0.33579365573E+02  0.12570522060E+03  0.19714678603E+03  0.83336927055E+02 0.  0.
          5    1    3    3  502    0 -0.61602034384E+01 -0.96152654670E+02  0.22778679841E+02  0.99117301022E+02  0.47000000000E+01 0. -1.
        -13    1    4    4    0    0  0.29869407209E+01  0.18972885431E+02  0.10830124450E+02  0.22049575779E+02  0.00000000000E+00 0.  1.
         14    1    4    4    0    0 -0.11362519936E+03 -0.46570418745E+02  0.77814447764E+02  0.14537736451E+03  0.00000000000E+00 0. -1.
         -5    1    5    5    0  501 -0.56451394352E+01  0.90170822412E+02  0.64278782982E+02  0.11097971326E+03  0.47000000000E+01 0.  1.
         13    1    6    6    0    0  0.25170520684E+02  0.37216367463E+02  0.74907413264E+02  0.87348346754E+02  0.00000000000E+00 0. -1.
        -14    1    6    6    0    0  0.97273080830E+02 -0.36370018904E+01  0.50797807336E+02  0.10979843927E+03  0.00000000000E+00 0.  1.
<mgrwt>
<rscale>  2 0.24236182E+03</rscale>
<asrwt>0</asrwt>
<pdfrwt beam="1">  1        2 0.67390614E-01 0.24236182E+03</pdfrwt>
<pdfrwt beam="2">  1       -2 0.21020268E-01 0.24236182E+03</pdfrwt>
<totfact> 0.13900456E+03</totfact>
</mgrwt>
</event>
<event>
12    1  0.4404304E-002  0.1843586E+03  0.7546771E-02  0.1163650E+00
          3   -1    0    0  502    0  0.00000000000E+00  0.00000000000E+00  0.22933730437E+03  0.22933730437E+03  0.00000000000E+00 0. -1.
         -3   -1    0    0    0  501 -0.00000000000E+00 -0.00000000000E+00 -0.18586468102E+03  0.18586468102E+03  0.00000000000E+00 0.  1.
          6    2    1    2  502    0 -0.55729200260E+02 -0.35835966983E+02 -0.71624193622E+02  0.19864160336E+03  0.17302745788E+03 0.  0.
         24    2    3    3    0    0  0.14686961256E+02  0.91502781530E+01 -0.84088953598E+02  0.11402683931E+03  0.75044876866E+02 0.  0.
         -6    2    1    2    0  501  0.55729200260E+02  0.35835966983E+02  0.11509681697E+03  0.21656038203E+03  0.17105894159E+03 0.  0.
        -24    2    5    5    0    0  0.72445499615E+02 -0.29082325727E+02  0.85479726873E+02  0.14312277982E+03  0.84161834065E+02 0.  0.
          5    1    3    3  502    0 -0.70416161515E+02 -0.44986245136E+02  0.12464759976E+02  0.84614764050E+02  0.47000000000E+01 0. -1.
        -11    1    4    4    0    0  0.19624939679E+02  0.28183957114E+02 -0.77647613038E+01  0.35210299830E+02  0.00000000000E+00 0.  1.
         12    1    4    4    0    0 -0.49379784233E+01 -0.19033678961E+02 -0.76324192295E+02  0.78816539477E+02  0.00000000000E+00 0. -1.
         -5    1    5    5    0  501 -0.16716299355E+02  0.64918292710E+02  0.29617090100E+02  0.73437602211E+02  0.47000000000E+01 0.  1.
         11    1    6    6    0    0 -0.95743728734E+01  0.16806849282E+02  0.66441393579E+01  0.20451977570E+02  0.00000000000E+00 0. -1.
        -12    1    6    6    0    0  0.82019872489E+02 -0.45889175009E+02  0.78835587515E+02  0.12267080225E+03  0.00000000000E+00 0.  1.
<mgrwt>
<rscale>  2 0.18435863E+03</rscale>
<asrwt>0</asrwt>
<pdfrwt beam="1">  1        3 0.35282662E-01 0.18435863E+03</pdfrwt>
<pdfrwt beam="2">  1       -3 0.28594566E-01 0.18435863E+03</pdfrwt>
<totfact> 0.22469298E+02</totfact>
</mgrwt>
</event>
<event>
12    1  0.4404304E-002  0.1870658E+03  0.7546771E-02  0.1161135E+00
         -1   -1    0    0    0  501 -0.00000000000E+00  0.00000000000E+00  0.18756636890E+03  0.18756636890E+03  0.00000000000E+00 0.  1.
          1   -1    0    0  502    0  0.00000000000E+00 -0.00000000000E+00 -0.54071883844E+03  0.54071883844E+03  0.00000000000E+00 0. -1.
          6    2    1    2  502    0 -0.72945254687E+02  0.32160991201E+00  0.11800713942E+03  0.22148023532E+03  0.17264615857E+03 0.  0.
         24    2    3    3    0    0 -0.11064586291E+03  0.34071268174E+02  0.72614568652E+02  0.15334103387E+03  0.69550260927E+02 0.  0.
         -6    2    1    2    0  501  0.72945254687E+02 -0.32160991201E+00 -0.47115960896E+03  0.50680497201E+03  0.17186852221E+03 0.  0.
        -24    2    5    5    0    0  0.53002396472E+02 -0.64327236913E+02 -0.33813050978E+03  0.35776380618E+03  0.81947861070E+02 0.  0.
          5    1    3    3  502    0  0.37700608223E+02 -0.33749658262E+02  0.45392570768E+02  0.68139201449E+02  0.47000000000E+01 0. -1.
        -13    1    4    4    0    0 -0.34582001222E+02  0.44656732615E+02  0.43181885224E+02  0.71097213644E+02  0.00000000000E+00 0.  1.
         14    1    4    4    0    0 -0.76063861688E+02 -0.10585464442E+02  0.29432683428E+02  0.82243820231E+02  0.00000000000E+00 0. -1.
         -5    1    5    5    0  501  0.19942858215E+02  0.64005627001E+02 -0.13302909919E+03  0.14904116583E+03  0.47000000000E+01 0.  1.
         13    1    6    6    0    0  0.44438368525E+02 -0.18218028944E+02 -0.27476608515E+03  0.27893201093E+03  0.00000000000E+00 0. -1.
        -14    1    6    6    0    0  0.85640279472E+01 -0.46109207969E+02 -0.63364424631E+02  0.78831795254E+02  0.00000000000E+00 0.  1.
<mgrwt>
<rscale>  2 0.18706576E+03</rscale>
<asrwt>0</asrwt>
<pdfrwt beam="2">  1        1 0.83187513E-01 0.18706576E+03</pdfrwt>
<pdfrwt beam="1">  1       -1 0.28856365E-01 0.18706576E+03</pdfrwt>
<totfact> 0.44883244E+02</totfact>
</mgrwt>
</event>
<event>
12    1  0.4404304E-002  0.1759106E+03  0.7546771E-02  0.1171820E+00
         -2   -1    0    0    0  501 -0.00000000000E+00  0.00000000000E+00  0.28267912614E+03  0.28267912614E+03  0.00000000000E+00 0. -1.
          2   -1    0    0  502    0  0.00000000000E+00 -0.00000000000E+00 -0.12136017747E+03  0.12136017747E+03  0.00000000000E+00 0.  1.
          6    2    1    2  502    0 -0.10169256217E+02  0.27409516942E+02  0.17287429247E+02  0.17643073920E+03  0.17313074578E+03 0.  0.
         24    2    3    3    0    0 -0.29373973181E+02  0.65406334956E+02  0.54237036303E+02  0.11986270234E+03  0.79275420856E+02 0.  0.
         -6    2    1    2    0  501  0.10169256217E+02 -0.27409516942E+02  0.14403151943E+03  0.22760856442E+03  0.17379840223E+03 0.  0.
        -24    2    5    5    0    0 -0.17514963830E+02  0.38520643466E+02  0.12022087449E+03  0.15209539402E+03  0.83002025807E+02 0.  0.
          5    1    3    3  502    0  0.19204716964E+02 -0.37996818013E+02 -0.36949607056E+02  0.56568036862E+02  0.47000000000E+01 0. -1.
        -13    1    4    4    0    0 -0.21578278667E+01  0.77124449837E+02  0.36802273258E+02  0.85482421004E+02  0.00000000000E+00 0.  1.
         14    1    4    4    0    0 -0.27216145315E+02 -0.11718114881E+02  0.17434763044E+02  0.34380281333E+02  0.00000000000E+00 0. -1.
         -5    1    5    5    0  501  0.27684220047E+02 -0.65930160409E+02  0.23810644939E+02  0.75513170398E+02  0.47000000000E+01 0.  1.
         13    1    6    6    0    0  0.15248120530E+02  0.51747620115E+02  0.92917309517E+02  0.10744276511E+03  0.00000000000E+00 0. -1.
        -14    1    6    6    0    0 -0.32763084360E+02 -0.13226976649E+02  0.27303564970E+02  0.44652628905E+02  0.00000000000E+00 0.  1.
<mgrwt>
<rscale>  2 0.17591063E+03</rscale>
<asrwt>0</asrwt>
<pdfrwt beam="2">  1        2 0.18670797E-01 0.17591063E+03</pdfrwt>
<pdfrwt beam="1">  1       -2 0.43489096E-01 0.17591063E+03</pdfrwt>
<totfact> 0.15007718E+03</totfact>
</mgrwt>
</event>
<event>
12    1  0.4404304E-002  0.2239423E+03  0.7546771E-02  0.1130978E+00
          2   -1    0    0  502    0  0.00000000000E+00  0.00000000000E+00  0.22695444064E+04  0.22695444064E+04  0.00000000000E+00 0. -1.
         -2   -1    0    0    0  501 -0.00000000000E+00 -0.00000000000E+00 -0.24471399296E+02  0.24471399296E+02  0.00000000000E+00 0.  1.
          6    2    1    2  502    0 -0.11694392378E+03 -0.81310865642E+02  0.77295604813E+03  0.80521360837E+03  0.17498732693E+03 0.  0.
         24    2    3    3    0    0 -0.12994834033E+03 -0.28931395282E+02  0.68031604079E+03  0.69789639295E+03  0.80658931046E+02 0.  0.
         -6    2    1    2    0  501  0.11694392378E+03  0.81310865642E+02  0.14721169590E+04  0.14888021973E+04  0.17063500133E+03 0.  0.
        -24    2    5    5    0    0  0.40758345383E+02  0.70762728818E+02  0.12147533174E+04  0.12201506766E+04  0.80457722671E+02 0.  0.
          5    1    3    3  502    0  0.13004416544E+02 -0.52379470359E+02  0.92640007342E+02  0.10731721542E+03  0.47000000000E+01 0. -1.
        -11    1    4    4    0    0 -0.44538176167E+02 -0.39160703853E+02  0.16249905703E+03  0.17298310148E+03  0.00000000000E+00 0.  1.
         12    1    4    4    0    0 -0.85410164159E+02  0.10229308570E+02  0.51781698376E+03  0.52491329148E+03  0.00000000000E+00 0. -1.
         -5    1    5    5    0  501  0.76185578398E+02  0.10548136824E+02  0.25736364162E+03  0.26865152070E+03  0.47000000000E+01 0.  1.
         11    1    6    6    0    0  0.40041597975E+02  0.47321073829E+01  0.70288039798E+03  0.70403591973E+03  0.00000000000E+00 0. -1.
        -12    1    6    6    0    0  0.71674740783E+00  0.66030621435E+02  0.51187291939E+03  0.51611475690E+03  0.00000000000E+00 0.  1.
<mgrwt>
<rscale>  2 0.22394225E+03</rscale>
<asrwt>0</asrwt>
<pdfrwt beam="1">  1        2 0.34916051E+00 0.22394225E+03</pdfrwt>
<pdfrwt beam="2">  1       -2 0.37648324E-02 0.22394225E+03</pdfrwt>
<totfact> 0.16173605E+03</totfact>
</mgrwt>
</event>
<event>
12    1  0.4404304E-002  0.1898527E+03  0.7546771E-02  0.1158594E+00
          2   -1    0    0  502    0  0.00000000000E+00  0.00000000000E+00  0.24669601565E+04  0.24669601565E+04  0.00000000000E+00 0. -1.
         -2   -1    0    0    0  501 -0.00000000000E+00 -0.00000000000E+00 -0.24991727038E+02  0.24991727038E+02  0.00000000000E+00 0.  1.
          6    2    1    2  502    0  0.31623481139E+02 -0.72913896657E+02  0.41736082981E+03  0.45844749784E+03  0.17224275060E+03 0.  0.
         24    2    3    3    0    0  0.39086266034E+02 -0.37829110965E+02  0.10181082614E+03  0.14083054276E+03  0.80678495427E+02 0.  0.
         -6    2    1    2    0  501 -0.31623481139E+02  0.72913896657E+02  0.20246075997E+04  0.20335043857E+04  0.17259105765E+03 0.  0.
        -24    2    5    5    0    0  0.48992732235E+02  0.48890931728E+02  0.11151147315E+04  0.11201175871E+04  0.79949567916E+02 0.  0.
          5    1    3    3  502    0 -0.74627848950E+01 -0.35084785692E+02  0.31555000367E+03  0.31761695509E+03  0.47000000000E+01 0. -1.
        -13    1    4    4    0    0  0.16870735697E+02 -0.37427196643E+02  0.10979588930E+03  0.11722010953E+03  0.00000000000E+00 0.  1.
         14    1    4    4    0    0  0.22215530337E+02 -0.40191432154E+00 -0.79850631598E+01  0.23610433222E+02  0.00000000000E+00 0. -1.
         -5    1    5    5    0  501 -0.80616213374E+02  0.24022964930E+02  0.90949286815E+03  0.91338679864E+03  0.47000000000E+01 0.  1.
         11    1    6    6    0    0 -0.73723950828E+01  0.35156415599E+02  0.70562113055E+03  0.70653485806E+03  0.00000000000E+00 0. -1.
        -12    1    6    6    0    0  0.56365127317E+02  0.13734516129E+02  0.40949360097E+03  0.41358272902E+03  0.00000000000E+00 0.  1.
<mgrwt>
<rscale>  2 0.18985271E+03</rscale>
<asrwt>0</asrwt>
<pdfrwt beam="1">  1        2 0.37953214E+00 0.18985271E+03</pdfrwt>
<pdfrwt beam="2">  1       -2 0.38448830E-02 0.18985271E+03</pdfrwt>
<totfact> 0.12349944E+03</totfact>
</mgrwt>
</event>
<event>
12    1  0.4404304E-002  0.1822544E+03  0.7546771E-02  0.1165639E+00
         -2   -1    0    0    0  501 -0.00000000000E+00  0.00000000000E+00  0.25888609294E+02  0.25888609294E+02  0.00000000000E+00 0. -1.
          2   -1    0    0  502    0  0.00000000000E+00 -0.00000000000E+00 -0.12831295065E+04  0.12831295065E+04  0.00000000000E+00 0.  1.
          6    2    1    2  502    0  0.36991385765E+02 -0.45519140990E+02 -0.62884920431E+03  0.65447049914E+03  0.17158076134E+03 0.  0.
         24    2    3    3    0    0 -0.46520843564E+02 -0.23009805471E+02 -0.27577349510E+03  0.29092475364E+03  0.76762957531E+02 0.  0.
         -6    2    1    2    0  501 -0.36991385765E+02  0.45519140990E+02 -0.62839169294E+03  0.65454761670E+03  0.17353993187E+03 0.  0.
        -24    2    5    5    0    0 -0.32632580909E+02  0.43011587533E+02 -0.16955436349E+03  0.19565866292E+03  0.81355689405E+02 0.  0.
          5    1    3    3  502    0  0.83512229329E+02 -0.22509335519E+02 -0.35307570922E+03  0.36354574550E+03  0.47000000000E+01 0. -1.
        -11    1    4    4    0    0  0.92980642729E+01 -0.32757199559E+02 -0.76180543636E+02  0.83444372793E+02  0.00000000000E+00 0.  1.
         12    1    4    4    0    0 -0.55818907837E+02  0.97473940873E+01 -0.19959295146E+03  0.20748038085E+03  0.00000000000E+00 0. -1.
         -5    1    5    5    0  501 -0.43588048560E+01  0.25075534576E+01 -0.45883732945E+03  0.45888895378E+03  0.47000000000E+01 0.  1.
         11    1    6    6    0    0  0.27203068117E+02  0.17543084560E+02 -0.50019047393E+02  0.59579122458E+02  0.00000000000E+00 0. -1.
        -12    1    6    6    0    0 -0.59835649025E+02  0.25468502973E+02 -0.11953531610E+03  0.13607954046E+03  0.00000000000E+00 0.  1.
<mgrwt>
<rscale>  2 0.18225440E+03</rscale>
<asrwt>0</asrwt>
<pdfrwt beam="2">  1        2 0.19740449E+00 0.18225440E+03</pdfrwt>
<pdfrwt beam="1">  1       -2 0.39828640E-02 0.18225440E+03</pdfrwt>
<totfact> 0.49131844E+03</totfact>
</mgrwt>
</event>
<event>
12    1  0.4404304E-002  0.1947999E+03  0.7546771E-02  0.1154202E+00
          1   -1    0    0  502    0  0.00000000000E+00  0.00000000000E+00  0.85488819356E+03  0.85488819356E+03  0.00000000000E+00 0. -1.
         -1   -1    0    0    0  501 -0.00000000000E+00 -0.00000000000E+00 -0.50758830810E+02  0.50758830810E+02  0.00000000000E+00 0.  1.
          6    2    1    2  502    0  0.31279579625E+02 -0.85948498103E+02  0.56279359197E+03  0.59560906989E+03  0.17218588952E+03 0.  0.
         24    2    3    3    0    0 -0.19402058395E+02 -0.44859550549E+02  0.48412041381E+03  0.49329343567E+03  0.81098825325E+02 0.  0.
         -6    2    1    2    0  501 -0.31279579625E+02  0.85948498103E+02  0.24133577078E+03  0.31003795448E+03  0.17179936709E+03 0.  0.
        -24    2    5    5    0    0  0.34635722576E+01  0.52042833045E+02  0.24121892424E+03  0.26126517130E+03  0.85746530665E+02 0.  0.
          5    1    3    3  502    0  0.50681638019E+02 -0.41088947553E+02  0.78673178161E+02  0.10231563422E+03  0.47000000000E+01 0. -1.
        -13    1    4    4    0    0 -0.11816295813E+02  0.23285367813E+02  0.13028482341E+03  0.13287576307E+03  0.00000000000E+00 0.  1.
         14    1    4    4    0    0 -0.75857625822E+01 -0.68144918362E+02  0.35383559040E+03  0.36041767260E+03  0.00000000000E+00 0. -1.
         -5    1    5    5    0  501 -0.34743151882E+02  0.33905665058E+02  0.11684654513E+00  0.48772783177E+02  0.47000000000E+01 0.  1.
         11    1    6    6    0    0  0.24716198427E+01  0.59293162575E+02  0.78627984364E+02  0.98509633833E+02  0.00000000000E+00 0. -1.
        -12    1    6    6    0    0  0.99195241497E+00 -0.72503295302E+01  0.16259093988E+03  0.16275553747E+03  0.00000000000E+00 0.  1.
<mgrwt>
<rscale>  2 0.19479990E+03</rscale>
<asrwt>0</asrwt>
<pdfrwt beam="1">  1        1 0.13152125E+00 0.19479990E+03</pdfrwt>
<pdfrwt beam="2">  1       -1 0.78090515E-02 0.19479990E+03</pdfrwt>
<totfact> 0.18476591E+03</totfact>
</mgrwt>
</event>
<event>
12    1  0.4404304E-002  0.1825134E+03  0.7546771E-02  0.1165393E+00
         -1   -1    0    0    0  501 -0.00000000000E+00  0.00000000000E+00  0.23738943721E+03  0.23738943721E+03  0.00000000000E+00 0. -1.
          1   -1    0    0  502    0  0.00000000000E+00 -0.00000000000E+00 -0.14161811804E+03  0.14161811804E+03  0.00000000000E+00 0.  1.
          6    2    1    2  502    0  0.49314768661E+02 -0.22242969600E+02  0.34324978398E+02  0.19434515252E+03  0.18348062040E+03 0.  0.
         24    2    3    3    0    0  0.72009026942E+02  0.84071971057E+01  0.80696912608E+02  0.13412133364E+03  0.78870523702E+02 0.  0.
         -6    2    1    2    0  501 -0.49314768661E+02  0.22242969600E+02  0.61446340774E+02  0.18466240273E+03  0.16552297146E+03 0.  0.
        -24    2    5    5    0    0  0.29481969831E+02 -0.55707631193E+01  0.47786876279E+02  0.99861455236E+02  0.82392382842E+02 0.  0.
          5    1    3    3  502    0 -0.22694258281E+02 -0.30650166705E+02 -0.46371934210E+02  0.60223818879E+02  0.47000000000E+01 0. -1.
        -11    1    4    4    0    0  0.53337458893E+02  0.17608698788E+02  0.58953583959E+01  0.56477482635E+02  0.00000000000E+00 0.  1.
         12    1    4    4    0    0  0.18671568050E+02 -0.92015016824E+01  0.74801554212E+02  0.77643851007E+02  0.00000000000E+00 0. -1.
         -5    1    5    5    0  501 -0.78796738492E+02  0.27813732719E+02  0.13659464495E+02  0.84800947489E+02  0.47000000000E+01 0.  1.
         11    1    6    6    0    0  0.21967540756E+02  0.28057960935E+02 -0.58482595542E+01  0.36111274674E+02  0.00000000000E+00 0. -1.
        -12    1    6    6    0    0  0.75144290746E+01 -0.33628724055E+02  0.53635135833E+02  0.63750180562E+02  0.00000000000E+00 0.  1.
<mgrwt>
<rscale>  2 0.18251335E+03</rscale>
<asrwt>0</asrwt>
<pdfrwt beam="2">  1        1 0.21787403E-01 0.18251335E+03</pdfrwt>
<pdfrwt beam="1">  1       -1 0.36521452E-01 0.18251335E+03</pdfrwt>
<totfact> 0.16384033E+03</totfact>
</mgrwt>
</event>
<event>
12    1  0.4404304E-002  0.3190876E+03  0.7546771E-02  0.1076070E+00
          2   -1    0    0  502    0  0.00000000000E+00  0.00000000000E+00  0.73296512762E+03  0.73296512762E+03  0.00000000000E+00 0.  1.
         -2   -1    0    0    0  501 -0.00000000000E+00 -0.00000000000E+00 -0.15038961055E+03  0.15038961055E+03  0.00000000000E+00 0. -1.
          6    2    1    2  502    0  0.14368499865E+03  0.22598473445E+03  0.16907233068E+03  0.36091075084E+03  0.17307986026E+03 0.  0.
         24    2    3    3    0    0  0.13260646968E+03  0.15889797822E+03  0.18722001677E+03  0.29037852292E+03  0.80220375289E+02 0.  0.
         -6    2    1    2    0  501 -0.14368499865E+03 -0.22598473445E+03  0.41350318639E+03  0.52244398733E+03  0.17392054422E+03 0.  0.
        -24    2    5    5    0    0 -0.42039480546E+02 -0.28367919381E+02  0.15518285052E+03  0.18165709956E+03  0.79658822192E+02 0.  0.
          5    1    3    3  502    0  0.11078528965E+02  0.67086756229E+02 -0.18147686082E+02  0.70532227921E+02  0.47000000000E+01 0. -1.
        -13    1    4    4    0    0  0.55081057023E+02  0.18211517201E+02  0.73157242891E+02  0.93367898064E+02  0.00000000000E+00 0.  1.
         14    1    4    4    0    0  0.77525412662E+02  0.14068646102E+03  0.11406277387E+03  0.19701062486E+03  0.00000000000E+00 0. -1.
         -5    1    5    5    0  501 -0.10164551810E+03 -0.19761681507E+03  0.25832033587E+03  0.34078688776E+03  0.47000000000E+01 0.  1.
         11    1    6    6    0    0  0.24171103100E+01 -0.46302198213E+02  0.71537901625E+02  0.85249090027E+02  0.00000000000E+00 0. -1.
        -12    1    6    6    0    0 -0.44456590856E+02  0.17934278832E+02  0.83644948892E+02  0.96408009537E+02  0.00000000000E+00 0.  1.
<mgrwt>
<rscale>  2 0.31908756E+03</rscale>
<asrwt>0</asrwt>
<pdfrwt beam="1">  1        2 0.11276386E+00 0.31908756E+03</pdfrwt>
<pdfrwt beam="2">  1       -2 0.23136863E-01 0.31908756E+03</pdfrwt>
<totfact> 0.64752553E+02</totfact>
</mgrwt>
</event>
<event>
12    1  0.4404304E-002  0.1750441E+03  0.7546771E-02  0.1172687E+00
          1   -1    0    0  502    0  0.00000000000E+00  0.00000000000E+00  0.12585627242E+04  0.12585627242E+04  0.00000000000E+00 0. -1.
         -1   -1    0    0    0  501 -0.00000000000E+00 -0.00000000000E+00 -0.28836955154E+02  0.28836955154E+02  0.00000000000E+00 0.  1.
          6    2    1    2  502    0  0.48152924799E+01 -0.19000033067E+02  0.36057230778E+03  0.40077796178E+03  0.17385740484E+03 0.  0.
         24    2    3    3    0    0  0.37937350011E+02  0.37680157499E+02  0.28191085021E+03  0.29821369119E+03  0.81232021686E+02 0.  0.
         -6    2    1    2    0  501 -0.48152924799E+01  0.19000033067E+02  0.86915346129E+03  0.88662171759E+03  0.17402914277E+03 0.  0.
        -24    2    5    5    0    0 -0.64073570074E+01 -0.12519246485E+02  0.83849131913E+03  0.84236952426E+03  0.79504323056E+02 0.  0.
          5    1    3    3  502    0 -0.33122057531E+02 -0.56680190566E+02  0.78661457562E+02  0.10256427060E+03  0.47000000000E+01 0. -1.
        -11    1    4    4    0    0 -0.22395548328E+01  0.29196039514E+02  0.26404405279E+02  0.39428631060E+02  0.00000000000E+00 0.  1.
         12    1    4    4    0    0  0.40176904843E+02  0.84841179852E+01  0.25550644494E+03  0.25878506013E+03  0.00000000000E+00 0. -1.
         -5    1    5    5    0  501  0.15920645275E+01  0.31519279552E+02  0.30662142160E+02  0.44252193333E+02  0.47000000000E+01 0.  1.
         11    1    6    6    0    0 -0.32783778986E+02  0.43925469530E+01  0.17256083529E+03  0.17570234065E+03  0.00000000000E+00 0. -1.
        -12    1    6    6    0    0  0.26376421979E+02 -0.16911793438E+02  0.66593048384E+03  0.66666718361E+03  0.00000000000E+00 0.  1.
<mgrwt>
<rscale>  2 0.17504412E+03</rscale>
<asrwt>0</asrwt>
<pdfrwt beam="1">  1        1 0.19362499E+00 0.17504412E+03</pdfrwt>
<pdfrwt beam="2">  1       -1 0.44364556E-02 0.17504412E+03</pdfrwt>
<totfact> 0.21890387E+03</totfact>
</mgrwt>
</event>
<event>
12    1  0.4404304E-002  0.2271920E+03  0.7546771E-02  0.1128632E+00
         -1   -1    0    0    0  501 -0.00000000000E+00  0.00000000000E+00  0.69217342817E+03  0.69217342817E+03  0.00000000000E+00 0. -1.
          1   -1    0    0  502    0  0.00000000000E+00 -0.00000000000E+00 -0.74978870086E+02  0.74978870086E+02  0.00000000000E+00 0.  1.
          6    2    1    2  502    0  0.75607443644E+02  0.12457824343E+03  0.33631579253E+03  0.40563232663E+03  0.17376146821E+03 0.  0.
         24    2    3    3    0    0  0.10906673219E+03  0.13267169007E+03  0.26226383880E+03  0.32383495675E+03  0.81175295841E+02 0.  0.
         -6    2    1    2    0  501 -0.75607443644E+02 -0.12457824343E+03  0.28087876555E+03  0.36151997162E+03  0.17483587925E+03 0.  0.
        -24    2    5    5    0    0 -0.14848498301E+02 -0.13101439037E+03  0.13056691279E+03  0.19919678625E+03  0.72431985707E+02 0.  0.
          5    1    3    3  502    0 -0.33459288544E+02 -0.80934466440E+01  0.74051953734E+02  0.81797369886E+02  0.47000000000E+01 0. -1.
        -11    1    4    4    0    0 -0.63963120439E+01 -0.21779116686E+01 -0.43993495339E+00  0.67712369448E+01  0.00000000000E+00 0.  1.
         12    1    4    4    0    0  0.11546304423E+03  0.13484960174E+03  0.26270377375E+03  0.31706371980E+03  0.00000000000E+00 0. -1.
         -5    1    5    5    0  501 -0.60758945343E+02  0.64361469426E+01  0.15031185276E+03  0.16232318537E+03  0.47000000000E+01 0.  1.
         11    1    6    6    0    0  0.84273330614E+01 -0.26261302251E+02  0.71658320601E+02  0.76782750992E+02  0.00000000000E+00 0. -1.
        -12    1    6    6    0    0 -0.23275831362E+02 -0.10475308812E+03  0.58908592187E+02  0.12241403526E+03  0.00000000000E+00 0.  1.
<mgrwt>
<rscale>  2 0.22719199E+03</rscale>
<asrwt>0</asrwt>
<pdfrwt beam="2">  1        1 0.11535211E-01 0.22719199E+03</pdfrwt>
<pdfrwt beam="1">  1       -1 0.10648822E+00 0.22719199E+03</pdfrwt>
<totfact> 0.46319871E+02</totfact>
</mgrwt>
</event>
<event>
12    1  0.4404304E-002  0.1996967E+03  0.7546771E-02  0.1149995E+00
          2   -1    0    0  502    0  0.00000000000E+00  0.00000000000E+00  0.14910702167E+04  0.14910702167E+04  0.00000000000E+00 0. -1.
         -2   -1    0    0    0  501 -0.00000000000E+00 -0.00000000000E+00 -0.30478703413E+02  0.30478703413E+02  0.00000000000E+00 0.  1.
          6    2    1    2  502    0 -0.12036684874E+00  0.10058480963E+03  0.46420162085E+03  0.50535522342E+03  0.17257878962E+03 0.  0.
         24    2    3    3    0    0  0.10731880741E+02  0.12738146256E+03  0.44297041393E+03  0.46917945760E+03  0.86979109819E+02 0.  0.
         -6    2    1    2    0  501  0.12036684874E+00 -0.10058480963E+03  0.99638989242E+03  0.10161936967E+04  0.17245142221E+03 0.  0.
        -24    2    5    5    0    0 -0.21533282713E+02  0.12334744546E+02  0.44447459076E+03  0.45240978730E+03  0.80629558045E+02 0.  0.
          5    1    3    3  502    0 -0.10852247589E+02 -0.26796652929E+02  0.21231206919E+02  0.36175765827E+02  0.47000000000E+01 0. -1.
        -11    1    4    4    0    0 -0.32011132274E+01  0.22320770785E+02  0.12350812624E+02  0.25710046807E+02  0.00000000000E+00 0.  1.
         12    1    4    4    0    0  0.13932993968E+02  0.10506069177E+03  0.43061960131E+03  0.44346941079E+03  0.00000000000E+00 0. -1.
         -5    1    5    5    0  501  0.21653649562E+02 -0.11291955418E+03  0.55191530167E+03  0.56378390937E+03  0.47000000000E+01 0.  1.
         11    1    6    6    0    0 -0.28661828751E+02  0.28275023461E+02  0.42215841544E+03  0.42407393825E+03  0.00000000000E+00 0. -1.
        -12    1    6    6    0    0  0.71285460381E+01 -0.15940278915E+02  0.22316175317E+02  0.28335849049E+02  0.00000000000E+00 0.  1.
<mgrwt>
<rscale>  2 0.19969672E+03</rscale>
<asrwt>0</asrwt>
<pdfrwt beam="1">  1        2 0.22939536E+00 0.19969672E+03</pdfrwt>
<pdfrwt beam="2">  1       -2 0.46890324E-02 0.19969672E+03</pdfrwt>
<totfact> 0.29747767E+03</totfact>
</mgrwt>
</event>
<event>
12    1  0.4404304E-002  0.2448238E+03  0.7546771E-02  0.1116620E+00
         -2   -1    0    0    0  501 -0.00000000000E+00  0.00000000000E+00  0.33951448452E+02  0.33951448452E+02  0.00000000000E+00 0.  1.
          2   -1    0    0  502    0  0.00000000000E+00 -0.00000000000E+00 -0.18399421062E+04  0.18399421062E+04  0.00000000000E+00 0. -1.
          6    2    1    2  502    0  0.82737400084E+02 -0.15192322736E+03 -0.71427442652E+03  0.75505236943E+03  0.17317615254E+03 0.  0.
         24    2    3    3    0    0  0.91621317995E+02 -0.92264396335E+02 -0.30412994721E+03  0.34046982755E+03  0.80730997402E+02 0.  0.
         -6    2    1    2    0  501 -0.82737400084E+02  0.15192322736E+03 -0.10917162313E+04  0.11188411853E+04  0.17330644493E+03 0.  0.
        -24    2    5    5    0    0 -0.16068675906E+02  0.12618712409E+03 -0.93007161535E+03  0.94204147472E+03  0.78914750066E+02 0.  0.
          5    1    3    3  502    0 -0.88839179109E+01 -0.59658831023E+02 -0.41014447931E+03  0.41458254188E+03  0.47000000000E+01 0. -1.
        -13    1    4    4    0    0 -0.71197882754E+01 -0.41169564637E+02 -0.88440628481E+02  0.97812929634E+02  0.00000000000E+00 0.  1.
         14    1    4    4    0    0  0.98741106270E+02 -0.51094831698E+02 -0.21568931873E+03  0.24265689792E+03  0.00000000000E+00 0. -1.
         -5    1    5    5    0  501 -0.66668724178E+02  0.25736103263E+02 -0.16164461591E+03  0.17679971054E+03  0.47000000000E+01 0.  1.
         13    1    6    6    0    0 -0.45026497110E+02  0.10363021991E+03 -0.70137885902E+03  0.71042164368E+03  0.00000000000E+00 0. -1.
        -14    1    6    6    0    0  0.28957821204E+02  0.22556904183E+02 -0.22869275633E+03  0.23161983105E+03  0.00000000000E+00 0.  1.
<mgrwt>
<rscale>  2 0.24482380E+03</rscale>
<asrwt>0</asrwt>
<pdfrwt beam="2">  1        2 0.28306792E+00 0.24482380E+03</pdfrwt>
<pdfrwt beam="1">  1       -2 0.52233016E-02 0.24482380E+03</pdfrwt>
<totfact> 0.16543870E+03</totfact>
</mgrwt>
</event>
<event>
12    1  0.4404304E-002  0.2179602E+03  0.7546771E-02  0.1135413E+00
          1   -1    0    0  502    0  0.00000000000E+00  0.00000000000E+00  0.34814778927E+03  0.34814778927E+03  0.00000000000E+00 0. -1.
         -1   -1    0    0    0  501 -0.00000000000E+00 -0.00000000000E+00 -0.13651128566E+03  0.13651128566E+03  0.00000000000E+00 0.  1.
          6    2    1    2  502    0 -0.13219449994E+03 -0.14748189782E+00  0.10080452569E+03  0.23991719720E+03  0.17298352969E+03 0.  0.
         24    2    3    3    0    0 -0.11654051187E+03  0.45456382222E+02  0.26898237801E+02  0.15154871212E+03  0.81212827533E+02 0.  0.
         -6    2    1    2    0  501  0.13219449994E+03  0.14748189782E+00  0.11083197792E+03  0.24474187774E+03  0.17360717676E+03 0.  0.
        -24    2    5    5    0    0  0.10110017632E+03 -0.22962753480E+02  0.14311826551E+03  0.19409176117E+03  0.80251106743E+02 0.  0.
          5    1    3    3  502    0 -0.15653988068E+02 -0.45603864119E+02  0.73906287890E+02  0.88368485077E+02  0.47000000000E+01 0. -1.
        -11    1    4    4    0    0  0.48087962101E+01  0.16126820896E+02 -0.12132819452E+02  0.20746184735E+02  0.00000000000E+00 0.  1.
         12    1    4    4    0    0 -0.12134930808E+03  0.29329561326E+02  0.39031057253E+02  0.13080252739E+03  0.00000000000E+00 0. -1.
         -5    1    5    5    0  501  0.31094323626E+02  0.23110235377E+02 -0.32286287599E+02  0.50650116563E+02  0.47000000000E+01 0.  1.
         13    1    6    6    0    0  0.33296068386E+02 -0.99146100547E+01  0.11396287509E+03  0.11914052443E+03  0.00000000000E+00 0. -1.
        -14    1    6    6    0    0  0.67804107930E+02 -0.13048143425E+02  0.29155390426E+02  0.74951236748E+02  0.00000000000E+00 0.  1.
<mgrwt>
<rscale>  2 0.21796023E+03</rscale>
<asrwt>0</asrwt>
<pdfrwt beam="1">  1        1 0.53561198E-01 0.21796023E+03</pdfrwt>
<pdfrwt beam="2">  1       -1 0.21001736E-01 0.21796023E+03</pdfrwt>
<totfact> 0.13438858E+03</totfact>
</mgrwt>
</event>
<event>
12    1  0.4404304E-002  0.2390893E+03  0.7546771E-02  0.1120401E+00
          2   -1    0    0  502    0  0.00000000000E+00  0.00000000000E+00  0.11345707800E+04  0.11345707800E+04  0.00000000000E+00 0. -1.
         -2   -1    0    0    0  501 -0.00000000000E+00 -0.00000000000E+00 -0.52719638144E+02  0.52719638144E+02  0.00000000000E+00 0.  1.
          6    2    1    2  502    0 -0.12948956589E+03 -0.10459224347E+03  0.41414605281E+03  0.47778308705E+03  0.17044835035E+03 0.  0.
         24    2    3    3    0    0 -0.15562356043E+03 -0.93835984522E+02  0.29919836111E+03  0.35931898022E+03  0.81034472314E+02 0.  0.
         -6    2    1    2    0  501  0.12948956589E+03  0.10459224347E+03  0.66770508902E+03  0.70950733108E+03  0.17281053752E+03 0.  0.
        -24    2    5    5    0    0  0.11927744179E+02  0.82696309052E+02  0.39825728166E+03  0.41467784687E+03  0.79799145833E+02 0.  0.
          5    1    3    3  502    0  0.26133994546E+02 -0.10756258953E+02  0.11494769170E+03  0.11846410682E+03  0.47000000000E+01 0. -1.
        -11    1    4    4    0    0 -0.13280367273E+03 -0.10069488345E+03  0.21627880012E+03  0.27304357606E+03  0.00000000000E+00 0.  1.
         12    1    4    4    0    0 -0.22819887705E+02  0.68588989293E+01  0.82919560989E+02  0.86275404166E+02  0.00000000000E+00 0. -1.
         -5    1    5    5    0  501  0.11756182171E+03  0.21895934423E+02  0.26944780736E+03  0.29482948421E+03  0.47000000000E+01 0.  1.
         13    1    6    6    0    0  0.39543175643E+02  0.67836764953E+02  0.33493321110E+03  0.34401416441E+03  0.00000000000E+00 0. -1.
        -14    1    6    6    0    0 -0.27615431464E+02  0.14859544100E+02  0.63324070561E+02  0.70663682456E+02  0.00000000000E+00 0.  1.
<mgrwt>
<rscale>  2 0.23908933E+03</rscale>
<asrwt>0</asrwt>
<pdfrwt beam="1">  1        2 0.17454933E+00 0.23908933E+03</pdfrwt>
<pdfrwt beam="2">  1       -2 0.81107144E-02 0.23908933E+03</pdfrwt>
<totfact> 0.20156694E+03</totfact>
</mgrwt>
</event>
<event>
12    1  0.4404304E-002  0.2786222E+03  0.7546771E-02  0.1096444E+00
          2   -1    0    0  502    0  0.00000000000E+00  0.00000000000E+00  0.59719814105E+03  0.59719814105E+03  0.00000000000E+00 0. -1.
         -2   -1    0    0    0  501 -0.00000000000E+00 -0.00000000000E+00 -0.23922027350E+03  0.23922027350E+03  0.00000000000E+00 0.  1.
          6    2    1    2  502    0  0.11645987200E+03 -0.19079021001E+03 -0.10457367910E+03  0.29495178861E+03  0.16154596010E+03 0.  0.
         24    2    3    3    0    0  0.70254754839E+02 -0.13299690212E+03 -0.13182309351E+03  0.21596065066E+03  0.81472499035E+02 0.  0.
         -6    2    1    2    0  501 -0.11645987200E+03  0.19079021001E+03  0.46255154664E+03  0.54146662594E+03  0.17108000375E+03 0.  0.
        -24    2    5    5    0    0 -0.54640127277E+02  0.86077957194E+02  0.35915520467E+03  0.38178184187E+03  0.79812001120E+02 0.  0.
          5    1    3    3  502    0  0.46205117163E+02 -0.57793307893E+02  0.27249414417E+02  0.78991137955E+02  0.47000000000E+01 0. -1.
        -11    1    4    4    0    0  0.34244472693E+02 -0.12860966260E+02 -0.38567977629E+01  0.36782648792E+02  0.00000000000E+00 0.  1.
         12    1    4    4    0    0  0.36010282145E+02 -0.12013593586E+03 -0.12796629575E+03  0.17917800187E+03  0.00000000000E+00 0. -1.
         -5    1    5    5    0  501 -0.61819744724E+02  0.10471225282E+03  0.10339634198E+03  0.15968478407E+03  0.47000000000E+01 0.  1.
         11    1    6    6    0    0  0.12389195618E+02  0.51967648209E+02  0.17103609024E+03  0.17918558199E+03  0.00000000000E+00 0. -1.
        -12    1    6    6    0    0 -0.67029322895E+02  0.34110308984E+02  0.18811911442E+03  0.20259625988E+03  0.00000000000E+00 0.  1.
<mgrwt>
<rscale>  2 0.27862223E+03</rscale>
<asrwt>0</asrwt>
<pdfrwt beam="1">  1        2 0.91876637E-01 0.27862223E+03</pdfrwt>
<pdfrwt beam="2">  1       -2 0.36803119E-01 0.27862223E+03</pdfrwt>
<totfact> 0.35682075E+02</totfact>
</mgrwt>
</event>
<event>
12    1  0.4404304E-002  0.2315054E+03  0.7546771E-02  0.1125585E+00
          2   -1    0    0  502    0  0.00000000000E+00  0.00000000000E+00  0.18017309188E+04  0.18017309188E+04  0.00000000000E+00 0. -1.
         -2   -1    0    0    0  501 -0.00000000000E+00 -0.00000000000E+00 -0.29750019131E+02  0.29750019131E+02  0.00000000000E+00 0.  1.
          6    2    1    2  502    0 -0.15468463922E+03  0.69589317774E+01  0.87645532073E+03  0.90656271550E+03  0.17235505086E+03 0.  0.
         24    2    3    3    0    0 -0.14392719659E+03  0.15894158441E+02  0.43277399360E+03  0.46263617778E+03  0.75968686084E+02 0.  0.
         -6    2    1    2    0  501  0.15468463922E+03 -0.69589317774E+01  0.89552557893E+03  0.92491822242E+03  0.17184845448E+03 0.  0.
        -24    2    5    5    0    0  0.75352225767E+01  0.58611610471E+01  0.33248401065E+03  0.34280551580E+03  0.82938962721E+02 0.  0.
          5    1    3    3  502    0 -0.10757442632E+02 -0.89352266633E+01  0.44368132714E+03  0.44392653773E+03  0.47000000000E+01 0. -1.
        -13    1    4    4    0    0 -0.63633846410E+02 -0.27210486703E+02  0.23293242858E+03  0.24299628244E+03  0.00000000000E+00 0.  1.
         14    1    4    4    0    0 -0.80293350178E+02  0.43104645144E+02  0.19984156502E+03  0.21963989534E+03  0.00000000000E+00 0. -1.
         -5    1    5    5    0  501  0.14714941664E+03 -0.12820092824E+02  0.56304156828E+03  0.58211270662E+03  0.47000000000E+01 0.  1.
         13    1    6    6    0    0  0.37030407068E+01 -0.20181879756E+01  0.33390290416E+03  0.33392953598E+03  0.00000000000E+00 0. -1.
        -14    1    6    6    0    0  0.38321818699E+01  0.78793490227E+01 -0.14188935140E+01  0.88759798169E+01  0.00000000000E+00 0.  1.
<mgrwt>
<rscale>  2 0.23150544E+03</rscale>
<asrwt>0</asrwt>
<pdfrwt beam="1">  1        2 0.27718929E+00 0.23150544E+03</pdfrwt>
<pdfrwt beam="2">  1       -2 0.45769274E-02 0.23150544E+03</pdfrwt>
<totfact> 0.21191585E+03</totfact>
</mgrwt>
</event>
<event>
12    1  0.4404304E-002  0.2059698E+03  0.7546771E-02  0.1144798E+00
         -1   -1    0    0    0  501 -0.00000000000E+00  0.00000000000E+00  0.39320839309E+03  0.39320839309E+03  0.00000000000E+00 0. -1.
          1   -1    0    0  502    0  0.00000000000E+00 -0.00000000000E+00 -0.14496223728E+03  0.14496223728E+03  0.00000000000E+00 0.  1.
          6    2    1    2  502    0 -0.80397271465E+02 -0.72510593623E+02  0.26049113397E+03  0.33249123044E+03  0.17599227253E+03 0.  0.
         24    2    3    3    0    0  0.10532577076E+02 -0.77781487405E+02  0.11131311029E+03  0.15764217431E+03  0.79369714861E+02 0.  0.
         -6    2    1    2    0  501  0.80397271465E+02  0.72510593623E+02 -0.12244978159E+02  0.20567939993E+03  0.17444932966E+03 0.  0.
        -24    2    5    5    0    0  0.17397757364E+01 -0.19351480529E+02 -0.62238835730E+01  0.84501902507E+02  0.82002001087E+02 0.  0.
          5    1    3    3  502    0 -0.90929848541E+02  0.52708937811E+01  0.14917802369E+03  0.17484905613E+03  0.47000000000E+01 0. -1.
        -11    1    4    4    0    0 -0.34657831799E+02 -0.35641299063E+02  0.53316720346E+02  0.72898149307E+02  0.00000000000E+00 0.  1.
         12    1    4    4    0    0  0.45190408875E+02 -0.42140188341E+02  0.57996389940E+02  0.84744025004E+02  0.00000000000E+00 0. -1.
         -5    1    5    5    0  501  0.78657495728E+02  0.91862074152E+02 -0.60210945860E+01  0.12117749742E+03  0.47000000000E+01 0.  1.
         13    1    6    6    0    0 -0.16589927661E+02  0.43297144212E+01  0.31784297766E+02  0.36113899142E+02  0.00000000000E+00 0. -1.
        -14    1    6    6    0    0  0.18329703397E+02 -0.23681194950E+02 -0.38008181339E+02  0.48388003365E+02  0.00000000000E+00 0.  1.
<mgrwt>
<rscale>  2 0.20596983E+03</rscale>
<asrwt>0</asrwt>
<pdfrwt beam="2">  1        1 0.22301883E-01 0.20596983E+03</pdfrwt>
<pdfrwt beam="1">  1       -1 0.60493598E-01 0.20596983E+03</pdfrwt>
<totfact> 0.63500764E+02</totfact>
</mgrwt>
</event>
<event>
12    1  0.4404304E-002  0.2389479E+03  0.7546771E-02  0.1120496E+00
         -1   -1    0    0    0  501 -0.00000000000E+00  0.00000000000E+00  0.13367984775E+03  0.13367984775E+03  0.00000000000E+00 0.  1.
          1   -1    0    0  502    0  0.00000000000E+00 -0.00000000000E+00 -0.42718311393E+03  0.42718311393E+03  0.00000000000E+00 0. -1.
          6    2    1    2  502    0 -0.16276060612E+03  0.26286351921E+02 -0.14335403873E+03  0.27896352992E+03  0.17345974578E+03 0.  0.
         24    2    3    3    0    0 -0.55380026299E+02  0.72114515823E+01 -0.13876144329E+03  0.16970410160E+03  0.80161035475E+02 0.  0.
         -6    2    1    2    0  501  0.16276060612E+03 -0.26286351921E+02 -0.15014922745E+03  0.28189943176E+03  0.17245437634E+03 0.  0.
        -24    2    5    5    0    0  0.94353075606E+01 -0.60116456723E+01 -0.72268149915E+02  0.10867338542E+03  0.80386903751E+02 0.  0.
          5    1    3    3  502    0 -0.10738057982E+03  0.19074900338E+02 -0.45925954366E+01  0.10925942832E+03  0.47000000000E+01 0. -1.
        -11    1    4    4    0    0 -0.66300249287E+00  0.19761637555E+02  0.26168150205E+00  0.19774487815E+02  0.00000000000E+00 0.  1.
         12    1    4    4    0    0 -0.54717023806E+02 -0.12550185972E+02 -0.13902312479E+03  0.14992961378E+03  0.00000000000E+00 0. -1.
         -5    1    5    5    0  501  0.15332529856E+03 -0.20274706248E+02 -0.77881077536E+02  0.17322604633E+03  0.47000000000E+01 0.  1.
         11    1    6    6    0    0 -0.11220519827E+02  0.34178509397E+02 -0.31767140514E+02  0.47991892922E+02  0.00000000000E+00 0. -1.
        -12    1    6    6    0    0  0.20655827388E+02 -0.40190155070E+02 -0.40501009401E+02  0.60681492501E+02  0.00000000000E+00 0.  1.
<mgrwt>
<rscale>  2 0.23894794E+03</rscale>
<asrwt>0</asrwt>
<pdfrwt beam="2">  1        1 0.65720480E-01 0.23894794E+03</pdfrwt>
<pdfrwt beam="1">  1       -1 0.20566130E-01 0.23894794E+03</pdfrwt>
<totfact> 0.10717135E+03</totfact>
</mgrwt>
</event>
<event>
12    1  0.4404304E-002  0.2011229E+03  0.7546771E-02  0.1148795E+00
          4   -1    0    0  502    0  0.00000000000E+00  0.00000000000E+00  0.33506654938E+03  0.33506654938E+03  0.00000000000E+00 0. -1.
         -4   -1    0    0    0  501 -0.00000000000E+00 -0.00000000000E+00 -0.12299751529E+03  0.12299751529E+03  0.00000000000E+00 0.  1.
          6    2    1    2  502    0  0.70771024402E+02  0.68455857599E+02  0.74002488322E+02  0.21256937983E+03  0.17324731060E+03 0.  0.
         24    2    3    3    0    0 -0.10414094524E+02  0.64390270289E+02  0.79370369052E+02  0.13097001293E+03  0.81233789336E+02 0.  0.
         -6    2    1    2    0  501 -0.70771024402E+02 -0.68455857599E+02  0.13806654576E+03  0.24549468484E+03  0.17751204717E+03 0.  0.
        -24    2    5    5    0    0  0.26378160624E+02 -0.40779884211E+02  0.10100923768E+03  0.13779483462E+03  0.80160738748E+02 0.  0.
          5    1    3    3  502    0  0.81185118927E+02  0.40655873101E+01 -0.53678807296E+01  0.81599366902E+02  0.47000000000E+01 0. -1.
        -11    1    4    4    0    0 -0.38308629424E+01 -0.18406354414E+02  0.26573743247E+02  0.32552007985E+02  0.00000000000E+00 0.  1.
         12    1    4    4    0    0 -0.65832315821E+01  0.82796624703E+02  0.52796625805E+02  0.98418004941E+02  0.00000000000E+00 0. -1.
         -5    1    5    5    0  501 -0.97149185026E+02 -0.27675973388E+02  0.37057308081E+02  0.10769985022E+03  0.47000000000E+01 0.  1.
         11    1    6    6    0    0  0.15243746186E+02 -0.52937759794E+02  0.10692308575E+03  0.12028019153E+03  0.00000000000E+00 0. -1.
        -12    1    6    6    0    0  0.11134414438E+02  0.12157875583E+02 -0.59138480628E+01  0.17514643087E+02  0.00000000000E+00 0.  1.
<mgrwt>
<rscale>  2 0.20112286E+03</rscale>
<asrwt>0</asrwt>
<pdfrwt beam="1">  1        4 0.51548700E-01 0.20112286E+03</pdfrwt>
<pdfrwt beam="2">  1       -4 0.18922695E-01 0.20112286E+03</pdfrwt>
<totfact> 0.16160274E+02</totfact>
</mgrwt>
</event>
<event>
12    1  0.4404304E-002  0.2234570E+03  0.7546771E-02  0.1131332E+00
         -2   -1    0    0    0  501 -0.00000000000E+00  0.00000000000E+00  0.19813631180E+04  0.19813631180E+04  0.00000000000E+00 0.  1.
          2   -1    0    0  502    0  0.00000000000E+00 -0.00000000000E+00 -0.42455149127E+02  0.42455149127E+02  0.00000000000E+00 0. -1.
          6    2    1    2  502    0 -0.13754564804E+03  0.31551738436E+02  0.32374634640E+03  0.39323923129E+03  0.17294819666E+03 0.  0.
         24    2    3    3    0    0 -0.22445390114E+02  0.45052624004E+02  0.20518915167E+03  0.22738314395E+03  0.84065282510E+02 0.  0.
         -6    2    1    2    0  501  0.13754564804E+03 -0.31551738436E+02  0.16151616224E+04  0.16305790358E+04  0.17357018149E+03 0.  0.
        -24    2    5    5    0    0  0.10892824060E+03 -0.63535605223E+02  0.76626042172E+03  0.78058064620E+03  0.79050468666E+02 0.  0.
          5    1    3    3  502    0 -0.11510025792E+03 -0.13500885568E+02  0.11855719473E+03  0.16585608734E+03  0.47000000000E+01 0. -1.
        -13    1    4    4    0    0 -0.37296864456E+02  0.54835136185E+02  0.95536699494E+02  0.11629793295E+03  0.00000000000E+00 0.  1.
         14    1    4    4    0    0  0.14851474343E+02 -0.97825121811E+01  0.10965245217E+03  0.11108521100E+03  0.00000000000E+00 0. -1.
         -5    1    5    5    0  501  0.28617407440E+02  0.31983866786E+02  0.84890120073E+03  0.84999838961E+03  0.47000000000E+01 0.  1.
         13    1    6    6    0    0  0.22900449182E+02  0.17897718915E+02  0.19635398668E+03  0.19849344321E+03  0.00000000000E+00 0. -1.
        -14    1    6    6    0    0  0.86027791415E+02 -0.81433324138E+02  0.56990643504E+03  0.58208720298E+03  0.00000000000E+00 0.  1.
<mgrwt>
<rscale>  2 0.22345703E+03</rscale>
<asrwt>0</asrwt>
<pdfrwt beam="2">  1        2 0.65315630E-02 0.22345703E+03</pdfrwt>
<pdfrwt beam="1">  1       -2 0.30482502E+00 0.22345703E+03</pdfrwt>
<totfact> 0.38166041E+01</totfact>
</mgrwt>
</event>
<event>
12    1  0.4404304E-002  0.2290848E+03  0.7546771E-02  0.1127286E+00
         -2   -1    0    0    0  501 -0.00000000000E+00  0.00000000000E+00  0.20887485991E+02  0.20887485991E+02  0.00000000000E+00 0. -1.
          2   -1    0    0  502    0  0.00000000000E+00 -0.00000000000E+00 -0.25310726391E+04  0.25310726391E+04  0.00000000000E+00 0.  1.
          6    2    1    2  502    0  0.11738988194E+03  0.93478946895E+02 -0.11464865675E+04  0.11691746995E+04  0.17326087400E+03 0.  0.
         24    2    3    3    0    0  0.31628269989E+02  0.62347613136E+02 -0.90068856666E+03  0.90694777244E+03  0.80167296957E+02 0.  0.
         -6    2    1    2    0  501 -0.11738988194E+03 -0.93478946895E+02 -0.13636985855E+04  0.13827854256E+04  0.17292484814E+03 0.  0.
        -24    2    5    5    0    0 -0.11784984825E+03 -0.10838008352E+03 -0.13505531921E+04  0.13623612534E+04  0.79996442184E+02 0.  0.
          5    1    3    3  502    0  0.85761611953E+02  0.31131333758E+02 -0.24579800087E+03  0.26222692702E+03  0.47000000000E+01 0. -1.
        -13    1    4    4    0    0  0.26461856117E+02 -0.11682217148E+02 -0.36484892524E+03  0.36599377355E+03  0.00000000000E+00 0.  1.
         14    1    4    4    0    0  0.51664138718E+01  0.74029830285E+02 -0.53583964142E+03  0.54095399890E+03  0.00000000000E+00 0. -1.
         -5    1    5    5    0  501  0.45996630784E+00  0.14901136623E+02 -0.13145393434E+02  0.20424172203E+02  0.47000000000E+01 0.  1.
         11    1    6    6    0    0 -0.83611061661E+02 -0.10620544598E+03 -0.85465762910E+03  0.86528034149E+03  0.00000000000E+00 0. -1.
        -12    1    6    6    0    0 -0.34238786588E+02 -0.21746375369E+01 -0.49589556302E+03  0.49708091190E+03  0.00000000000E+00 0.  1.
<mgrwt>
<rscale>  2 0.22908477E+03</rscale>
<asrwt>0</asrwt>
<pdfrwt beam="2">  1        2 0.38939560E+00 0.22908477E+03</pdfrwt>
<pdfrwt beam="1">  1       -2 0.32134609E-02 0.22908477E+03</pdfrwt>
<totfact> 0.14809593E+03</totfact>
</mgrwt>
</event>
<event>
12    1  0.4404304E-002  0.1916552E+03  0.7546771E-02  0.1156977E+00
         -1   -1    0    0    0  501 -0.00000000000E+00  0.00000000000E+00  0.14985791325E+03  0.14985791325E+03  0.00000000000E+00 0.  1.
          1   -1    0    0  502    0  0.00000000000E+00 -0.00000000000E+00 -0.26252335922E+03  0.26252335922E+03  0.00000000000E+00 0. -1.
          6    2    1    2  502    0  0.46670073237E+02  0.67748377534E+02 -0.34043624480E+01  0.19230943181E+03  0.17379122385E+03 0.  0.
         24    2    3    3    0    0  0.51248902501E+01 -0.16808567127E+02 -0.39636291417E+02  0.91261315570E+02  0.80304418891E+02 0.  0.
         -6    2    1    2    0  501 -0.46670073237E+02 -0.67748377534E+02 -0.10926108352E+03  0.22007184066E+03  0.17241140416E+03 0.  0.
        -24    2    5    5    0    0  0.31232901275E+02 -0.50549828115E+02 -0.98289162263E+02  0.13940501603E+03  0.79007720070E+02 0.  0.
          5    1    3    3  502    0  0.41545182987E+02  0.84556944660E+02  0.36231928969E+02  0.10104811624E+03  0.47000000000E+01 0. -1.
        -11    1    4    4    0    0 -0.24863406428E+02 -0.25573660945E+02  0.57831591956E+01  0.36133724464E+02  0.00000000000E+00 0.  1.
         12    1    4    4    0    0  0.29988296678E+02  0.87650938183E+01 -0.45419450612E+02  0.55127591107E+02  0.00000000000E+00 0. -1.
         -5    1    5    5    0  501 -0.77902974513E+02 -0.17198549419E+02 -0.10971921262E+02  0.80666824632E+02  0.47000000000E+01 0.  1.
         13    1    6    6    0    0 -0.23474759482E+00  0.19642455101E+02 -0.33490678262E+02  0.38826623331E+02  0.00000000000E+00 0. -1.
        -14    1    6    6    0    0  0.31467648870E+02 -0.70192283216E+02 -0.64798484000E+02  0.10057839270E+03  0.00000000000E+00 0.  1.
<mgrwt>
<rscale>  2 0.19165517E+03</rscale>
<asrwt>0</asrwt>
<pdfrwt beam="2">  1        1 0.40388209E-01 0.19165517E+03</pdfrwt>
<pdfrwt beam="1">  1       -1 0.23055064E-01 0.19165517E+03</pdfrwt>
<totfact> 0.16398960E+03</totfact>
</mgrwt>
</event>
<event>
12    1  0.4404304E-002  0.3058998E+03  0.7546771E-02  0.1082328E+00
         -2   -1    0    0    0  501 -0.00000000000E+00  0.00000000000E+00  0.47621932373E+02  0.47621932373E+02  0.00000000000E+00 0. -1.
          2   -1    0    0  502    0  0.00000000000E+00 -0.00000000000E+00 -0.21865237340E+04  0.21865237340E+04  0.00000000000E+00 0.  1.
          6    2    1    2  502    0  0.24066227793E+03  0.76998018726E+02 -0.71172850022E+03  0.77441496533E+03  0.17121347377E+03 0.  0.
         24    2    3    3    0    0  0.19552905290E+03  0.74628511064E+02 -0.39712735145E+03  0.45654927770E+03  0.83223100800E+02 0.  0.
         -6    2    1    2    0  501 -0.24066227793E+03 -0.76998018726E+02 -0.14271733014E+04  0.14597307010E+04  0.17361756940E+03 0.  0.
        -24    2    5    5    0    0 -0.19689584129E+03 -0.85598071241E+02 -0.83802517792E+03  0.86887787394E+03  0.81040476830E+02 0.  0.
          5    1    3    3  502    0  0.45133225031E+02  0.23695076625E+01 -0.31460114877E+03  0.31786568763E+03  0.47000000000E+01 0. -1.
        -11    1    4    4    0    0 -0.68064705167E+01  0.31853611842E+01 -0.33482621078E+02  0.34315601132E+02  0.00000000000E+00 0.  1.
         12    1    4    4    0    0  0.20233552341E+03  0.71443149879E+02 -0.36364473037E+03  0.42223367657E+03  0.00000000000E+00 0. -1.
         -5    1    5    5    0  501 -0.43766436638E+02  0.86000525151E+01 -0.58914812345E+03  0.59085282706E+03  0.47000000000E+01 0.  1.
         11    1    6    6    0    0 -0.11928756268E+02  0.11548153908E+02 -0.30092567326E+02  0.34368847712E+02  0.00000000000E+00 0. -1.
        -12    1    6    6    0    0 -0.18496708502E+03 -0.97146225149E+02 -0.80793261059E+03  0.83450902623E+03  0.00000000000E+00 0.  1.
<mgrwt>
<rscale>  2 0.30589976E+03</rscale>
<asrwt>0</asrwt>
<pdfrwt beam="2">  1        2 0.33638827E+00 0.30589976E+03</pdfrwt>
<pdfrwt beam="1">  1       -2 0.73264512E-02 0.30589976E+03</pdfrwt>
<totfact> 0.63935704E+02</totfact>
</mgrwt>
</event>
<event>
12    1  0.4404304E-002  0.1952983E+03  0.7546771E-02  0.1153768E+00
          2   -1    0    0  502    0  0.00000000000E+00  0.00000000000E+00  0.68922661339E+03  0.68922661339E+03  0.00000000000E+00 0.  1.
         -2   -1    0    0    0  501 -0.00000000000E+00 -0.00000000000E+00 -0.55797922913E+02  0.55797922913E+02  0.00000000000E+00 0. -1.
          6    2    1    2  502    0  0.84108575824E+02 -0.31333760801E+02  0.34940059890E+03  0.39995819317E+03  0.17271282720E+03 0.  0.
         24    2    3    3    0    0  0.58542383423E+02 -0.75091963602E+02  0.31182892138E+03  0.33669579156E+03  0.84028365381E+02 0.  0.
         -6    2    1    2    0  501 -0.84108575824E+02  0.31333760801E+02  0.28402809157E+03  0.34506634313E+03  0.17419175430E+03 0.  0.
        -24    2    5    5    0    0 -0.46162670324E+02 -0.33615734659E+02  0.77473574541E+02  0.12519095294E+03  0.80060041205E+02 0.  0.
          5    1    3    3  502    0  0.25566192402E+02  0.43758202801E+02  0.37571677524E+02  0.63262401616E+02  0.47000000000E+01 0. -1.
        -11    1    4    4    0    0  0.80431545620E+02 -0.58548159037E+02  0.23974631130E+03  0.25956774499E+03  0.00000000000E+00 0.  1.
         12    1    4    4    0    0 -0.21889162198E+02 -0.16543804565E+02  0.72082610083E+02  0.77128046570E+02  0.00000000000E+00 0. -1.
         -5    1    5    5    0  501 -0.37945905500E+02  0.64949495460E+02  0.20655451703E+03  0.21987539019E+03  0.47000000000E+01 0.  1.
         11    1    6    6    0    0 -0.40877122315E+02 -0.71775041900E+01  0.87164587269E+02  0.96540773608E+02  0.00000000000E+00 0. -1.
        -12    1    6    6    0    0 -0.52855480094E+01 -0.26438230469E+02 -0.96910127271E+01  0.28650179332E+02  0.00000000000E+00 0.  1.
<mgrwt>
<rscale>  2 0.19529833E+03</rscale>
<asrwt>0</asrwt>
<pdfrwt beam="1">  1        2 0.10603486E+00 0.19529833E+03</pdfrwt>
<pdfrwt beam="2">  1       -2 0.85842964E-02 0.19529833E+03</pdfrwt>
<totfact> 0.35715134E+03</totfact>
</mgrwt>
</event>
<event>
12    1  0.4404304E-002  0.1805313E+03  0.7546771E-02  0.1167290E+00
         -1   -1    0    0    0  501 -0.00000000000E+00  0.00000000000E+00  0.15225719948E+03  0.15225719948E+03  0.00000000000E+00 0. -1.
          1   -1    0    0  502    0  0.00000000000E+00 -0.00000000000E+00 -0.24188961068E+03  0.24188961068E+03  0.00000000000E+00 0.  1.
          6    2    1    2  502    0  0.80801562065E+01 -0.54961480491E+02  0.21824276689E+02  0.18276327246E+03  0.17274276091E+03 0.  0.
         24    2    3    3    0    0 -0.46435127302E+02 -0.38486408909E+02  0.56184437255E+02  0.11608452957E+03  0.81740456916E+02 0.  0.
         -6    2    1    2    0  501 -0.80801562065E+01  0.54961480491E+02 -0.11145668789E+03  0.21138353771E+03  0.17080501595E+03 0.  0.
        -24    2    5    5    0    0 -0.30825666555E+02  0.56975374746E+02 -0.62470358329E+01  0.10362187988E+03  0.80635311662E+02 0.  0.
          5    1    3    3  502    0  0.54515283508E+02 -0.16475071581E+02 -0.34360160566E+02  0.66678742892E+02  0.47000000000E+01 0. -1.
        -11    1    4    4    0    0 -0.36303135778E+02 -0.27223795870E+02 -0.11429605139E+02  0.46794108630E+02  0.00000000000E+00 0.  1.
         12    1    4    4    0    0 -0.10131991524E+02 -0.11262613039E+02  0.67614042394E+02  0.69290420937E+02  0.00000000000E+00 0. -1.
         -5    1    5    5    0  501  0.22745510349E+02 -0.20138942549E+01 -0.10520965206E+03  0.10776165783E+03  0.47000000000E+01 0.  1.
         13    1    6    6    0    0 -0.19360057119E+02 -0.17599911927E+02  0.68405313833E+01  0.27043697622E+02  0.00000000000E+00 0. -1.
        -14    1    6    6    0    0 -0.11465609436E+02  0.74575286672E+02 -0.13087567216E+02  0.76578182256E+02  0.00000000000E+00 0.  1.
<mgrwt>
<rscale>  2 0.18053133E+03</rscale>
<asrwt>0</asrwt>
<pdfrwt beam="2">  1        1 0.37213786E-01 0.18053133E+03</pdfrwt>
<pdfrwt beam="1">  1       -1 0.23424185E-01 0.18053133E+03</pdfrwt>
<totfact> 0.17667286E+03</totfact>
</mgrwt>
</event>
<event>
12    1  0.4404304E-002  0.1752503E+03  0.7546771E-02  0.1172481E+00
          1   -1    0    0  502    0  0.00000000000E+00  0.00000000000E+00  0.40637476130E+03  0.40637476130E+03  0.00000000000E+00 0.  1.
         -1   -1    0    0    0  501 -0.00000000000E+00 -0.00000000000E+00 -0.87870946962E+02  0.87870946962E+02  0.00000000000E+00 0. -1.
          6    2    1    2  502    0 -0.14919214425E+02  0.16307267669E+02  0.25244774140E+03  0.30788097927E+03  0.17484943614E+03 0.  0.
         24    2    3    3    0    0 -0.25412747323E+01  0.22108313460E+02  0.27142214716E+03  0.28402760220E+03  0.80662638441E+02 0.  0.
         -6    2    1    2    0  501  0.14919214425E+02 -0.16307267669E+02  0.66056072944E+02  0.18636472900E+03  0.17285802702E+03 0.  0.
        -24    2    5    5    0    0  0.65826336184E+02 -0.10807003039E+02  0.81484381368E+02  0.13268129899E+03  0.80713845433E+02 0.  0.
          5    1    3    3  502    0 -0.12377939692E+02 -0.58010457911E+01 -0.18974405765E+02  0.23853377065E+02  0.47000000000E+01 0. -1.
        -13    1    4    4    0    0 -0.60880577552E+01  0.38072143349E+02  0.26266055230E+03  0.26547526868E+03  0.00000000000E+00 0.  1.
         14    1    4    4    0    0  0.35467830229E+01 -0.15963829888E+02  0.87615948620E+01  0.18552333520E+02  0.00000000000E+00 0. -1.
         -5    1    5    5    0  501 -0.50907121760E+02 -0.55002646306E+01 -0.15428308424E+02  0.53683430010E+02  0.47000000000E+01 0.  1.
         11    1    6    6    0    0 -0.86611626264E+01 -0.14702294268E+02  0.47958768671E+02  0.50903994806E+02  0.00000000000E+00 0. -1.
        -12    1    6    6    0    0  0.74487498810E+02  0.38952912294E+01  0.33525612697E+02  0.81777304183E+02  0.00000000000E+00 0.  1.
<mgrwt>
<rscale>  2 0.17525031E+03</rscale>
<asrwt>0</asrwt>
<pdfrwt beam="1">  1        1 0.62519193E-01 0.17525031E+03</pdfrwt>
<pdfrwt beam="2">  1       -1 0.13518607E-01 0.17525031E+03</pdfrwt>
<totfact> 0.22207048E+03</totfact>
</mgrwt>
</event>
<event>
12    1  0.4404304E-002  0.1755455E+03  0.7546771E-02  0.1172185E+00
         -2   -1    0    0    0  501 -0.00000000000E+00  0.00000000000E+00  0.13465609551E+04  0.13465609551E+04  0.00000000000E+00 0.  1.
          2   -1    0    0  502    0  0.00000000000E+00 -0.00000000000E+00 -0.30190003193E+02  0.30190003193E+02  0.00000000000E+00 0. -1.
          6    2    1    2  502    0  0.31800747633E+02 -0.49253476410E+01  0.31925984965E+03  0.36428577280E+03  0.17245789651E+03 0.  0.
         24    2    3    3    0    0 -0.22874300968E+02 -0.20403985582E+02  0.28592444524E+03  0.29823815090E+03  0.79080022707E+02 0.  0.
         -6    2    1    2    0  501 -0.31800747633E+02  0.49253476410E+01  0.99711110224E+03  0.10124651855E+04  0.17268368477E+03 0.  0.
        -24    2    5    5    0    0 -0.80231800179E+02  0.16362956436E+02  0.84499065389E+03  0.85234302413E+03  0.75990377855E+02 0.  0.
          5    1    3    3  502    0  0.54675048601E+02  0.15478637941E+02  0.33335404405E+02  0.66047621902E+02  0.47000000000E+01 0. -1.
        -13    1    4    4    0    0 -0.14841682675E+02 -0.49259252076E+02  0.13722095265E+03  0.14654807848E+03  0.00000000000E+00 0.  1.
         14    1    4    4    0    0 -0.80326182924E+01  0.28855266494E+02  0.14870349260E+03  0.15169007242E+03  0.00000000000E+00 0. -1.
         -5    1    5    5    0  501  0.48431052545E+02 -0.11437608795E+02  0.15212044836E+03  0.16012216134E+03  0.47000000000E+01 0.  1.
         11    1    6    6    0    0 -0.37998206418E+02 -0.21405798096E+02  0.19162532201E+03  0.19652566223E+03  0.00000000000E+00 0. -1.
        -12    1    6    6    0    0 -0.42233593761E+02  0.37768754532E+02  0.65336533188E+03  0.65581736190E+03  0.00000000000E+00 0.  1.
<mgrwt>
<rscale>  2 0.17554547E+03</rscale>
<asrwt>0</asrwt>
<pdfrwt beam="2">  1        2 0.46446169E-02 0.17554547E+03</pdfrwt>
<pdfrwt beam="1">  1       -2 0.20716318E+00 0.17554547E+03</pdfrwt>
<totfact> 0.22457242E+02</totfact>
</mgrwt>
</event>
<event>
12    1  0.4404304E-002  0.2160066E+03  0.7546771E-02  0.1136896E+00
         -2   -1    0    0    0  501 -0.00000000000E+00  0.00000000000E+00  0.19745893660E+02  0.19745893660E+02  0.00000000000E+00 0.  1.
          2   -1    0    0  502    0  0.00000000000E+00 -0.00000000000E+00 -0.23691032469E+04  0.23691032469E+04  0.00000000000E+00 0. -1.
          6    2    1    2  502    0 -0.13267517899E+02 -0.12787324015E+03 -0.12296987741E+04  0.12483510575E+04  0.17231858629E+03 0.  0.
         24    2    3    3    0    0  0.55945010408E+02 -0.51737780071E+02 -0.72139599809E+03  0.72971748315E+03  0.79175609071E+02 0.  0.
         -6    2    1    2    0  501  0.13267517899E+02  0.12787324015E+03 -0.11196585792E+04  0.11404980831E+04  0.17485122540E+03 0.  0.
        -24    2    5    5    0    0  0.44916346296E+01  0.34355826028E+01 -0.63351546319E+03  0.63858278548E+03  0.80088412466E+02 0.  0.
          5    1    3    3  502    0 -0.69212528307E+02 -0.76135460081E+02 -0.50830277596E+03  0.51863357431E+03  0.47000000000E+01 0. -1.
        -11    1    4    4    0    0  0.28230020552E+02 -0.57076575964E+01 -0.64625504410E+02  0.70752860267E+02  0.00000000000E+00 0.  1.
         12    1    4    4    0    0  0.27714989856E+02 -0.46030122475E+02 -0.65677049368E+03  0.65896462288E+03  0.00000000000E+00 0. -1.
         -5    1    5    5    0  501  0.87758832695E+01  0.12443765755E+03 -0.48614311598E+03  0.50191529760E+03  0.47000000000E+01 0.  1.
         11    1    6    6    0    0  0.97274328638E+01  0.41097354833E+02 -0.32450281183E+03  0.32723950007E+03  0.00000000000E+00 0. -1.
        -12    1    6    6    0    0 -0.52357982342E+01 -0.37661772230E+02 -0.30901265136E+03  0.31134328541E+03  0.00000000000E+00 0.  1.
<mgrwt>
<rscale>  2 0.21600658E+03</rscale>
<asrwt>0</asrwt>
<pdfrwt beam="2">  1        2 0.36447740E+00 0.21600658E+03</pdfrwt>
<pdfrwt beam="1">  1       -2 0.30378299E-02 0.21600658E+03</pdfrwt>
<totfact> 0.19736044E+03</totfact>
</mgrwt>
</event>
<event>
12    1  0.4404304E-002  0.2172812E+03  0.7546771E-02  0.1135926E+00
         -1   -1    0    0    0  501 -0.00000000000E+00  0.00000000000E+00  0.15352478289E+03  0.15352478289E+03  0.00000000000E+00 0.  1.
          1   -1    0    0  502    0  0.00000000000E+00 -0.00000000000E+00 -0.80313542460E+03  0.80313542460E+03  0.00000000000E+00 0. -1.
          6    2    1    2  502    0 -0.12133255740E+03 -0.50806845797E+02  0.50791348375E+02  0.22341255758E+03  0.17329306030E+03 0.  0.
         24    2    3    3    0    0 -0.94291856266E+02 -0.44074573798E+01 -0.26014597577E+02  0.12957575192E+03  0.84868936363E+02 0.  0.
         -6    2    1    2    0  501  0.12133255740E+03  0.50806845797E+02 -0.70040199009E+03  0.73324764991E+03  0.17258691524E+03 0.  0.
        -24    2    5    5    0    0  0.11028447907E+02  0.42877539880E+02 -0.44803129356E+03  0.45767020358E+03  0.82279190189E+02 0.  0.
          5    1    3    3  502    0 -0.27040701137E+02 -0.46399388417E+02  0.76805945953E+02  0.93836805664E+02  0.47000000000E+01 0. -1.
        -13    1    4    4    0    0  0.66115528667E+01  0.21515113678E+02 -0.77620714812E+01  0.23808874429E+02  0.00000000000E+00 0.  1.
         14    1    4    4    0    0 -0.10090340913E+03 -0.25922571058E+02 -0.18252526096E+02  0.10576687749E+03  0.00000000000E+00 0. -1.
         -5    1    5    5    0  501  0.11030410950E+03  0.79293059169E+01 -0.25237069652E+03  0.27557744633E+03  0.47000000000E+01 0.  1.
         11    1    6    6    0    0  0.24474316495E+02  0.16564877884E+02 -0.40125843739E+03  0.40234527575E+03  0.00000000000E+00 0. -1.
        -12    1    6    6    0    0 -0.13445868589E+02  0.26312661996E+02 -0.46772856177E+02  0.55324927821E+02  0.00000000000E+00 0.  1.
<mgrwt>
<rscale>  2 0.21728123E+03</rscale>
<asrwt>0</asrwt>
<pdfrwt beam="2">  1        1 0.12355930E+00 0.21728123E+03</pdfrwt>
<pdfrwt beam="1">  1       -1 0.23619197E-01 0.21728123E+03</pdfrwt>
<totfact> 0.35538322E+02</totfact>
</mgrwt>
</event>
<event>
12    1  0.4404304E-002  0.1733291E+03  0.7546771E-02  0.1174420E+00
         -1   -1    0    0    0  501 -0.00000000000E+00  0.00000000000E+00  0.61523499749E+03  0.61523499749E+03  0.00000000000E+00 0.  1.
          1   -1    0    0  502    0  0.00000000000E+00 -0.00000000000E+00 -0.51846059445E+02  0.51846059445E+02  0.00000000000E+00 0. -1.
          6    2    1    2  502    0  0.12046717020E+02  0.34112933266E+01  0.20139121541E+03  0.26576073602E+03  0.17295544759E+03 0.  0.
         24    2    3    3    0    0 -0.51442477011E+02  0.29071079711E+02  0.86606874213E+02  0.13201905448E+03  0.80229819694E+02 0.  0.
         -6    2    1    2    0  501 -0.12046717020E+02 -0.34112933266E+01  0.36199772263E+03  0.40132032092E+03  0.17279724673E+03 0.  0.
        -24    2    5    5    0    0  0.35142513479E+02  0.48908459293E+02  0.19261205894E+03  0.21780527234E+03  0.81931054955E+02 0.  0.
          5    1    3    3  502    0  0.63489194032E+02 -0.25659786385E+02  0.11478434120E+03  0.13374168154E+03  0.47000000000E+01 0. -1.
        -11    1    4    4    0    0  0.14344727794E+02  0.30612685749E+02  0.27904137730E+02  0.43835472471E+02  0.00000000000E+00 0.  1.
         12    1    4    4    0    0 -0.65787204806E+02 -0.15416060379E+01  0.58702736483E+02  0.88183582009E+02  0.00000000000E+00 0. -1.
         -5    1    5    5    0  501 -0.47189230499E+02 -0.52319752620E+02  0.16938566369E+03  0.18351504857E+03  0.47000000000E+01 0.  1.
         11    1    6    6    0    0 -0.79721034159E+01  0.40340916995E+02  0.34438568953E+02  0.53637291584E+02  0.00000000000E+00 0. -1.
        -12    1    6    6    0    0  0.43114616894E+02  0.85675422979E+01  0.15817348999E+03  0.16416798076E+03  0.00000000000E+00 0.  1.
<mgrwt>
<rscale>  2 0.17332912E+03</rscale>
<asrwt>0</asrwt>
<pdfrwt beam="2">  1        1 0.79763173E-02 0.17332912E+03</pdfrwt>
<pdfrwt beam="1">  1       -1 0.94651533E-01 0.17332912E+03</pdfrwt>
<totfact> 0.98478430E+02</totfact>
</mgrwt>
</event>
<event>
12    1  0.4404304E-002  0.2408751E+03  0.7546771E-02  0.1119211E+00
         -4   -1    0    0    0  501 -0.00000000000E+00  0.00000000000E+00  0.16451986837E+04  0.16451986837E+04  0.00000000000E+00 0.  1.
          4   -1    0    0  502    0  0.00000000000E+00 -0.00000000000E+00 -0.35743974542E+02  0.35743974542E+02  0.00000000000E+00 0. -1.
          6    2    1    2  502    0 -0.16387452169E+03  0.35280465620E+02  0.90201375190E+03  0.93363517290E+03  0.17304986953E+03 0.  0.
         24    2    3    3    0    0 -0.16099932152E+03  0.31394483614E+02  0.90704498014E+03  0.92522262930E+03  0.79999516541E+02 0.  0.
         -6    2    1    2    0  501  0.16387452169E+03 -0.35280465620E+02  0.70744095726E+03  0.74730748534E+03  0.17290517498E+03 0.  0.
        -24    2    5    5    0    0  0.76552079932E+01 -0.24739809256E+02  0.24727753444E+03  0.26121279796E+03  0.80095483057E+02 0.  0.
          5    1    3    3  502    0 -0.28752001639E+01  0.38859820059E+01 -0.50312282393E+01  0.84125435944E+01  0.47000000000E+01 0. -1.
        -11    1    4    4    0    0 -0.14100414813E+03  0.44213348238E+02  0.85910477260E+03  0.87172128588E+03  0.00000000000E+00 0.  1.
         12    1    4    4    0    0 -0.19995173389E+02 -0.12818864625E+02  0.47940207541E+02  0.53501343425E+02  0.00000000000E+00 0. -1.
         -5    1    5    5    0  501  0.15621931369E+03 -0.10540656364E+02  0.46016342281E+03  0.48609468738E+03  0.47000000000E+01 0.  1.
         13    1    6    6    0    0 -0.11371239252E+02 -0.19129605522E+02  0.12353938432E+02  0.25453225422E+02  0.00000000000E+00 0. -1.
        -14    1    6    6    0    0  0.19026447246E+02 -0.56102037333E+01  0.23492359601E+03  0.23575957254E+03  0.00000000000E+00 0.  1.
<mgrwt>
<rscale>  2 0.24087506E+03</rscale>
<asrwt>0</asrwt>
<pdfrwt beam="2">  1        4 0.54990743E-02 0.24087506E+03</pdfrwt>
<pdfrwt beam="1">  1       -4 0.25310743E+00 0.24087506E+03</pdfrwt>
<totfact> 0.25635200E+01</totfact>
</mgrwt>
</event>
<event>
12    1  0.4404304E-002  0.1818691E+03  0.7546771E-02  0.1166006E+00
          2   -1    0    0  502    0  0.00000000000E+00  0.00000000000E+00  0.52343599755E+02  0.52343599755E+02  0.00000000000E+00 0.  1.
         -2   -1    0    0    0  501 -0.00000000000E+00 -0.00000000000E+00 -0.70693197529E+03  0.70693197529E+03  0.00000000000E+00 0. -1.
          6    2    1    2  502    0 -0.42662204993E+02  0.14919710729E+01 -0.20928938359E+03  0.27953171781E+03  0.18031540552E+03 0.  0.
         24    2    3    3    0    0 -0.51777260272E+02  0.26254324013E+02 -0.37962154564E+02  0.10612073846E+03  0.80313832813E+02 0.  0.
         -6    2    1    2    0  501  0.42662204993E+02 -0.14919710729E+01 -0.44529899194E+03  0.47974385723E+03  0.17332249309E+03 0.  0.
        -24    2    5    5    0    0  0.92267307829E+02 -0.82724830692E+00 -0.36769130851E+03  0.38751506231E+03  0.80355987525E+02 0.  0.
          5    1    3    3  502    0  0.91150552791E+01 -0.24762352940E+02 -0.17132722902E+03  0.17341097936E+03  0.47000000000E+01 0. -1.
        -11    1    4    4    0    0  0.52345547627E+01  0.85997720618E+00  0.20154079615E+02  0.20840514617E+02  0.00000000000E+00 0.  1.
         12    1    4    4    0    0 -0.57011815035E+02  0.25394346806E+02 -0.58116234179E+02  0.85280223841E+02  0.00000000000E+00 0. -1.
         -5    1    5    5    0  501 -0.49605102836E+02 -0.66472276595E+00 -0.77607683433E+02  0.92228794915E+02  0.47000000000E+01 0.  1.
         11    1    6    6    0    0  0.21585280181E+02 -0.33378245064E+02 -0.17990139005E+03  0.18424044536E+03  0.00000000000E+00 0. -1.
        -12    1    6    6    0    0  0.70682027649E+02  0.32550996757E+02 -0.18778991846E+03  0.20327461696E+03  0.00000000000E+00 0.  1.
<mgrwt>
<rscale>  2 0.18186905E+03</rscale>
<asrwt>0</asrwt>
<pdfrwt beam="1">  1        2 0.80528620E-02 0.18186905E+03</pdfrwt>
<pdfrwt beam="2">  1       -2 0.10875876E+00 0.18186905E+03</pdfrwt>
<totfact> 0.58735169E+02</totfact>
</mgrwt>
</event>
<event>
12    1  0.4404304E-002  0.1751729E+03  0.7546771E-02  0.1172558E+00
          2   -1    0    0  502    0  0.00000000000E+00  0.00000000000E+00  0.58879425289E+03  0.58879425289E+03  0.00000000000E+00 0.  1.
         -2   -1    0    0    0  501 -0.00000000000E+00 -0.00000000000E+00 -0.57574706817E+02  0.57574706817E+02  0.00000000000E+00 0. -1.
          6    2    1    2  502    0  0.24982558382E+02  0.12592845270E+02  0.36577830008E+03  0.40576821581E+03  0.17341099209E+03 0.  0.
         24    2    3    3    0    0  0.63830137616E+02 -0.25407922034E+02  0.31587534711E+03  0.33183860440E+03  0.74965161828E+02 0.  0.
         -6    2    1    2    0  501 -0.24982558382E+02 -0.12592845270E+02  0.16544124599E+03  0.24060074389E+03  0.17243898664E+03 0.  0.
        -24    2    5    5    0    0 -0.72069404488E+02  0.26166154563E+02  0.12596622761E+03  0.16780103084E+03  0.80068899990E+02 0.  0.
          5    1    3    3  502    0 -0.38847579235E+02  0.38000767304E+02  0.49902952970E+02  0.73929611410E+02  0.47000000000E+01 0. -1.
        -13    1    4    4    0    0  0.48649230690E+02  0.20743038339E+02  0.15387286998E+03  0.16270796355E+03  0.00000000000E+00 0.  1.
         14    1    4    4    0    0  0.15180906927E+02 -0.46150960373E+02  0.16200247714E+03  0.16913064086E+03  0.00000000000E+00 0. -1.
         -5    1    5    5    0  501  0.47086846107E+02 -0.38758999833E+02  0.39475018382E+02  0.72799713053E+02  0.47000000000E+01 0.  1.
         11    1    6    6    0    0 -0.70834374967E+02 -0.11492412650E+02  0.94833507262E+02  0.11892425457E+03  0.00000000000E+00 0. -1.
        -12    1    6    6    0    0 -0.12350295213E+01  0.37658567213E+02  0.31132720346E+02  0.48876776271E+02  0.00000000000E+00 0.  1.
<mgrwt>
<rscale>  2 0.17517287E+03</rscale>
<asrwt>0</asrwt>
<pdfrwt beam="1">  1        2 0.90583727E-01 0.17517287E+03</pdfrwt>
<pdfrwt beam="2">  1       -2 0.88576476E-02 0.17517287E+03</pdfrwt>
<totfact> 0.40729564E+03</totfact>
</mgrwt>
</event>
<event>
12    1  0.4404304E-002  0.2924502E+03  0.7546771E-02  0.1089077E+00
         -1   -1    0    0    0  501 -0.00000000000E+00  0.00000000000E+00  0.40531857632E+03  0.40531857632E+03  0.00000000000E+00 0.  1.
          1   -1    0    0  502    0  0.00000000000E+00 -0.00000000000E+00 -0.21138370427E+03  0.21138370427E+03  0.00000000000E+00 0. -1.
          6    2    1    2  502    0 -0.44422279773E+02 -0.23097479152E+03  0.84180261716E+02  0.30471443618E+03  0.17447600952E+03 0.  0.
         24    2    3    3    0    0 -0.78116900686E+02 -0.23149721756E+03  0.65138083367E+02  0.26572347616E+03  0.81687110142E+02 0.  0.
         -6    2    1    2    0  501  0.44422279773E+02  0.23097479152E+03  0.10975461033E+03  0.31198784442E+03  0.17311166141E+03 0.  0.
        -24    2    5    5    0    0  0.45878167643E+02  0.12886539546E+03 -0.44351729458E+01  0.15872387285E+03  0.80389679947E+02 0.  0.
          5    1    3    3  502    0  0.33694620914E+02  0.52242604335E+00  0.19042178348E+02  0.38990960026E+02  0.47000000000E+01 0. -1.
        -13    1    4    4    0    0 -0.53493287001E+02 -0.46178420624E+02  0.17667448890E+02  0.72843098753E+02  0.00000000000E+00 0.  1.
         14    1    4    4    0    0 -0.24623613685E+02 -0.18531879694E+03  0.47470634477E+02  0.19288037740E+03  0.00000000000E+00 0. -1.
         -5    1    5    5    0  501 -0.14558878696E+01  0.10210939606E+03  0.11418978328E+03  0.15326397156E+03  0.47000000000E+01 0.  1.
         11    1    6    6    0    0  0.19620483324E+02  0.10730194247E+03  0.27067970759E+02  0.11238925778E+03  0.00000000000E+00 0. -1.
        -12    1    6    6    0    0  0.26257684318E+02  0.21563452985E+02 -0.31503143704E+02  0.46334615070E+02  0.00000000000E+00 0.  1.
<mgrwt>
<rscale>  2 0.29245021E+03</rscale>
<asrwt>0</asrwt>
<pdfrwt beam="2">  1        1 0.32520570E-01 0.29245021E+03</pdfrwt>
<pdfrwt beam="1">  1       -1 0.62356704E-01 0.29245021E+03</pdfrwt>
<totfact> 0.37003360E+02</totfact>
</mgrwt>
</event>
<event>
11    1  0.4404304E-002  0.1737875E+03  0.7546771E-02  0.1173955E+00
         -2   -1    0    0    0  501 -0.00000000000E+00  0.00000000000E+00  0.36173973900E+02  0.36173973900E+02  0.00000000000E+00 0.  1.
          2   -1    0    0  502    0  0.00000000000E+00 -0.00000000000E+00 -0.89959134990E+03  0.89959134990E+03  0.00000000000E+00 0. -1.
          6    2    1    2  502    0 -0.13401144494E+02  0.29069512950E+01 -0.30678278491E+03  0.35270069471E+03  0.17347640154E+03 0.  0.
         -6    2    1    2    0  501  0.13401144494E+02 -0.29069512950E+01 -0.55663459109E+03  0.58306462909E+03  0.17301518043E+03 0.  0.
        -24    2    4    4    0    0 -0.24660084342E+02  0.50602316630E+02 -0.41943960031E+03  0.43089217958E+03  0.81054166507E+02 0.  0.
          5    1    3    3  502    0 -0.49430441447E+02 -0.37385790246E+02 -0.27907137798E+03  0.28590905873E+03  0.47000000000E+01 0. -1.
        -11    1    3    3    0    0  0.14206091520E+02  0.91925062945E+01  0.39033434034E+01  0.17365232448E+02  0.00000000000E+00 0.  1.
         12    1    3    3    0    0  0.21823205432E+02  0.31100235246E+02 -0.31614750331E+02  0.49426403533E+02  0.00000000000E+00 0. -1.
         -5    1    4    4    0  501  0.38061228836E+02 -0.53509267925E+02 -0.13719499078E+03  0.15217244951E+03  0.47000000000E+01 0.  1.
         11    1    5    5    0    0  0.13160176478E+02 -0.41490089743E+01 -0.22419463656E+03  0.22461887628E+03  0.00000000000E+00 0. -1.
        -12    1    5    5    0    0 -0.37820260820E+02  0.54751325604E+02 -0.19524496375E+03  0.20627330330E+03  0.00000000000E+00 0.  1.
<mgrwt>
<rscale>  2 0.17378749E+03</rscale>
<asrwt>0</asrwt>
<pdfrwt beam="2">  1        2 0.13839866E+00 0.17378749E+03</pdfrwt>
<pdfrwt beam="1">  1       -2 0.55652271E-02 0.17378749E+03</pdfrwt>
<totfact> 0.49672150E+03</totfact>
</mgrwt>
</event>
<event>
12    1  0.4404304E-002  0.2024521E+03  0.7546771E-02  0.1147687E+00
          2   -1    0    0  502    0  0.00000000000E+00  0.00000000000E+00  0.57280022877E+03  0.57280022877E+03  0.00000000000E+00 0.  1.
         -2   -1    0    0    0  501 -0.00000000000E+00 -0.00000000000E+00 -0.99459467570E+02  0.99459467570E+02  0.00000000000E+00 0. -1.
          6    2    1    2  502    0 -0.84275801112E+02  0.60188282363E+02  0.41544761415E+03  0.46253912071E+03  0.17498765127E+03 0.  0.
         24    2    3    3    0    0 -0.13333335635E+02  0.75002192674E+02  0.34237681069E+03  0.35951622197E+03  0.78910877667E+02 0.  0.
         -6    2    1    2    0  501  0.84275801112E+02 -0.60188282363E+02  0.57893147053E+02  0.20972057564E+03  0.17293369649E+03 0.  0.
        -24    2    5    5    0    0  0.99601459026E+02 -0.88835883961E+02  0.74163610636E+02  0.17308208695E+03  0.81516272989E+02 0.  0.
          5    1    3    3  502    0 -0.70942465477E+02 -0.14813910311E+02  0.73070803458E+02  0.10302289874E+03  0.47000000000E+01 0. -1.
        -11    1    4    4    0    0  0.31713238204E+02  0.46642213294E+02  0.17078339099E+03  0.17985603180E+03  0.00000000000E+00 0.  1.
         12    1    4    4    0    0 -0.45046573839E+02  0.28359979381E+02  0.17159341970E+03  0.17966019017E+03  0.00000000000E+00 0. -1.
         -5    1    5    5    0  501 -0.15325657914E+02  0.28647601597E+02 -0.16270463583E+02  0.36638488683E+02  0.47000000000E+01 0.  1.
         11    1    6    6    0    0  0.58524599967E+02 -0.36550591896E+02 -0.56141741343E+01  0.69228560006E+02  0.00000000000E+00 0. -1.
        -12    1    6    6    0    0  0.41076859059E+02 -0.52285292064E+02  0.79777784770E+02  0.10385352695E+03  0.00000000000E+00 0.  1.
<mgrwt>
<rscale>  2 0.20245210E+03</rscale>
<asrwt>0</asrwt>
<pdfrwt beam="1">  1        2 0.88123110E-01 0.20245210E+03</pdfrwt>
<pdfrwt beam="2">  1       -2 0.15301457E-01 0.20245210E+03</pdfrwt>
<totfact> 0.17541158E+03</totfact>
</mgrwt>
</event>
<event>
12    1  0.4404304E-002  0.1737687E+03  0.7546771E-02  0.1173974E+00
          3   -1    0    0  502    0  0.00000000000E+00  0.00000000000E+00  0.16648026090E+02  0.16648026090E+02  0.00000000000E+00 0.  1.
         -3   -1    0    0    0  501 -0.00000000000E+00 -0.00000000000E+00 -0.18794583509E+04  0.18794583509E+04  0.00000000000E+00 0. -1.
          6    2    1    2  502    0  0.10421065252E+01 -0.13836502715E+02 -0.74624225884E+03  0.76585404465E+03  0.17164607204E+03 0.  0.
         24    2    3    3    0    0 -0.19741250157E+02  0.32120887070E+02 -0.21917019708E+03  0.23635326290E+03  0.80036374562E+02 0.  0.
         -6    2    1    2    0  501 -0.10421065252E+01  0.13836502715E+02 -0.11165680659E+04  0.11302523323E+04  0.17479574939E+03 0.  0.
        -24    2    5    5    0    0  0.51577618459E+02  0.13938924920E+02 -0.96658715178E+03  0.97123909210E+03  0.78486353478E+02 0.  0.
          5    1    3    3  502    0  0.20783356682E+02 -0.45957389785E+02 -0.52707206175E+03  0.52950078175E+03  0.47000000000E+01 0. -1.
        -11    1    4    4    0    0  0.24114274950E+02 -0.11368155262E+02 -0.69772917423E+02  0.74692658382E+02  0.00000000000E+00 0.  1.
         12    1    4    4    0    0 -0.43855525107E+02  0.43489042332E+02 -0.14939727966E+03  0.16166060452E+03  0.00000000000E+00 0. -1.
         -5    1    5    5    0  501 -0.52619724984E+02 -0.10242220429E+00 -0.14998091417E+03  0.15901324021E+03  0.47000000000E+01 0.  1.
         13    1    6    6    0    0  0.34698846078E+02  0.65497360187E+01 -0.92591431829E+03  0.92658741292E+03  0.00000000000E+00 0. -1.
        -14    1    6    6    0    0  0.16878772381E+02  0.73891889009E+01 -0.40672833487E+02  0.44651679179E+02  0.00000000000E+00 0.  1.
<mgrwt>
<rscale>  2 0.17376873E+03</rscale>
<asrwt>0</asrwt>
<pdfrwt beam="1">  1        3 0.25612341E-02 0.17376873E+03</pdfrwt>
<pdfrwt beam="2">  1       -3 0.28914752E+00 0.17376873E+03</pdfrwt>
<totfact> 0.80155816E+01</totfact>
</mgrwt>
</event>
<event>
12    1  0.4404304E-002  0.1811617E+03  0.7546771E-02  0.1166683E+00
         -2   -1    0    0    0  501 -0.00000000000E+00  0.00000000000E+00  0.15926221671E+02  0.15926221671E+02  0.00000000000E+00 0. -1.
          2   -1    0    0  502    0  0.00000000000E+00 -0.00000000000E+00 -0.24554735824E+04  0.24554735824E+04  0.00000000000E+00 0.  1.
          6    2    1    2  502    0  0.42862476734E+02  0.43309269878E+02 -0.71297738030E+03  0.73513624767E+03  0.16845080308E+03 0.  0.
         24    2    3    3    0    0 -0.36247402278E+02  0.23280554926E+02 -0.47269203427E+03  0.48132793438E+03  0.79893446199E+02 0.  0.
         -6    2    1    2    0  501 -0.42862476734E+02 -0.43309269878E+02 -0.17265699804E+04  0.17362635563E+04  0.17278412884E+03 0.  0.
        -24    2    5    5    0    0  0.14583670681E+02 -0.23742845602E+02 -0.14763217716E+04  0.14787190732E+04  0.79421142775E+02 0.  0.
          5    1    3    3  502    0  0.79109879012E+02  0.20028714952E+02 -0.24028534603E+03  0.25380831329E+03  0.47000000000E+01 0. -1.
        -11    1    4    4    0    0 -0.59772364593E+01  0.47034798607E+02 -0.18091419248E+03  0.18702391472E+03  0.00000000000E+00 0.  1.
         12    1    4    4    0    0 -0.30270165818E+02 -0.23754243681E+02 -0.29177784179E+03  0.29430401966E+03  0.00000000000E+00 0. -1.
         -5    1    5    5    0  501 -0.57446147415E+02 -0.19566424276E+02 -0.25024820879E+03  0.25754448317E+03  0.47000000000E+01 0.  1.
         13    1    6    6    0    0 -0.16978221588E+02  0.22043922498E+02 -0.40474863536E+03  0.40570389739E+03  0.00000000000E+00 0. -1.
        -14    1    6    6    0    0  0.31561892269E+02 -0.45786768100E+02 -0.10715731362E+04  0.10730151758E+04  0.00000000000E+00 0.  1.
<mgrwt>
<rscale>  2 0.18116173E+03</rscale>
<asrwt>0</asrwt>
<pdfrwt beam="2">  1        2 0.37776481E+00 0.18116173E+03</pdfrwt>
<pdfrwt beam="1">  1       -2 0.24501903E-02 0.18116173E+03</pdfrwt>
<totfact> 0.24462246E+03</totfact>
</mgrwt>
</event>
<event>
12    1  0.4404304E-002  0.1879380E+03  0.7546771E-02  0.1160334E+00
          2   -1    0    0  502    0  0.00000000000E+00  0.00000000000E+00  0.18390086236E+04  0.18390086236E+04  0.00000000000E+00 0. -1.
         -2   -1    0    0    0  501 -0.00000000000E+00 -0.00000000000E+00 -0.22884673236E+02  0.22884673236E+02  0.00000000000E+00 0.  1.
          6    2    1    2  502    0  0.63804513098E+01 -0.64046824828E+02  0.12900229336E+04  0.13039605416E+04  0.17891679290E+03 0.  0.
         24    2    3    3    0    0 -0.39058333362E+02 -0.98411069460E+02  0.89578601646E+03  0.90560087831E+03  0.80436754745E+02 0.  0.
         -6    2    1    2    0  501 -0.63804513098E+01  0.64046824828E+02  0.52610101677E+03  0.55793275529E+03  0.17425261447E+03 0.  0.
        -24    2    5    5    0    0  0.62042051980E+02  0.29204666300E+02  0.25879262324E+03  0.27977545767E+03  0.81231497119E+02 0.  0.
          5    1    3    3  502    0  0.45438784671E+02  0.34364244633E+02  0.39423691716E+03  0.39835966326E+03  0.47000000000E+01 0. -1.
        -11    1    4    4    0    0 -0.51639292428E+02 -0.48495714258E+02  0.33222800476E+03  0.33969677356E+03  0.00000000000E+00 0.  1.
         12    1    4    4    0    0  0.12580959066E+02 -0.49915355203E+02  0.56355801170E+03  0.56590410475E+03  0.00000000000E+00 0. -1.
         -5    1    5    5    0  501 -0.68422503290E+02  0.34842158528E+02  0.26730839353E+03  0.27815729762E+03  0.47000000000E+01 0.  1.
         13    1    6    6    0    0 -0.13472363247E+02  0.27435133302E+02  0.66894731924E+02  0.73546558519E+02  0.00000000000E+00 0. -1.
        -14    1    6    6    0    0  0.75514415228E+02  0.17695329982E+01  0.19189789132E+03  0.20622889915E+03  0.00000000000E+00 0.  1.
<mgrwt>
<rscale>  2 0.18793802E+03</rscale>
<asrwt>0</asrwt>
<pdfrwt beam="1">  1        2 0.28292429E+00 0.18793802E+03</pdfrwt>
<pdfrwt beam="2">  1       -2 0.35207204E-02 0.18793802E+03</pdfrwt>
<totfact> 0.30089435E+03</totfact>
</mgrwt>
</event>
<event>
12    1  0.4404304E-002  0.2093575E+03  0.7546771E-02  0.1142076E+00
         -1   -1    0    0    0  501 -0.00000000000E+00  0.00000000000E+00  0.66900745214E+02  0.66900745214E+02  0.00000000000E+00 0. -1.
          1   -1    0    0  502    0  0.00000000000E+00 -0.00000000000E+00 -0.86401353201E+03  0.86401353201E+03  0.00000000000E+00 0.  1.
          6    2    1    2  502    0  0.71955383609E+02 -0.93438207555E+02 -0.62743782369E+03  0.66145238704E+03  0.17301087210E+03 0.  0.
         24    2    3    3    0    0  0.47815813719E+02 -0.60941312048E+02 -0.17322449179E+03  0.20541444133E+03  0.78664938799E+02 0.  0.
         -6    2    1    2    0  501 -0.71955383609E+02  0.93438207555E+02 -0.16967496311E+03  0.26946189019E+03  0.17295040126E+03 0.  0.
        -24    2    5    5    0    0 -0.74567962920E+02  0.13024894666E+03 -0.12476266656E+03  0.21114327853E+03  0.80564209798E+02 0.  0.
          5    1    3    3  502    0  0.24139569890E+02 -0.32496895507E+02 -0.45421333190E+03  0.45603794571E+03  0.47000000000E+01 0. -1.
        -11    1    4    4    0    0  0.67695843454E+00  0.15478478061E+02 -0.53892265219E+02  0.56075108615E+02  0.00000000000E+00 0.  1.
         12    1    4    4    0    0  0.47138855285E+02 -0.76419790109E+02 -0.11933222657E+03  0.14933933272E+03  0.00000000000E+00 0. -1.
         -5    1    5    5    0  501  0.26125793106E+01 -0.36810739107E+02 -0.44912296551E+02  0.58318611659E+02  0.47000000000E+01 0.  1.
         13    1    6    6    0    0 -0.26312115359E+02  0.11150659628E+03 -0.63688845529E+02  0.13108133915E+03  0.00000000000E+00 0. -1.
        -14    1    6    6    0    0 -0.48255847561E+02  0.18742350380E+02 -0.61073821031E+02  0.80061939378E+02  0.00000000000E+00 0.  1.
<mgrwt>
<rscale>  2 0.20935753E+03</rscale>
<asrwt>0</asrwt>
<pdfrwt beam="2">  1        1 0.13292515E+00 0.20935753E+03</pdfrwt>
<pdfrwt beam="1">  1       -1 0.10292423E-01 0.20935753E+03</pdfrwt>
<totfact> 0.11905773E+03</totfact>
</mgrwt>
</event>
<event>
12    1  0.4404304E-002  0.1977762E+03  0.7546771E-02  0.1151629E+00
         -1   -1    0    0    0  501 -0.00000000000E+00  0.00000000000E+00  0.21758147761E+02  0.21758147761E+02  0.00000000000E+00 0.  1.
          1   -1    0    0  502    0  0.00000000000E+00 -0.00000000000E+00 -0.18039889985E+04  0.18039889985E+04  0.00000000000E+00 0. -1.
          6    2    1    2  502    0  0.86985872862E+02 -0.24245142726E+02 -0.95603155406E+03  0.97686063611E+03  0.17918147505E+03 0.  0.
         24    2    3    3    0    0  0.37394638952E+02 -0.76841961821E+02 -0.42976054073E+03  0.44562717958E+03  0.81156729224E+02 0.  0.
         -6    2    1    2    0  501 -0.86985872862E+02  0.24245142726E+02 -0.82619929668E+03  0.84888651015E+03  0.17276764818E+03 0.  0.
        -24    2    5    5    0    0 -0.11847808074E+03 -0.15224510303E+02 -0.63415958991E+03  0.65026387387E+03  0.80099181349E+02 0.  0.
          5    1    3    3  502    0  0.49591233910E+02  0.52596819095E+02 -0.52627101334E+03  0.53123345653E+03  0.47000000000E+01 0. -1.
        -13    1    4    4    0    0  0.80976361547E+01 -0.74544711480E+02 -0.38393369722E+03  0.39118738424E+03  0.00000000000E+00 0.  1.
         14    1    4    4    0    0  0.29297002798E+02 -0.22972503409E+01 -0.45826843505E+02  0.54439795349E+02  0.00000000000E+00 0. -1.
         -5    1    5    5    0  501  0.31492207882E+02  0.39469653029E+02 -0.19203970677E+03  0.19862263628E+03  0.47000000000E+01 0.  1.
         11    1    6    6    0    0 -0.50479452724E+02 -0.44634842769E+02 -0.36104723726E+03  0.36728129801E+03  0.00000000000E+00 0. -1.
        -12    1    6    6    0    0 -0.67998628020E+02  0.29410332465E+02 -0.27311235265E+03  0.28298257586E+03  0.00000000000E+00 0.  1.
<mgrwt>
<rscale>  2 0.19777618E+03</rscale>
<asrwt>0</asrwt>
<pdfrwt beam="2">  1        1 0.27753668E+00 0.19777618E+03</pdfrwt>
<pdfrwt beam="1">  1       -1 0.33474085E-02 0.19777618E+03</pdfrwt>
<totfact> 0.14554745E+03</totfact>
</mgrwt>
</event>
<event>
12    1  0.4404304E-002  0.2495432E+03  0.7546771E-02  0.1113594E+00
         -2   -1    0    0    0  501 -0.00000000000E+00  0.00000000000E+00  0.47932650629E+02  0.47932650629E+02  0.00000000000E+00 0.  1.
          2   -1    0    0  502    0  0.00000000000E+00 -0.00000000000E+00 -0.24561488672E+04  0.24561488672E+04  0.00000000000E+00 0. -1.
          6    2    1    2  502    0 -0.12129070920E+03  0.13657385105E+03 -0.20599497418E+04  0.20748473357E+04  0.16803176752E+03 0.  0.
         24    2    3    3    0    0 -0.16618505649E+02  0.73156581201E+02 -0.67742876370E+03  0.68691204718E+03  0.85500705064E+02 0.  0.
         -6    2    1    2    0  501  0.12129070920E+03 -0.13657385105E+03 -0.34826647484E+03  0.42923418217E+03  0.17201335040E+03 0.  0.
        -24    2    5    5    0    0 -0.18611305590E+01 -0.24754535195E+02 -0.12305078865E+03  0.14920895056E+03  0.80657073585E+02 0.  0.
          5    1    3    3  502    0 -0.10467220355E+03  0.63417269853E+02 -0.13825209781E+04  0.13879352885E+04  0.47000000000E+01 0. -1.
        -11    1    4    4    0    0 -0.40449295151E+02  0.64573720065E+01 -0.31251903479E+03  0.31519198949E+03  0.00000000000E+00 0.  1.
         12    1    4    4    0    0  0.23830789502E+02  0.66699209194E+02 -0.36490972892E+03  0.37172005770E+03  0.00000000000E+00 0. -1.
         -5    1    5    5    0  501  0.12315183976E+03 -0.11181931586E+03 -0.22521568618E+03  0.28002523161E+03  0.47000000000E+01 0.  1.
         13    1    6    6    0    0  0.10014224617E+02  0.24324881935E+02 -0.75098832272E+02  0.79572728899E+02  0.00000000000E+00 0. -1.
        -14    1    6    6    0    0 -0.11875355176E+02 -0.49079417130E+02 -0.47951956380E+02  0.69636221660E+02  0.00000000000E+00 0.  1.
<mgrwt>
<rscale>  2 0.24954320E+03</rscale>
<asrwt>0</asrwt>
<pdfrwt beam="2">  1        2 0.37786904E+00 0.24954320E+03</pdfrwt>
<pdfrwt beam="1">  1       -2 0.73742543E-02 0.24954320E+03</pdfrwt>
<totfact> 0.45795202E+02</totfact>
</mgrwt>
</event>
<event>
12    1  0.4404304E-002  0.1858211E+03  0.7546771E-02  0.1162285E+00
          1   -1    0    0  502    0  0.00000000000E+00  0.00000000000E+00  0.35489006271E+03  0.35489006271E+03  0.00000000000E+00 0.  1.
         -1   -1    0    0    0  501 -0.00000000000E+00 -0.00000000000E+00 -0.97407219658E+02  0.97407219658E+02  0.00000000000E+00 0. -1.
          6    2    1    2  502    0 -0.29756710883E+02 -0.62543047030E+02  0.12082714242E+03  0.22128595337E+03  0.17196272921E+03 0.  0.
         24    2    3    3    0    0  0.20959204551E+02 -0.80539080496E+02  0.35922919226E+02  0.12065405775E+03  0.79631110654E+02 0.  0.
         -6    2    1    2    0  501  0.29756710883E+02  0.62543047030E+02  0.13665570064E+03  0.23101132900E+03  0.17289985262E+03 0.  0.
        -24    2    5    5    0    0  0.13554405138E+02  0.81135589923E+02  0.26500923039E+02  0.11803185127E+03  0.80389757684E+02 0.  0.
          5    1    3    3  502    0 -0.50715915434E+02  0.17996033466E+02  0.84904223191E+02  0.10063189561E+03  0.47000000000E+01 0. -1.
        -11    1    4    4    0    0  0.23387462521E+02 -0.46804091222E+02  0.59645173283E+02  0.79341937551E+02  0.00000000000E+00 0.  1.
         12    1    4    4    0    0 -0.24282579696E+01 -0.33734989274E+02 -0.23722254057E+02  0.41312120203E+02  0.00000000000E+00 0. -1.
         -5    1    5    5    0  501  0.16202305745E+02 -0.18592542893E+02  0.11015477760E+03  0.11297947774E+03  0.47000000000E+01 0.  1.
         11    1    6    6    0    0 -0.32351869921E+02  0.37117246966E+02  0.22974633411E+02  0.54333850315E+02  0.00000000000E+00 0. -1.
        -12    1    6    6    0    0  0.45906275059E+02  0.44018342957E+02  0.35262896280E+01  0.63698000950E+02  0.00000000000E+00 0.  1.
<mgrwt>
<rscale>  2 0.18582111E+03</rscale>
<asrwt>0</asrwt>
<pdfrwt beam="1">  1        1 0.54598470E-01 0.18582111E+03</pdfrwt>
<pdfrwt beam="2">  1       -1 0.14985726E-01 0.18582111E+03</pdfrwt>
<totfact> 0.22461189E+03</totfact>
</mgrwt>
</event>
<event>
12    1  0.4404304E-002  0.2015897E+03  0.7546771E-02  0.1148405E+00
         -2   -1    0    0    0  501 -0.00000000000E+00  0.00000000000E+00  0.23696946616E+02  0.23696946616E+02  0.00000000000E+00 0. -1.
          2   -1    0    0  502    0  0.00000000000E+00 -0.00000000000E+00 -0.17461420010E+04  0.17461420010E+04  0.00000000000E+00 0.  1.
          6    2    1    2  502    0  0.15202109493E+02 -0.11054488716E+03 -0.99653747593E+03  0.10176205139E+04  0.17324345038E+03 0.  0.
         24    2    3    3    0    0 -0.16143679781E+02 -0.67487183852E+02 -0.90794683717E+03  0.91414628714E+03  0.80503644608E+02 0.  0.
         -6    2    1    2    0  501 -0.15202109493E+02  0.11054488716E+03 -0.72590757842E+03  0.75221843371E+03  0.16260222447E+03 0.  0.
        -24    2    5    5    0    0 -0.52172083481E+02  0.70139740943E+02 -0.29454551924E+03  0.31736826307E+03  0.79523845103E+02 0.  0.
          5    1    3    3  502    0  0.31345789274E+02 -0.43057703312E+02 -0.88590638762E+02  0.10347422672E+03  0.47000000000E+01 0. -1.
        -11    1    4    4    0    0 -0.40357470617E+01 -0.83645396812E+02 -0.64283701073E+03  0.64826866500E+03  0.00000000000E+00 0.  1.
         12    1    4    4    0    0 -0.12107932720E+02  0.16158212960E+02 -0.26510982644E+03  0.26587762214E+03  0.00000000000E+00 0. -1.
         -5    1    5    5    0  501  0.36969973989E+02  0.40405146221E+02 -0.43136205917E+03  0.43485017065E+03  0.47000000000E+01 0.  1.
         13    1    6    6    0    0 -0.50841758581E+02  0.19276881844E+02 -0.22326955067E+03  0.22979507141E+03  0.00000000000E+00 0. -1.
        -14    1    6    6    0    0 -0.13303249002E+01  0.50862859099E+02 -0.71275968577E+02  0.87573191655E+02  0.00000000000E+00 0.  1.
<mgrwt>
<rscale>  2 0.20158968E+03</rscale>
<asrwt>0</asrwt>
<pdfrwt beam="2">  1        2 0.26863722E+00 0.20158968E+03</pdfrwt>
<pdfrwt beam="1">  1       -2 0.36456842E-02 0.20158968E+03</pdfrwt>
<totfact> 0.31916364E+03</totfact>
</mgrwt>
</event>
<event>
12    1  0.4404304E-002  0.1783355E+03  0.7546771E-02  0.1169424E+00
         -1   -1    0    0    0  501 -0.00000000000E+00  0.00000000000E+00  0.68035205702E+02  0.68035205702E+02  0.00000000000E+00 0. -1.
          1   -1    0    0  502    0  0.00000000000E+00 -0.00000000000E+00 -0.48406512209E+03  0.48406512209E+03  0.00000000000E+00 0.  1.
          6    2    1    2  502    0  0.15105444656E+02 -0.37197120093E+02 -0.15579752604E+03  0.23606683015E+03  0.17275091600E+03 0.  0.
         24    2    3    3    0    0 -0.48605661666E+02 -0.32693549897E+02 -0.13633616954E+03  0.16913237259E+03  0.81159286474E+02 0.  0.
         -6    2    1    2    0  501 -0.15105444656E+02  0.37197120093E+02 -0.26023239035E+03  0.31603349764E+03  0.17476977553E+03 0.  0.
        -24    2    5    5    0    0 -0.76009248790E+02  0.92551350887E+01 -0.14984137045E+03  0.18681161420E+03  0.81136178583E+02 0.  0.
          5    1    3    3  502    0  0.63711106321E+02 -0.45035701957E+01 -0.19461356496E+02  0.66934457567E+02  0.47000000000E+01 0. -1.
        -11    1    4    4    0    0 -0.57409341016E+01 -0.52171424241E+02 -0.80442434446E+02  0.96051033786E+02  0.00000000000E+00 0.  1.
         12    1    4    4    0    0 -0.42864727564E+02  0.19477874345E+02 -0.55893735095E+02  0.73081338801E+02  0.00000000000E+00 0. -1.
         -5    1    5    5    0  501  0.60903804135E+02  0.27941985004E+02 -0.11039101990E+03  0.12922188344E+03  0.47000000000E+01 0.  1.
         13    1    6    6    0    0 -0.26451486259E+02 -0.30243518976E+02 -0.26467262265E+02  0.48113070336E+02  0.00000000000E+00 0. -1.
        -14    1    6    6    0    0 -0.49557762531E+02  0.39498654065E+02 -0.12337410818E+03  0.13869854386E+03  0.00000000000E+00 0.  1.
<mgrwt>
<rscale>  2 0.17833548E+03</rscale>
<asrwt>0</asrwt>
<pdfrwt beam="2">  1        1 0.74471557E-01 0.17833548E+03</pdfrwt>
<pdfrwt beam="1">  1       -1 0.10466955E-01 0.17833548E+03</pdfrwt>
<totfact> 0.26376573E+03</totfact>
</mgrwt>
</event>
<event>
12    1  0.4404304E-002  0.2645080E+03  0.7546771E-02  0.1104465E+00
          1   -1    0    0  502    0  0.00000000000E+00  0.00000000000E+00  0.66348596147E+02  0.66348596147E+02  0.00000000000E+00 0.  1.
         -1   -1    0    0    0  501 -0.00000000000E+00 -0.00000000000E+00 -0.10680602979E+04  0.10680602979E+04  0.00000000000E+00 0. -1.
          6    2    1    2  502    0  0.61247179341E+02 -0.19015646567E+03 -0.43483765397E+03  0.50837203569E+03  0.17160315540E+03 0.  0.
         24    2    3    3    0    0  0.67997248782E+02 -0.19554330744E+03 -0.44356785643E+03  0.49522334994E+03  0.75052729079E+02 0.  0.
         -6    2    1    2    0  501 -0.61247179341E+02  0.19015646567E+03 -0.56687404775E+03  0.62603685833E+03  0.17511500096E+03 0.  0.
        -24    2    5    5    0    0 -0.78371269523E+02  0.54384045904E+02 -0.22199044796E+03  0.25496520509E+03  0.81411402673E+02 0.  0.
          5    1    3    3  502    0 -0.67500694410E+01  0.53868417673E+01  0.87302024648E+01  0.13148685743E+02  0.47000000000E+01 0. -1.
        -11    1    4    4    0    0  0.37737090499E+02 -0.43370095569E+02 -0.69114645931E+02  0.89899318524E+02  0.00000000000E+00 0.  1.
         12    1    4    4    0    0  0.30260158283E+02 -0.15217321187E+03 -0.37445321050E+03  0.40532403142E+03  0.00000000000E+00 0. -1.
         -5    1    5    5    0  501  0.17124090182E+02  0.13577241976E+03 -0.34488359979E+03  0.37107165323E+03  0.47000000000E+01 0.  1.
         11    1    6    6    0    0 -0.63097656605E+02  0.70302761088E+02 -0.20901555816E+03  0.22937152403E+03  0.00000000000E+00 0. -1.
        -12    1    6    6    0    0 -0.15273612918E+02 -0.15918715184E+02 -0.12974889807E+02  0.25593681059E+02  0.00000000000E+00 0.  1.
<mgrwt>
<rscale>  2 0.26450804E+03</rscale>
<asrwt>0</asrwt>
<pdfrwt beam="1">  1        1 0.10207477E-01 0.26450804E+03</pdfrwt>
<pdfrwt beam="2">  1       -1 0.16431696E+00 0.26450804E+03</pdfrwt>
<totfact> 0.18498844E+02</totfact>
</mgrwt>
</event>
<event>
12    1  0.4404304E-002  0.1978510E+03  0.7546771E-02  0.1151565E+00
         -2   -1    0    0    0  501 -0.00000000000E+00  0.00000000000E+00  0.18512763803E+03  0.18512763803E+03  0.00000000000E+00 0.  1.
          2   -1    0    0  502    0  0.00000000000E+00 -0.00000000000E+00 -0.24976617607E+03  0.24976617607E+03  0.00000000000E+00 0. -1.
          6    2    1    2  502    0 -0.82739839170E+02 -0.42069340404E+02 -0.11741093966E+03  0.22959559550E+03  0.17410657177E+03 0.  0.
         24    2    3    3    0    0 -0.10262680646E+03  0.32914438116E+01 -0.37873556937E+02  0.13577993869E+03  0.80365978059E+02 0.  0.
         -6    2    1    2    0  501  0.82739839170E+02  0.42069340404E+02  0.52772401617E+02  0.20529821860E+03  0.17534743169E+03 0.  0.
        -24    2    5    5    0    0 -0.25215044232E+02  0.17659587535E-01  0.25975759808E+02  0.86290862849E+02  0.78329905822E+02 0.  0.
          5    1    3    3  502    0  0.19886967285E+02 -0.45360784215E+02 -0.79537382724E+02  0.93815656812E+02  0.47000000000E+01 0. -1.
        -11    1    4    4    0    0 -0.15553922790E+02  0.30084669777E+02  0.64364672866E+01  0.34473757859E+02  0.00000000000E+00 0.  1.
         12    1    4    4    0    0 -0.87072883666E+02 -0.26793225966E+02 -0.44310024224E+02  0.10130618083E+03  0.00000000000E+00 0. -1.
         -5    1    5    5    0  501  0.10795488340E+03  0.42051680816E+02  0.26796641809E+02  0.11900735575E+03  0.47000000000E+01 0.  1.
         11    1    6    6    0    0 -0.11138617820E+01 -0.35008649218E+02 -0.25053332667E+01  0.35115849740E+02  0.00000000000E+00 0. -1.
        -12    1    6    6    0    0 -0.24101182450E+02  0.35026308806E+02  0.28481093074E+02  0.51175013109E+02  0.00000000000E+00 0.  1.
<mgrwt>
<rscale>  2 0.19785100E+03</rscale>
<asrwt>0</asrwt>
<pdfrwt beam="2">  1        2 0.38425565E-01 0.19785100E+03</pdfrwt>
<pdfrwt beam="1">  1       -2 0.28481175E-01 0.19785100E+03</pdfrwt>
<totfact> 0.14887803E+03</totfact>
</mgrwt>
</event>
<event>
12    1  0.4404304E-002  0.1826514E+03  0.7546771E-02  0.1165261E+00
         -1   -1    0    0    0  501 -0.00000000000E+00  0.00000000000E+00  0.60764161680E+02  0.60764161680E+02  0.00000000000E+00 0. -1.
          1   -1    0    0  502    0  0.00000000000E+00 -0.00000000000E+00 -0.59226945128E+03  0.59226945128E+03  0.00000000000E+00 0.  1.
          6    2    1    2  502    0  0.52781881624E+02 -0.29182925831E+02 -0.35500820823E+03  0.39959571119E+03  0.17322913813E+03 0.  0.
         24    2    3    3    0    0  0.98683700782E+02 -0.23403514037E+02 -0.19668851105E+03  0.23458784737E+03  0.77838875177E+02 0.  0.
         -6    2    1    2    0  501 -0.52781881624E+02  0.29182925831E+02 -0.17649708137E+03  0.25343790177E+03  0.17158665489E+03 0.  0.
        -24    2    5    5    0    0  0.16057653932E+02  0.60934526997E+02 -0.77135106876E+02  0.12837016890E+03  0.80982780387E+02 0.  0.
          5    1    3    3  502    0 -0.45901819158E+02 -0.57794117938E+01 -0.15831969719E+03  0.16500786381E+03  0.47000000000E+01 0. -1.
        -11    1    4    4    0    0  0.74728091896E+02 -0.11407862294E+02 -0.63481488396E+02  0.98713354768E+02  0.00000000000E+00 0.  1.
         12    1    4    4    0    0  0.23955608886E+02 -0.11995651743E+02 -0.13320702265E+03  0.13587449261E+03  0.00000000000E+00 0. -1.
         -5    1    5    5    0  501 -0.68839535556E+02 -0.31751601166E+02 -0.99361974489E+02  0.12506773288E+03  0.47000000000E+01 0.  1.
         13    1    6    6    0    0  0.26303057439E+01  0.77688701706E+02 -0.45294895047E+02  0.89967107314E+02  0.00000000000E+00 0. -1.
        -14    1    6    6    0    0  0.13427348188E+02 -0.16754174709E+02 -0.31840211829E+02  0.38403061582E+02  0.00000000000E+00 0.  1.
<mgrwt>
<rscale>  2 0.18265138E+03</rscale>
<asrwt>0</asrwt>
<pdfrwt beam="2">  1        1 0.91118377E-01 0.18265138E+03</pdfrwt>
<pdfrwt beam="1">  1       -1 0.93483326E-02 0.18265138E+03</pdfrwt>
<totfact> 0.23973643E+03</totfact>
</mgrwt>
</event>
<event>
12    1  0.4404304E-002  0.2088882E+03  0.7546771E-02  0.1142449E+00
          2   -1    0    0  502    0  0.00000000000E+00  0.00000000000E+00  0.40137195727E+03  0.40137195727E+03  0.00000000000E+00 0.  1.
         -2   -1    0    0    0  501 -0.00000000000E+00 -0.00000000000E+00 -0.14937290614E+03  0.14937290614E+03  0.00000000000E+00 0. -1.
          6    2    1    2  502    0 -0.22008530492E+02 -0.11589852443E+03 -0.17576551124E+02  0.20984095384E+03  0.17264833443E+03 0.  0.
         24    2    3    3    0    0  0.44182902647E+02 -0.58894304023E+02 -0.32879815042E+02  0.12103179411E+03  0.90260428854E+02 0.  0.
         -6    2    1    2    0  501  0.22008530492E+02  0.11589852443E+03  0.26957560225E+03  0.34090390957E+03  0.17212677553E+03 0.  0.
        -24    2    5    5    0    0  0.31197689789E+02  0.17854573034E+02  0.20529376805E+03  0.22321235821E+03  0.79913353279E+02 0.  0.
          5    1    3    3  502    0 -0.66191433138E+02 -0.57004220404E+02  0.15303263918E+02  0.88809159726E+02  0.47000000000E+01 0. -1.
        -13    1    4    4    0    0  0.64602152393E+02 -0.68274495709E+02 -0.27312720734E+02  0.97881712143E+02  0.00000000000E+00 0.  1.
         14    1    4    4    0    0 -0.20419249747E+02  0.93801916857E+01 -0.55670943082E+01  0.23150081972E+02  0.00000000000E+00 0. -1.
         -5    1    5    5    0  501 -0.91891592977E+01  0.98043951393E+02  0.64281834198E+02  0.11769155136E+03  0.47000000000E+01 0.  1.
         11    1    6    6    0    0 -0.18773071538E+02 -0.13324949827E+02  0.27217236117E+02  0.35647727062E+02  0.00000000000E+00 0. -1.
        -12    1    6    6    0    0  0.49970761327E+02  0.31179522861E+02  0.17807653193E+03  0.18756463115E+03  0.00000000000E+00 0.  1.
<mgrwt>
<rscale>  2 0.20888822E+03</rscale>
<asrwt>0</asrwt>
<pdfrwt beam="1">  1        2 0.61749531E-01 0.20888822E+03</pdfrwt>
<pdfrwt beam="2">  1       -2 0.22980447E-01 0.20888822E+03</pdfrwt>
<totfact> 0.13073701E+03</totfact>
</mgrwt>
</event>
<event>
12    1  0.4404304E-002  0.2191661E+03  0.7546771E-02  0.1134506E+00
          2   -1    0    0  502    0  0.00000000000E+00  0.00000000000E+00  0.87299414763E+03  0.87299414763E+03  0.00000000000E+00 0. -1.
         -2   -1    0    0    0  501 -0.00000000000E+00 -0.00000000000E+00 -0.55084076520E+02  0.55084076520E+02  0.00000000000E+00 0.  1.
          6    2    1    2  502    0  0.12442786455E+03 -0.19924348064E+02  0.40710218967E+03  0.46480243592E+03  0.18555279163E+03 0.  0.
         24    2    3    3    0    0  0.13884210194E+03  0.61769415789E+01  0.40416086964E+03  0.43447441383E+03  0.78145529879E+02 0.  0.
         -6    2    1    2    0  501 -0.12442786455E+03  0.19924348064E+02  0.41080788144E+03  0.46327578823E+03  0.17315330601E+03 0.  0.
        -24    2    5    5    0    0 -0.23566000534E+02 -0.44545923372E+02  0.19166945565E+03  0.21352937450E+03  0.79485331200E+02 0.  0.
          5    1    3    3  502    0 -0.14414237391E+02 -0.26101289643E+02  0.29413200261E+01  0.30328022093E+02  0.47000000000E+01 0. -1.
        -13    1    4    4    0    0  0.22142509136E+02 -0.23924640099E+02  0.44532671056E+02  0.55189110394E+02  0.00000000000E+00 0.  1.
         14    1    4    4    0    0  0.11669959280E+03  0.30101581678E+02  0.35962819859E+03  0.37928530343E+03  0.00000000000E+00 0. -1.
         -5    1    5    5    0  501 -0.10086186401E+03  0.64470271436E+02  0.21913842579E+03  0.24974641373E+03  0.47000000000E+01 0.  1.
         11    1    6    6    0    0 -0.95661348390E+01  0.23077476684E+02  0.54777850449E+02  0.60205429702E+02  0.00000000000E+00 0. -1.
        -12    1    6    6    0    0 -0.13999865695E+02 -0.67623400055E+02  0.13689160520E+03  0.15332394480E+03  0.00000000000E+00 0.  1.
<mgrwt>
<rscale>  2 0.21916608E+03</rscale>
<asrwt>0</asrwt>
<pdfrwt beam="1">  1        2 0.13430678E+00 0.21916608E+03</pdfrwt>
<pdfrwt beam="2">  1       -2 0.84744740E-02 0.21916608E+03</pdfrwt>
<totfact> 0.27179023E+03</totfact>
</mgrwt>
</event>
<event>
12    1  0.4404304E-002  0.2003955E+03  0.7546771E-02  0.1149406E+00
         -1   -1    0    0    0  501 -0.00000000000E+00  0.00000000000E+00  0.24176764821E+02  0.24176764821E+02  0.00000000000E+00 0.  1.
          1   -1    0    0  502    0  0.00000000000E+00 -0.00000000000E+00 -0.17885512285E+04  0.17885512285E+04  0.00000000000E+00 0. -1.
          6    2    1    2  502    0  0.12344859286E+02  0.10047112027E+03 -0.11174089979E+04  0.11349500540E+04  0.17106114406E+03 0.  0.
         24    2    3    3    0    0 -0.39659653847E+02  0.48714039875E+02 -0.37102554213E+03  0.38495430884E+03  0.81141365284E+02 0.  0.
         -6    2    1    2    0  501 -0.12344859286E+02 -0.10047112027E+03 -0.64696546578E+03  0.67777793929E+03  0.17484787534E+03 0.  0.
        -24    2    5    5    0    0  0.38535331639E+02 -0.11849134122E+03 -0.43129601913E+03  0.45540680264E+03  0.76510979939E+02 0.  0.
          5    1    3    3  502    0  0.52004513133E+02  0.51757080399E+02 -0.74638345578E+03  0.74999574520E+03  0.47000000000E+01 0. -1.
        -11    1    4    4    0    0 -0.83927996412E+01  0.18235594684E+02 -0.12218794878E+02  0.23500530794E+02  0.00000000000E+00 0.  1.
         12    1    4    4    0    0 -0.31266854206E+02  0.30478445191E+02 -0.35880674725E+03  0.36145377805E+03  0.00000000000E+00 0. -1.
         -5    1    5    5    0  501 -0.50880190925E+02  0.18020220950E+02 -0.21566944666E+03  0.22237113665E+03  0.47000000000E+01 0.  1.
         11    1    6    6    0    0  0.67217241782E+01 -0.10678254283E+03 -0.37225060061E+03  0.38732183347E+03  0.00000000000E+00 0. -1.
        -12    1    6    6    0    0  0.31813607461E+02 -0.11708798392E+02 -0.59045418514E+02  0.68084969170E+02  0.00000000000E+00 0.  1.
<mgrwt>
<rscale>  2 0.20039548E+03</rscale>
<asrwt>0</asrwt>
<pdfrwt beam="2">  1        1 0.27516172E+00 0.20039548E+03</pdfrwt>
<pdfrwt beam="1">  1       -1 0.37195023E-02 0.20039548E+03</pdfrwt>
<totfact> 0.12743330E+03</totfact>
</mgrwt>
</event>
<event>
12    1  0.4404304E-002  0.1791461E+03  0.7546771E-02  0.1168632E+00
          2   -1    0    0  502    0  0.00000000000E+00  0.00000000000E+00  0.61784128348E+03  0.61784128348E+03  0.00000000000E+00 0.  1.
         -2   -1    0    0    0  501 -0.00000000000E+00 -0.00000000000E+00 -0.52188696299E+02  0.52188696299E+02  0.00000000000E+00 0. -1.
          6    2    1    2  502    0  0.53845835328E+01 -0.56490045650E+02  0.30810903197E+03  0.35723072814E+03  0.17164643472E+03 0.  0.
         24    2    3    3    0    0 -0.52551611752E+01  0.26285532124E+02  0.21891711064E+03  0.23499207111E+03  0.81105032125E+02 0.  0.
         -6    2    1    2    0  501 -0.53845835328E+01  0.56490045650E+02  0.25754355521E+03  0.31279925163E+03  0.16820989862E+03 0.  0.
        -24    2    5    5    0    0  0.44139624343E+02 -0.17247687480E+01  0.94522150536E+02  0.13268906268E+03  0.81979687420E+02 0.  0.
          5    1    3    3  502    0  0.10639744708E+02 -0.82775577773E+02  0.89191921325E+02  0.12223865703E+03  0.47000000000E+01 0. -1.
        -11    1    4    4    0    0 -0.15201472251E+02 -0.23605126411E+02  0.12569358079E+03  0.12879116043E+03  0.00000000000E+00 0.  1.
         12    1    4    4    0    0  0.99463110758E+01  0.49890658534E+02  0.93223529849E+02  0.10620091069E+03  0.00000000000E+00 0. -1.
         -5    1    5    5    0  501 -0.49524207876E+02  0.58214814398E+02  0.16302140467E+03  0.18011018895E+03  0.47000000000E+01 0.  1.
         11    1    6    6    0    0 -0.81734632877E+01 -0.25305613416E+02  0.61066332622E+01  0.27284987489E+02  0.00000000000E+00 0. -1.
        -12    1    6    6    0    0  0.52313087631E+02  0.23580844668E+02  0.88415517274E+02  0.10540407519E+03  0.00000000000E+00 0.  1.
<mgrwt>
<rscale>  2 0.17914614E+03</rscale>
<asrwt>0</asrwt>
<pdfrwt beam="1">  1        2 0.95052500E-01 0.17914614E+03</pdfrwt>
<pdfrwt beam="2">  1       -2 0.80290306E-02 0.17914614E+03</pdfrwt>
<totfact> 0.44953462E+03</totfact>
</mgrwt>
</event>
<event>
12    1  0.4404304E-002  0.2002147E+03  0.7546771E-02  0.1149558E+00
          2   -1    0    0  502    0  0.00000000000E+00  0.00000000000E+00  0.29951324880E+04  0.29951324880E+04  0.00000000000E+00 0.  1.
         -2   -1    0    0    0  501 -0.00000000000E+00 -0.00000000000E+00 -0.19659254467E+02  0.19659254467E+02  0.00000000000E+00 0. -1.
          6    2    1    2  502    0 -0.69296340215E+02  0.70848005676E+02  0.23376362299E+04  0.23461648878E+04  0.17356587993E+03 0.  0.
         24    2    3    3    0    0 -0.10226225022E+03  0.18149892490E+02  0.12980932679E+04  0.13047545449E+04  0.80940125698E+02 0.  0.
         -6    2    1    2    0  501  0.69296340215E+02 -0.70848005676E+02  0.63783700365E+03  0.66862685469E+03  0.17436858925E+03 0.  0.
        -24    2    5    5    0    0  0.54680309210E+01 -0.10012902784E+03  0.45350601860E+03  0.47131635479E+03  0.80097913836E+02 0.  0.
          5    1    3    3  502    0  0.32965910006E+02  0.52698113186E+02  0.10395429620E+04  0.10414103428E+04  0.47000000000E+01 0. -1.
        -13    1    4    4    0    0 -0.96451840492E+02  0.21794550777E+02  0.12913689092E+04  0.12951492654E+04  0.00000000000E+00 0.  1.
         14    1    4    4    0    0 -0.58104097288E+01 -0.36446582862E+01  0.67243586810E+01  0.96052795332E+01  0.00000000000E+00 0. -1.
         -5    1    5    5    0  501  0.63828309293E+02  0.29281022161E+02  0.18433098504E+03  0.19731049991E+03  0.47000000000E+01 0.  1.
         11    1    6    6    0    0 -0.19559544833E+02 -0.31705011496E+02  0.56470227169E+02  0.67651090934E+02  0.00000000000E+00 0. -1.
        -12    1    6    6    0    0  0.25027575754E+02 -0.68424016341E+02  0.39703579143E+03  0.40366526385E+03  0.00000000000E+00 0.  1.
<mgrwt>
<rscale>  2 0.20021473E+03</rscale>
<asrwt>0</asrwt>
<pdfrwt beam="1">  1        2 0.46078925E+00 0.20021473E+03</pdfrwt>
<pdfrwt beam="2">  1       -2 0.30245031E-02 0.20021473E+03</pdfrwt>
<totfact> 0.89123302E+02</totfact>
</mgrwt>
</event>
<event>
12    1  0.4404304E-002  0.1783369E+03  0.7546771E-02  0.1169422E+00
          1   -1    0    0  502    0  0.00000000000E+00  0.00000000000E+00  0.18249540091E+03  0.18249540091E+03  0.00000000000E+00 0. -1.
         -1   -1    0    0    0  501 -0.00000000000E+00 -0.00000000000E+00 -0.19034716539E+03  0.19034716539E+03  0.00000000000E+00 0.  1.
          6    2    1    2  502    0  0.26069255609E+01 -0.39912352885E+02 -0.58100238636E+02  0.18761424364E+03  0.17384957496E+03 0.  0.
         24    2    3    3    0    0  0.30050311938E+02  0.30679939109E+02 -0.64008141529E+02  0.11149982673E+03  0.80566055304E+02 0.  0.
         -6    2    1    2    0  501 -0.26069255609E+01  0.39912352885E+02  0.50248474156E+02  0.18522832267E+03  0.17373782084E+03 0.  0.
        -24    2    5    5    0    0  0.44097114829E+02  0.27874700522E+02  0.82868345957E+02  0.12681326896E+03  0.80578458399E+02 0.  0.
          5    1    3    3  502    0 -0.27443386377E+02 -0.70592291994E+02  0.59079028927E+01  0.76114416909E+02  0.47000000000E+01 0. -1.
        -13    1    4    4    0    0  0.19280170443E+02  0.55436194271E+02 -0.60471548690E+02  0.84271613303E+02  0.00000000000E+00 0.  1.
         14    1    4    4    0    0  0.10770141495E+02 -0.24756255163E+02 -0.35365928389E+01  0.27228213426E+02  0.00000000000E+00 0. -1.
         -5    1    5    5    0  501 -0.46704040389E+02  0.12037652364E+02 -0.32619871801E+02  0.58415053706E+02  0.47000000000E+01 0.  1.
         13    1    6    6    0    0  0.19371307266E+02  0.54752971401E+02  0.40120657316E+02  0.70588969151E+02  0.00000000000E+00 0. -1.
        -14    1    6    6    0    0  0.24725807562E+02 -0.26878270879E+02  0.42747688641E+02  0.56224299811E+02  0.00000000000E+00 0.  1.
<mgrwt>
<rscale>  2 0.17833687E+03</rscale>
<asrwt>0</asrwt>
<pdfrwt beam="1">  1        1 0.28076215E-01 0.17833687E+03</pdfrwt>
<pdfrwt beam="2">  1       -1 0.29284179E-01 0.17833687E+03</pdfrwt>
<totfact> 0.17332474E+03</totfact>
</mgrwt>
</event>
<event>
12    1  0.4404304E-002  0.1784177E+03  0.7546771E-02  0.1169343E+00
         -1   -1    0    0    0  501 -0.00000000000E+00  0.00000000000E+00  0.36329852820E+02  0.36329852820E+02  0.00000000000E+00 0.  1.
          1   -1    0    0  502    0  0.00000000000E+00 -0.00000000000E+00 -0.88944186729E+03  0.88944186729E+03  0.00000000000E+00 0. -1.
          6    2    1    2  502    0 -0.32066107664E+02 -0.34071307873E+02 -0.36866573787E+03  0.40929805520E+03  0.17152662310E+03 0.  0.
         24    2    3    3    0    0 -0.73819152972E+02  0.17929316649E+02 -0.23520365378E+03  0.26002783167E+03  0.80765009448E+02 0.  0.
         -6    2    1    2    0  501  0.32066107664E+02  0.34071307873E+02 -0.48444627660E+03  0.51647366491E+03  0.17282292195E+03 0.  0.
        -24    2    5    5    0    0 -0.34865206315E+02  0.45814325168E+02 -0.40368491347E+03  0.41082241304E+03  0.49990105964E+02 0.  0.
          5    1    3    3  502    0  0.41753045309E+02 -0.52000624522E+02 -0.13346208409E+03  0.14927022353E+03  0.47000000000E+01 0. -1.
        -11    1    4    4    0    0 -0.23010335867E+02  0.12982073685E+02 -0.86588779085E+01  0.27802625065E+02  0.00000000000E+00 0.  1.
         12    1    4    4    0    0 -0.50808817105E+02  0.49472429641E+01 -0.22654477587E+03  0.23222520661E+03  0.00000000000E+00 0. -1.
         -5    1    5    5    0  501  0.66931313978E+02 -0.11743017295E+02 -0.80761363138E+02  0.10565125187E+03  0.47000000000E+01 0.  1.
         13    1    6    6    0    0 -0.72395789601E+01  0.85241990479E+01 -0.25079598752E+03  0.25104521670E+03  0.00000000000E+00 0. -1.
        -14    1    6    6    0    0 -0.27625627355E+02  0.37290126120E+02 -0.15288892595E+03  0.15977719634E+03  0.00000000000E+00 0.  1.
<mgrwt>
<rscale>  2 0.17841771E+03</rscale>
<asrwt>0</asrwt>
<pdfrwt beam="2">  1        1 0.13683721E+00 0.17841771E+03</pdfrwt>
<pdfrwt beam="1">  1       -1 0.55892083E-02 0.17841771E+03</pdfrwt>
<totfact> 0.28683154E+03</totfact>
</mgrwt>
</event>
<event>
12    1  0.4404304E-002  0.2684604E+03  0.7546771E-02  0.1102164E+00
          2   -1    0    0  502    0  0.00000000000E+00  0.00000000000E+00  0.36378244592E+03  0.36378244592E+03  0.00000000000E+00 0.  1.
         -2   -1    0    0    0  501 -0.00000000000E+00 -0.00000000000E+00 -0.22960700517E+03  0.22960700517E+03  0.00000000000E+00 0. -1.
          6    2    1    2  502    0  0.92699757959E+01  0.20550844173E+03  0.17677653716E+03  0.32071821942E+03  0.17114490966E+03 0.  0.
         24    2    3    3    0    0  0.31359235983E+02  0.17119855794E+03  0.66416270428E+02  0.20296176731E+03  0.80560598846E+02 0.  0.
         -6    2    1    2    0  501 -0.92699757959E+01 -0.20550844173E+03 -0.42601096414E+02  0.27267123166E+03  0.17382489778E+03 0.  0.
        -24    2    5    5    0    0 -0.57454347560E+02 -0.19477146318E+03 -0.45978762921E+02  0.22296695598E+03  0.79770244413E+02 0.  0.
          5    1    3    3  502    0 -0.22089260187E+02  0.34309883788E+02  0.11036026673E+03  0.11775645211E+03  0.47000000000E+01 0. -1.
        -11    1    4    4    0    0  0.25068053031E+02  0.30374872648E+02  0.45952483338E+02  0.60520004099E+02  0.00000000000E+00 0.  1.
         12    1    4    4    0    0  0.62911829518E+01  0.14082368530E+03  0.20463787089E+02  0.14244176321E+03  0.00000000000E+00 0. -1.
         -5    1    5    5    0  501  0.48184371764E+02 -0.10736978550E+02  0.33776665077E+01  0.49704275689E+02  0.47000000000E+01 0.  1.
         11    1    6    6    0    0 -0.15989630661E+01 -0.12279866783E+03 -0.45701590090E+01  0.12289408390E+03  0.00000000000E+00 0. -1.
        -12    1    6    6    0    0 -0.55855384494E+02 -0.71972795348E+02 -0.41408603912E+02  0.10007287207E+03  0.00000000000E+00 0.  1.
<mgrwt>
<rscale>  2 0.26846044E+03</rscale>
<asrwt>0</asrwt>
<pdfrwt beam="1">  1        2 0.55966531E-01 0.26846044E+03</pdfrwt>
<pdfrwt beam="2">  1       -2 0.35324154E-01 0.26846044E+03</pdfrwt>
<totfact> 0.67109678E+02</totfact>
</mgrwt>
</event>
<event>
12    1  0.4404304E-002  0.3206222E+03  0.7546771E-02  0.1075363E+00
          1   -1    0    0  502    0  0.00000000000E+00  0.00000000000E+00  0.70808073654E+03  0.70808073654E+03  0.00000000000E+00 0. -1.
         -1   -1    0    0    0  501 -0.00000000000E+00 -0.00000000000E+00 -0.33142266883E+03  0.33142266883E+03  0.00000000000E+00 0.  1.
          6    2    1    2  502    0 -0.25546981999E+03 -0.92981878013E+02 -0.20111458380E+03  0.37906807259E+03  0.17127483550E+03 0.  0.
         24    2    3    3    0    0 -0.13795279831E+03 -0.97889307784E+01 -0.46117052443E+02  0.16746079110E+03  0.82398642598E+02 0.  0.
         -6    2    1    2    0  501  0.25546981999E+03  0.92981878013E+02  0.57777265150E+03  0.66043533278E+03  0.16865092174E+03 0.  0.
        -24    2    5    5    0    0  0.26852208261E+03  0.10420466913E+03  0.56088755787E+03  0.63586891288E+03  0.82290338904E+02 0.  0.
          5    1    3    3  502    0 -0.11751702168E+03 -0.83192947234E+02 -0.15499753135E+03  0.21160728149E+03  0.47000000000E+01 0. -1.
        -11    1    4    4    0    0 -0.59158116638E+02  0.18932127365E+02 -0.55209296178E+02  0.83103397014E+02  0.00000000000E+00 0.  1.
         12    1    4    4    0    0 -0.78794681670E+02 -0.28721058143E+02  0.90922437352E+01  0.84357394083E+02  0.00000000000E+00 0. -1.
         -5    1    5    5    0  501 -0.13052262620E+02 -0.11222791116E+02  0.16885093629E+02  0.24566419902E+02  0.47000000000E+01 0.  1.
         13    1    6    6    0    0  0.86960856791E+02  0.46659882423E+02  0.27658915165E+03  0.29366799970E+03  0.00000000000E+00 0. -1.
        -14    1    6    6    0    0  0.18156122582E+03  0.57544786706E+02  0.28429840622E+03  0.34220091318E+03  0.00000000000E+00 0.  1.
<mgrwt>
<rscale>  2 0.32062220E+03</rscale>
<asrwt>0</asrwt>
<pdfrwt beam="1">  1        1 0.10893550E+00 0.32062220E+03</pdfrwt>
<pdfrwt beam="2">  1       -1 0.50988103E-01 0.32062220E+03</pdfrwt>
<totfact> 0.11023068E+02</totfact>
</mgrwt>
</event>
<event>
12    1  0.4404304E-002  0.1905685E+03  0.7546771E-02  0.1157950E+00
         -2   -1    0    0    0  501 -0.00000000000E+00  0.00000000000E+00  0.28837812528E+03  0.28837812528E+03  0.00000000000E+00 0.  1.
          2   -1    0    0  502    0  0.00000000000E+00 -0.00000000000E+00 -0.17921892109E+03  0.17921892109E+03  0.00000000000E+00 0. -1.
          6    2    1    2  502    0 -0.73499835622E+02  0.17008052670E+02  0.18240333172E+03  0.26508298159E+03  0.17693646321E+03 0.  0.
         24    2    3    3    0    0 -0.39334816619E+02  0.60645910261E+02  0.17811734495E+03  0.20929794040E+03  0.82793025379E+02 0.  0.
         -6    2    1    2    0  501  0.73499835622E+02 -0.17008052670E+02 -0.73244127526E+02  0.20251406478E+03  0.17307727905E+03 0.  0.
        -24    2    5    5    0    0  0.15788278632E+02  0.56333913563E+02 -0.71707723946E+02  0.10905755961E+03  0.57695529082E+02 0.  0.
          5    1    3    3  502    0 -0.34165019003E+02 -0.43637857591E+02  0.42859867703E+01  0.55785041196E+02  0.47000000000E+01 0. -1.
        -11    1    4    4    0    0  0.11964937758E+02  0.12228120733E+02  0.10970855093E+03  0.11103446681E+03  0.00000000000E+00 0.  1.
         12    1    4    4    0    0 -0.51299754377E+02  0.48417789528E+02  0.68408794020E+02  0.98263473586E+02  0.00000000000E+00 0. -1.
         -5    1    5    5    0  501  0.57711556990E+02 -0.73341966233E+02 -0.15364035798E+01  0.93456505162E+02  0.47000000000E+01 0.  1.
         13    1    6    6    0    0  0.15630279988E+02  0.12283479316E+02 -0.60387622243E+02  0.63575580507E+02  0.00000000000E+00 0. -1.
        -14    1    6    6    0    0  0.15799864418E+00  0.44050434247E+02 -0.11320101703E+02  0.45481979107E+02  0.00000000000E+00 0.  1.
<mgrwt>
<rscale>  2 0.19056849E+03</rscale>
<asrwt>0</asrwt>
<pdfrwt beam="2">  1        2 0.27572142E-01 0.19056849E+03</pdfrwt>
<pdfrwt beam="1">  1       -2 0.44365865E-01 0.19056849E+03</pdfrwt>
<totfact> 0.93340606E+02</totfact>
</mgrwt>
</event>
<event>
12    1  0.4404304E-002  0.1734868E+03  0.7546771E-02  0.1174260E+00
         -2   -1    0    0    0  501 -0.00000000000E+00  0.00000000000E+00  0.31101940677E+02  0.31101940677E+02  0.00000000000E+00 0.  1.
          2   -1    0    0  502    0  0.00000000000E+00 -0.00000000000E+00 -0.16256503518E+04  0.16256503518E+04  0.00000000000E+00 0. -1.
          6    2    1    2  502    0  0.12200751683E+02 -0.83642727574E+01 -0.27060288021E+03  0.32150387378E+03  0.17297399424E+03 0.  0.
         24    2    3    3    0    0  0.71564059717E+02  0.15812821806E+02 -0.15443279728E+03  0.18874050380E+03  0.80012679760E+02 0.  0.
         -6    2    1    2    0  501 -0.12200751683E+02  0.83642727574E+01 -0.13239455309E+04  0.13352484187E+04  0.17273607437E+03 0.  0.
        -24    2    5    5    0    0 -0.32465241199E+02 -0.44527830960E+02 -0.10991513892E+04  0.11033805245E+04  0.79234373998E+02 0.  0.
          5    1    3    3  502    0 -0.59363308034E+02 -0.24177094564E+02 -0.11617008293E+03  0.13276336999E+03  0.47000000000E+01 0. -1.
        -11    1    4    4    0    0  0.33551582971E+02  0.48003939789E+02 -0.87988419029E+02  0.10569791312E+03  0.00000000000E+00 0.  1.
         12    1    4    4    0    0  0.38012476746E+02 -0.32191117983E+02 -0.66444378247E+02  0.83042590674E+02  0.00000000000E+00 0. -1.
         -5    1    5    5    0  501  0.20264489516E+02  0.52892103718E+02 -0.22479414173E+03  0.23186789412E+03  0.47000000000E+01 0.  1.
         11    1    6    6    0    0  0.18440412344E+02  0.10035111331E+02 -0.30941930037E+03  0.31013070745E+03  0.00000000000E+00 0. -1.
        -12    1    6    6    0    0 -0.50905653543E+02 -0.54562942292E+02 -0.78973208880E+03  0.79324981709E+03  0.00000000000E+00 0.  1.
<mgrwt>
<rscale>  2 0.17348680E+03</rscale>
<asrwt>0</asrwt>
<pdfrwt beam="2">  1        2 0.25010018E+00 0.17348680E+03</pdfrwt>
<pdfrwt beam="1">  1       -2 0.47849116E-02 0.17348680E+03</pdfrwt>
<totfact> 0.24510199E+03</totfact>
</mgrwt>
</event>
<event>
12    1  0.4404304E-002  0.2701811E+03  0.7546771E-02  0.1101176E+00
         -2   -1    0    0    0  501 -0.00000000000E+00  0.00000000000E+00  0.61375731403E+02  0.61375731403E+02  0.00000000000E+00 0. -1.
          2   -1    0    0  502    0  0.00000000000E+00 -0.00000000000E+00 -0.11900741126E+04  0.11900741126E+04  0.00000000000E+00 0.  1.
          6    2    1    2  502    0  0.13515767824E+03  0.15669576740E+03 -0.54833560966E+03  0.61113628029E+03  0.17318906071E+03 0.  0.
         24    2    3    3    0    0  0.16347086007E+02  0.98056952829E+02 -0.19353111880E+03  0.23237146654E+03  0.81607666897E+02 0.  0.
         -6    2    1    2    0  501 -0.13515767824E+03 -0.15669576740E+03 -0.58036277151E+03  0.64031356369E+03  0.17423935199E+03 0.  0.
        -24    2    5    5    0    0 -0.70083137127E+02 -0.11578487066E+03 -0.21502168572E+03  0.26694431436E+03  0.81897248190E+02 0.  0.
          5    1    3    3  502    0  0.11881059223E+03  0.58638814574E+02 -0.35480449086E+03  0.37876481375E+03  0.47000000000E+01 0. -1.
        -13    1    4    4    0    0  0.20602327506E+02  0.50643715235E+02 -0.17133563535E+03  0.17984755136E+03  0.00000000000E+00 0.  1.
         14    1    4    4    0    0 -0.42552414991E+01  0.47413237593E+02 -0.22195483456E+02  0.52523915173E+02  0.00000000000E+00 0. -1.
         -5    1    5    5    0  501 -0.65074541113E+02 -0.40910896748E+02 -0.36534108579E+03  0.37336924932E+03  0.47000000000E+01 0.  1.
         11    1    6    6    0    0  0.76650326862E+01  0.58578263063E+01 -0.23969740752E+01  0.99404396197E+01  0.00000000000E+00 0. -1.
        -12    1    6    6    0    0 -0.77748169814E+02 -0.12164269696E+03 -0.21262471164E+03  0.25700387474E+03  0.00000000000E+00 0.  1.
<mgrwt>
<rscale>  2 0.27018111E+03</rscale>
<asrwt>0</asrwt>
<pdfrwt beam="2">  1        2 0.18308833E+00 0.27018111E+03</pdfrwt>
<pdfrwt beam="1">  1       -2 0.94424201E-02 0.27018111E+03</pdfrwt>
<totfact> 0.14732090E+03</totfact>
</mgrwt>
</event>
<event>
12    1  0.4404304E-002  0.1788560E+03  0.7546771E-02  0.1168915E+00
         -2   -1    0    0    0  501 -0.00000000000E+00  0.00000000000E+00  0.13430061658E+02  0.13430061658E+02  0.00000000000E+00 0.  1.
          2   -1    0    0  502    0  0.00000000000E+00 -0.00000000000E+00 -0.23845511636E+04  0.23845511636E+04  0.00000000000E+00 0. -1.
          6    2    1    2  502    0  0.34779180251E+02 -0.30123004500E+02 -0.11514864248E+04  0.11654178509E+04  0.17366863223E+03 0.  0.
         24    2    3    3    0    0 -0.77982091466E+01  0.43740982605E+02 -0.55800444438E+03  0.56582492749E+03  0.82551820017E+02 0.  0.
         -6    2    1    2    0  501 -0.34779180251E+02  0.30123004500E+02 -0.12196346772E+04  0.12325633744E+04  0.17200796332E+03 0.  0.
        -24    2    5    5    0    0 -0.35944788073E+02  0.46952566329E+02 -0.12066654142E+04  0.12107715279E+04  0.80185407946E+02 0.  0.
          5    1    3    3  502    0  0.42577389397E+02 -0.73863987104E+02 -0.59348198041E+03  0.59959292336E+03  0.47000000000E+01 0. -1.
        -13    1    4    4    0    0 -0.40029212777E+02  0.33511840801E+01 -0.18912994866E+03  0.19334866379E+03  0.00000000000E+00 0.  1.
         14    1    4    4    0    0  0.32231003631E+02  0.40389798525E+02 -0.36887449573E+03  0.37247626370E+03  0.00000000000E+00 0. -1.
         -5    1    5    5    0  501  0.11656078226E+01 -0.16829561829E+02 -0.12969262935E+02  0.21791846503E+02  0.47000000000E+01 0.  1.
         11    1    6    6    0    0  0.25068300675E+02  0.77993680084E+01 -0.25460002489E+03  0.25595003910E+03  0.00000000000E+00 0. -1.
        -12    1    6    6    0    0 -0.61013088748E+02  0.39153198320E+02 -0.95206538934E+03  0.95482148882E+03  0.00000000000E+00 0.  1.
<mgrwt>
<rscale>  2 0.17885599E+03</rscale>
<asrwt>0</asrwt>
<pdfrwt beam="2">  1        2 0.36685411E+00 0.17885599E+03</pdfrwt>
<pdfrwt beam="1">  1       -2 0.20661629E-02 0.17885599E+03</pdfrwt>
<totfact> 0.34283995E+03</totfact>
</mgrwt>
</event>
<event>
12    1  0.4404304E-002  0.2044244E+03  0.7546771E-02  0.1146059E+00
          1   -1    0    0  502    0  0.00000000000E+00  0.00000000000E+00  0.12779866254E+03  0.12779866254E+03  0.00000000000E+00 0. -1.
         -1   -1    0    0    0  501 -0.00000000000E+00 -0.00000000000E+00 -0.58479186503E+03  0.58479186503E+03  0.00000000000E+00 0.  1.
          6    2    1    2  502    0  0.45164569918E+01  0.10755970380E+03  0.73289556097E+01  0.20572916863E+03  0.17516075180E+03 0.  0.
         24    2    3    3    0    0  0.58310066094E+02  0.10904598117E+03  0.24612177377E+02  0.14901267055E+03  0.79422458348E+02 0.  0.
         -6    2    1    2    0  501 -0.45164569918E+01 -0.10755970380E+03 -0.46432215810E+03  0.50686135894E+03  0.17240615539E+03 0.  0.
        -24    2    5    5    0    0 -0.26919035348E+02  0.37489148961E+01 -0.14793498320E+03  0.17068518704E+03  0.80684478011E+02 0.  0.
          5    1    3    3  502    0 -0.53793609103E+02 -0.14862773698E+01 -0.17283221768E+02  0.56716498088E+02  0.47000000000E+01 0. -1.
        -11    1    4    4    0    0  0.12155601650E+02  0.31730617439E+02 -0.28606510560E+02  0.44417599901E+02  0.00000000000E+00 0.  1.
         12    1    4    4    0    0  0.46154464444E+02  0.77315363735E+02  0.53218687937E+02  0.10459507065E+03  0.00000000000E+00 0. -1.
         -5    1    5    5    0  501  0.22402578357E+02 -0.11130861870E+03 -0.31638717490E+03  0.33617617190E+03  0.47000000000E+01 0.  1.
         13    1    6    6    0    0 -0.48176856460E+02  0.54730473243E+01 -0.13961044108E+03  0.14779052406E+03  0.00000000000E+00 0. -1.
        -14    1    6    6    0    0  0.21257821112E+02 -0.17241324282E+01 -0.83245421253E+01  0.22894662973E+02  0.00000000000E+00 0.  1.
<mgrwt>
<rscale>  2 0.20442439E+03</rscale>
<asrwt>0</asrwt>
<pdfrwt beam="1">  1        1 0.19661333E-01 0.20442439E+03</pdfrwt>
<pdfrwt beam="2">  1       -1 0.89967979E-01 0.20442439E+03</pdfrwt>
<totfact> 0.33422809E+02</totfact>
</mgrwt>
</event>
<event>
12    1  0.4404304E-002  0.1816462E+03  0.7546771E-02  0.1166219E+00
          2   -1    0    0  502    0  0.00000000000E+00  0.00000000000E+00  0.10906462528E+04  0.10906462528E+04  0.00000000000E+00 0.  1.
         -2   -1    0    0    0  501 -0.00000000000E+00 -0.00000000000E+00 -0.35217303016E+02  0.35217303016E+02  0.00000000000E+00 0. -1.
          6    2    1    2  502    0 -0.45028250908E+02 -0.27384376326E+02  0.73500667678E+03  0.75673820404E+03  0.17216401219E+03 0.  0.
         24    2    3    3    0    0  0.23721498088E+02 -0.54793825981E+02  0.33567147454E+03  0.35057505989E+03  0.81623899436E+02 0.  0.
         -6    2    1    2    0  501  0.45028250908E+02  0.27384376326E+02  0.32042227301E+03  0.36912535178E+03  0.17551536924E+03 0.  0.
        -24    2    5    5    0    0  0.21602257033E+02  0.18187092695E+01  0.52250327311E+02  0.98680046812E+02  0.80855981364E+02 0.  0.
          5    1    3    3  502    0 -0.68749748996E+02  0.27409449655E+02  0.39933520224E+03  0.40616314415E+03  0.47000000000E+01 0. -1.
        -13    1    4    4    0    0 -0.74445576506E+01  0.19157619382E+02  0.80462562447E+02  0.83046130401E+02  0.00000000000E+00 0.  1.
         14    1    4    4    0    0  0.31166055739E+02 -0.73951445363E+02  0.25520891209E+03  0.26752892949E+03  0.00000000000E+00 0. -1.
         -5    1    5    5    0  501  0.23425993874E+02  0.25565667056E+02  0.26817194570E+03  0.27044530497E+03  0.47000000000E+01 0.  1.
         11    1    6    6    0    0  0.46631832713E+02  0.17012183509E+02  0.16152144732E+02  0.52199942427E+02  0.00000000000E+00 0. -1.
        -12    1    6    6    0    0 -0.25029575679E+02 -0.15193474240E+02  0.36098182579E+02  0.46480104385E+02  0.00000000000E+00 0.  1.
<mgrwt>
<rscale>  2 0.18164622E+03</rscale>
<asrwt>0</asrwt>
<pdfrwt beam="1">  1        2 0.16779171E+00 0.18164622E+03</pdfrwt>
<pdfrwt beam="2">  1       -2 0.54180474E-02 0.18164622E+03</pdfrwt>
<totfact> 0.39662634E+03</totfact>
</mgrwt>
</event>
<event>
12    1  0.4404304E-002  0.2045316E+03  0.7546771E-02  0.1145971E+00
         -2   -1    0    0    0  501 -0.00000000000E+00  0.00000000000E+00  0.35159415378E+02  0.35159415378E+02  0.00000000000E+00 0. -1.
          2   -1    0    0  502    0  0.00000000000E+00 -0.00000000000E+00 -0.13011840078E+04  0.13011840078E+04  0.00000000000E+00 0.  1.
          6    2    1    2  502    0 -0.97133106642E+02  0.52746455725E+02 -0.83444741309E+03  0.85966489572E+03  0.17465456974E+03 0.  0.
         24    2    3    3    0    0 -0.55691043295E+02 -0.42545754460E+02 -0.41223268321E+03  0.42482536433E+03  0.75027805144E+02 0.  0.
         -6    2    1    2    0  501  0.97133106642E+02 -0.52746455725E+02 -0.43157717938E+03  0.47667852750E+03  0.16954801037E+03 0.  0.
        -24    2    5    5    0    0  0.12633558676E+03 -0.53042541865E+02 -0.41101477555E+03  0.44065388367E+03  0.80427033633E+02 0.  0.
          5    1    3    3  502    0 -0.41442063346E+02  0.95292210185E+02 -0.42221472987E+03  0.43483953139E+03  0.47000000000E+01 0. -1.
        -13    1    4    4    0    0  0.29700792321E+01  0.42951209404E+01 -0.19348606730E+03  0.19355652320E+03  0.00000000000E+00 0.  1.
         14    1    4    4    0    0 -0.58661122528E+02 -0.46840875401E+02 -0.21874661592E+03  0.23126884113E+03  0.00000000000E+00 0. -1.
         -5    1    5    5    0  501 -0.29202480120E+02  0.29608613966E+00 -0.20562403826E+02  0.36024643832E+02  0.47000000000E+01 0.  1.
         13    1    6    6    0    0 -0.73083085021E+00  0.26624927949E+01  0.29605750080E+01  0.40482077507E+01  0.00000000000E+00 0. -1.
        -14    1    6    6    0    0  0.12706641761E+03 -0.55705034660E+02 -0.41397535056E+03  0.43660567592E+03  0.00000000000E+00 0.  1.
<mgrwt>
<rscale>  2 0.20453159E+03</rscale>
<asrwt>0</asrwt>
<pdfrwt beam="2">  1        2 0.20018217E+00 0.20453159E+03</pdfrwt>
<pdfrwt beam="1">  1       -2 0.54091404E-02 0.20453159E+03</pdfrwt>
<totfact> 0.30318977E+03</totfact>
</mgrwt>
</event>
<event>
12    1  0.4404304E-002  0.1770567E+03  0.7546771E-02  0.1170682E+00
          1   -1    0    0  502    0  0.00000000000E+00  0.00000000000E+00  0.15159172409E+03  0.15159172409E+03  0.00000000000E+00 0. -1.
         -1   -1    0    0    0  501 -0.00000000000E+00 -0.00000000000E+00 -0.29225593096E+03  0.29225593096E+03  0.00000000000E+00 0.  1.
          6    2    1    2  502    0  0.31938686534E+02 -0.39165262858E+01 -0.19034970681E+03  0.25999909901E+03  0.17415826632E+03 0.  0.
         24    2    3    3    0    0  0.85337687353E+02 -0.13221036535E+02 -0.13017646292E+03  0.17887612767E+03  0.87140351501E+02 0.  0.
         -6    2    1    2    0  501 -0.31938686534E+02  0.39165262858E+01  0.49685499942E+02  0.18384855604E+03  0.17405810461E+03 0.  0.
        -24    2    5    5    0    0 -0.62788611850E+02  0.14801191755E+02  0.88409215266E+02  0.13293873417E+03  0.75465440065E+02 0.  0.
          5    1    3    3  502    0 -0.53399000819E+02  0.93045102497E+01 -0.60173243885E+02  0.81122971340E+02  0.47000000000E+01 0. -1.
        -13    1    4    4    0    0  0.28626872871E+02 -0.11160738563E+02 -0.11652657950E+03  0.12050935095E+03  0.00000000000E+00 0.  1.
         14    1    4    4    0    0  0.56710814482E+02 -0.20602979721E+01 -0.13649883421E+02  0.58366776717E+02  0.00000000000E+00 0. -1.
         -5    1    5    5    0  501  0.30849925316E+02 -0.10884665470E+02 -0.38723715325E+02  0.50909821871E+02  0.47000000000E+01 0.  1.
         13    1    6    6    0    0 -0.91568713614E+01  0.35925181127E+02  0.54957914157E+02  0.66293583857E+02  0.00000000000E+00 0. -1.
        -14    1    6    6    0    0 -0.53631740489E+02 -0.21123989372E+02  0.33451301110E+02  0.66645150317E+02  0.00000000000E+00 0.  1.
<mgrwt>
<rscale>  2 0.17705670E+03</rscale>
<asrwt>0</asrwt>
<pdfrwt beam="1">  1        1 0.23321804E-01 0.17705670E+03</pdfrwt>
<pdfrwt beam="2">  1       -1 0.44962450E-01 0.17705670E+03</pdfrwt>
<totfact> 0.10392910E+03</totfact>
</mgrwt>
</event>
<event>
12    1  0.4404304E-002  0.1862287E+03  0.7546771E-02  0.1161907E+00
         -2   -1    0    0    0  501 -0.00000000000E+00  0.00000000000E+00  0.11445771905E+03  0.11445771905E+03  0.00000000000E+00 0.  1.
          2   -1    0    0  502    0  0.00000000000E+00 -0.00000000000E+00 -0.30301517791E+03  0.30301517791E+03  0.00000000000E+00 0. -1.
          6    2    1    2  502    0  0.60608677027E+02  0.31746128591E+02 -0.93750467156E+02  0.20919346522E+03  0.17404461321E+03 0.  0.
         24    2    3    3    0    0  0.57215452091E+02  0.23478694652E+02 -0.13329932523E+03  0.16837598594E+03  0.82200398260E+02 0.  0.
         -6    2    1    2    0  501 -0.60608677027E+02 -0.31746128591E+02 -0.94806991702E+02  0.20827943174E+03  0.17236800051E+03 0.  0.
        -24    2    5    5    0    0 -0.95448375101E+02 -0.60937109215E+02 -0.63773563300E+02  0.15304283527E+03  0.80816572937E+02 0.  0.
          5    1    3    3  502    0  0.33932249359E+01  0.82674339393E+01  0.39548858078E+02  0.40817479279E+02  0.47000000000E+01 0. -1.
        -13    1    4    4    0    0  0.56523369569E+02  0.26056522370E+02 -0.37758585522E+02  0.72797970068E+02  0.00000000000E+00 0.  1.
         14    1    4    4    0    0  0.69208252256E+00 -0.25778277176E+01 -0.95540739712E+02  0.95578015876E+02  0.00000000000E+00 0. -1.
         -5    1    5    5    0  501  0.34839698074E+02  0.29190980624E+02 -0.31033428403E+02  0.55236596474E+02  0.47000000000E+01 0.  1.
         11    1    6    6    0    0  0.65064870720E+01 -0.29147607566E+02 -0.26506631379E+02  0.39931427571E+02  0.00000000000E+00 0. -1.
        -12    1    6    6    0    0 -0.10195486217E+03 -0.31789501649E+02 -0.37266931921E+02  0.11311140769E+03  0.00000000000E+00 0.  1.
<mgrwt>
<rscale>  2 0.18622873E+03</rscale>
<asrwt>0</asrwt>
<pdfrwt beam="2">  1        2 0.46617720E-01 0.18622873E+03</pdfrwt>
<pdfrwt beam="1">  1       -2 0.17608880E-01 0.18622873E+03</pdfrwt>
<totfact> 0.27790726E+03</totfact>
</mgrwt>
</event>
<event>
12    1  0.4404304E-002  0.1906420E+03  0.7546771E-02  0.1157884E+00
          1   -1    0    0  502    0  0.00000000000E+00  0.00000000000E+00  0.91858552788E+03  0.91858552788E+03  0.00000000000E+00 0.  1.
         -1   -1    0    0    0  501 -0.00000000000E+00 -0.00000000000E+00 -0.57692088134E+02  0.57692088134E+02  0.00000000000E+00 0. -1.
          6    2    1    2  502    0  0.22648628238E+02  0.70676305854E+02  0.15430918526E+03  0.24399412464E+03  0.17382090678E+03 0.  0.
         24    2    3    3    0    0  0.29720906235E+02 -0.24504625599E+02  0.10089591260E+03  0.13452040851E+03  0.80199415103E+02 0.  0.
         -6    2    1    2    0  501 -0.22648628238E+02 -0.70676305854E+02  0.70658425448E+03  0.73228349137E+03  0.17739701935E+03 0.  0.
        -24    2    5    5    0    0 -0.42249046932E+02 -0.88430915111E+02  0.68800180306E+03  0.69962158598E+03  0.80739543208E+02 0.  0.
          5    1    3    3  502    0 -0.70722779968E+01  0.95180931453E+02  0.53413272662E+02  0.10947371614E+03  0.47000000000E+01 0. -1.
        -13    1    4    4    0    0  0.15470271953E+02 -0.86891408092E+01  0.10996001667E+03  0.11138238527E+03  0.00000000000E+00 0.  1.
         14    1    4    4    0    0  0.14250634281E+02 -0.15815484790E+02 -0.90641040745E+01  0.23138023235E+02  0.00000000000E+00 0. -1.
         -5    1    5    5    0  501  0.19600418694E+02  0.17754609257E+02  0.18582451424E+02  0.32661905391E+02  0.47000000000E+01 0.  1.
         11    1    6    6    0    0 -0.61616053197E+02 -0.36967507551E+02  0.40580574859E+03  0.41211823572E+03  0.00000000000E+00 0. -1.
        -12    1    6    6    0    0  0.19367006265E+02 -0.51463407560E+02  0.28219605447E+03  0.28750335026E+03  0.00000000000E+00 0.  1.
<mgrwt>
<rscale>  2 0.19064202E+03</rscale>
<asrwt>0</asrwt>
<pdfrwt beam="1">  1        1 0.14132084E+00 0.19064202E+03</pdfrwt>
<pdfrwt beam="2">  1       -1 0.88757065E-02 0.19064202E+03</pdfrwt>
<totfact> 0.13545368E+03</totfact>
</mgrwt>
</event>
<event>
12    1  0.4404304E-002  0.2229060E+03  0.7546771E-02  0.1131735E+00
         -1   -1    0    0    0  501 -0.00000000000E+00  0.00000000000E+00  0.17517195754E+03  0.17517195754E+03  0.00000000000E+00 0. -1.
          1   -1    0    0  502    0  0.00000000000E+00 -0.00000000000E+00 -0.29634984277E+03  0.29634984277E+03  0.00000000000E+00 0.  1.
          6    2    1    2  502    0 -0.38064689719E+02 -0.13421295493E+03 -0.11809434151E+02  0.22333607136E+03  0.17400431076E+03 0.  0.
         24    2    3    3    0    0  0.88147498655E+01 -0.12750472161E+03  0.37430769337E+02  0.15485709729E+03  0.79022175628E+02 0.  0.
         -6    2    1    2    0  501  0.38064689719E+02  0.13421295493E+03 -0.10936845108E+03  0.24818572894E+03  0.17370279239E+03 0.  0.
        -24    2    5    5    0    0  0.22616025690E+02  0.15212713590E+03 -0.12924439620E+03  0.21693317233E+03  0.81864138750E+02 0.  0.
          5    1    3    3  502    0 -0.46879439584E+02 -0.67082333209E+01 -0.49240203488E+02  0.68478974069E+02  0.47000000000E+01 0. -1.
        -11    1    4    4    0    0 -0.19006024754E+02 -0.92834193133E+02 -0.29443651941E+01  0.94805515019E+02  0.00000000000E+00 0.  1.
         12    1    4    4    0    0  0.27820774620E+02 -0.34670528478E+02  0.40375134531E+02  0.60051582276E+02  0.00000000000E+00 0. -1.
         -5    1    5    5    0  501  0.15448664029E+02 -0.17914180964E+02  0.19875945125E+02  0.31252556608E+02  0.47000000000E+01 0.  1.
         13    1    6    6    0    0 -0.19114504059E+02  0.17239549444E+02 -0.33450183513E+00  0.25742537209E+02  0.00000000000E+00 0. -1.
        -14    1    6    6    0    0  0.41730529749E+02  0.13488758645E+03 -0.12890989437E+03  0.19119063512E+03  0.00000000000E+00 0.  1.
<mgrwt>
<rscale>  2 0.22290601E+03</rscale>
<asrwt>0</asrwt>
<pdfrwt beam="2">  1        1 0.45592283E-01 0.22290601E+03</pdfrwt>
<pdfrwt beam="1">  1       -1 0.26949532E-01 0.22290601E+03</pdfrwt>
<totfact> 0.10904374E+03</totfact>
</mgrwt>
</event>
<event>
12    1  0.4404304E-002  0.1849189E+03  0.7546771E-02  0.1163126E+00
         -2   -1    0    0    0  501 -0.00000000000E+00  0.00000000000E+00  0.57979595737E+02  0.57979595737E+02  0.00000000000E+00 0. -1.
          2   -1    0    0  502    0  0.00000000000E+00 -0.00000000000E+00 -0.61211773423E+03  0.61211773423E+03  0.00000000000E+00 0.  1.
          6    2    1    2  502    0  0.57231451026E+02  0.29609853588E+02 -0.34154419468E+03  0.38854540609E+03  0.17367473406E+03 0.  0.
         24    2    3    3    0    0  0.10086130869E+03 -0.38371644531E+01 -0.26462621367E+03  0.29388425620E+03  0.78442307820E+02 0.  0.
         -6    2    1    2    0  501 -0.57231451026E+02 -0.29609853588E+02 -0.21259394381E+03  0.28155192388E+03  0.17298300055E+03 0.  0.
        -24    2    5    5    0    0 -0.62806635237E+02  0.43596621502E+02 -0.11841367181E+03  0.16204341244E+03  0.79943298694E+02 0.  0.
          5    1    3    3  502    0 -0.43629857661E+02  0.33447018041E+02 -0.76917981010E+02  0.94661149888E+02  0.47000000000E+01 0. -1.
        -11    1    4    4    0    0  0.44831045633E+02  0.36709795499E+02 -0.13634262644E+03  0.14814433341E+03  0.00000000000E+00 0.  1.
         12    1    4    4    0    0  0.56030263053E+02 -0.40546959952E+02 -0.12828358723E+03  0.14573992278E+03  0.00000000000E+00 0. -1.
         -5    1    5    5    0  501  0.55751842109E+01 -0.73206475090E+02 -0.94180271993E+02  0.11950851144E+03  0.47000000000E+01 0.  1.
         11    1    6    6    0    0  0.12970369625E+01  0.46420323068E+02 -0.48474743145E+02  0.67129199470E+02  0.00000000000E+00 0. -1.
        -12    1    6    6    0    0 -0.64103672199E+02 -0.28237015658E+01 -0.69938928670E+02  0.94914212969E+02  0.00000000000E+00 0.  1.
<mgrwt>
<rscale>  2 0.18491887E+03</rscale>
<asrwt>0</asrwt>
<pdfrwt beam="2">  1        2 0.94171963E-01 0.18491887E+03</pdfrwt>
<pdfrwt beam="1">  1       -2 0.89199374E-02 0.18491887E+03</pdfrwt>
<totfact> 0.38602396E+03</totfact>
</mgrwt>
</event>
<event>
12    1  0.4404304E-002  0.2003820E+03  0.7546771E-02  0.1149417E+00
         -2   -1    0    0    0  501 -0.00000000000E+00  0.00000000000E+00  0.97848720891E+02  0.97848720891E+02  0.00000000000E+00 0. -1.
          2   -1    0    0  502    0  0.00000000000E+00 -0.00000000000E+00 -0.47030558910E+03  0.47030558910E+03  0.00000000000E+00 0.  1.
          6    2    1    2  502    0 -0.34234487680E+01 -0.98727762735E+02 -0.83836923629E+02  0.21609854014E+03  0.17294813717E+03 0.  0.
         24    2    3    3    0    0 -0.52012131956E+02 -0.84143722857E+02 -0.13146514319E+02  0.12896199028E+03  0.81688041537E+02 0.  0.
         -6    2    1    2    0  501  0.34234487680E+01  0.98727762735E+02 -0.28861994458E+03  0.35205576986E+03  0.17573531672E+03 0.  0.
        -24    2    5    5    0    0 -0.55653277233E+02  0.10000765208E+03 -0.17643992110E+03  0.22517730304E+03  0.80467100787E+02 0.  0.
          5    1    3    3  502    0  0.48588683188E+02 -0.14584039878E+02 -0.70690409310E+02  0.87136549860E+02  0.47000000000E+01 0. -1.
        -13    1    4    4    0    0 -0.17219669705E+02 -0.65895530707E+01 -0.36429865628E+02  0.40829821750E+02  0.00000000000E+00 0.  1.
         14    1    4    4    0    0 -0.34792462251E+02 -0.77554169787E+02  0.23283351309E+02  0.88132168525E+02  0.00000000000E+00 0. -1.
         -5    1    5    5    0  501  0.59076726001E+02 -0.12798893398E+01 -0.11218002349E+03  0.12687846682E+03  0.47000000000E+01 0.  1.
         13    1    6    6    0    0  0.71047617497E+01  0.16155591559E+02  0.25137932042E+01  0.17826944057E+02  0.00000000000E+00 0. -1.
        -14    1    6    6    0    0 -0.62758038983E+02  0.83852060516E+02 -0.17895371430E+03  0.20735035899E+03  0.00000000000E+00 0.  1.
<mgrwt>
<rscale>  2 0.20038196E+03</rscale>
<asrwt>0</asrwt>
<pdfrwt beam="2">  1        2 0.72354708E-01 0.20038196E+03</pdfrwt>
<pdfrwt beam="1">  1       -2 0.15053649E-01 0.20038196E+03</pdfrwt>
<totfact> 0.22476111E+03</totfact>
</mgrwt>
</event>
<event>
12    1  0.4404304E-002  0.2097477E+03  0.7546771E-02  0.1141766E+00
         -2   -1    0    0    0  501 -0.00000000000E+00  0.00000000000E+00  0.19371444751E+02  0.19371444751E+02  0.00000000000E+00 0.  1.
          2   -1    0    0  502    0  0.00000000000E+00 -0.00000000000E+00 -0.27781730300E+04  0.27781730300E+04  0.00000000000E+00 0. -1.
          6    2    1    2  502    0 -0.60437014693E+02  0.10366697753E+03 -0.19806226582E+04  0.19917693153E+04  0.17285663502E+03 0.  0.
         24    2    3    3    0    0 -0.10163776836E+03  0.42860161631E+02 -0.13413692921E+04  0.13482928767E+04  0.80342231703E+02 0.  0.
         -6    2    1    2    0  501  0.60437014693E+02 -0.10366697753E+03 -0.77817892705E+03  0.80577515944E+03  0.17120657140E+03 0.  0.
        -24    2    5    5    0    0 -0.11733200365E+02 -0.20364161116E+02 -0.49785705852E+03  0.50452718992E+03  0.78317734906E+02 0.  0.
          5    1    3    3  502    0  0.41200753667E+02  0.60806815895E+02 -0.63925336610E+03  0.64347643860E+03  0.47000000000E+01 0. -1.
        -11    1    4    4    0    0 -0.27940123595E+02 -0.22043329468E+02 -0.48690996481E+03  0.48820884129E+03  0.00000000000E+00 0.  1.
         12    1    4    4    0    0 -0.73697644765E+02  0.64903491100E+02 -0.85445932731E+03  0.86008403544E+03  0.00000000000E+00 0. -1.
         -5    1    5    5    0  501  0.72170215058E+02 -0.83302816410E+02 -0.28032186853E+03  0.30124796952E+03  0.47000000000E+01 0.  1.
         13    1    6    6    0    0 -0.27873861809E+01 -0.46812913285E+02 -0.40079159924E+03  0.40352586582E+03  0.00000000000E+00 0. -1.
        -14    1    6    6    0    0 -0.89458141842E+01  0.26448752169E+02 -0.97065459285E+02  0.10100132409E+03  0.00000000000E+00 0.  1.
<mgrwt>
<rscale>  2 0.20974774E+03</rscale>
<asrwt>0</asrwt>
<pdfrwt beam="2">  1        2 0.42741105E+00 0.20974774E+03</pdfrwt>
<pdfrwt beam="1">  1       -2 0.29802236E-02 0.20974774E+03</pdfrwt>
<totfact> 0.12116989E+03</totfact>
</mgrwt>
</event>
<event>
12    1  0.4404304E-002  0.1756384E+03  0.7546771E-02  0.1172092E+00
          2   -1    0    0  502    0  0.00000000000E+00  0.00000000000E+00  0.16350305850E+03  0.16350305850E+03  0.00000000000E+00 0.  1.
         -2   -1    0    0    0  501 -0.00000000000E+00 -0.00000000000E+00 -0.19373447934E+03  0.19373447934E+03  0.00000000000E+00 0. -1.
          6    2    1    2  502    0  0.69885281482E+01 -0.30155970348E+02  0.13778616281E+02  0.17582829775E+03  0.17253265763E+03 0.  0.
         24    2    3    3    0    0  0.20664264112E+02 -0.71778644569E+00  0.71409589715E+02  0.10951803064E+03  0.80419789250E+02 0.  0.
         -6    2    1    2    0  501 -0.69885281482E+01  0.30155970348E+02 -0.44010037114E+02  0.18140924009E+03  0.17324608783E+03 0.  0.
        -24    2    5    5    0    0  0.37136276368E+02  0.21278702180E+02 -0.81399272400E+02  0.12270788423E+03  0.81237288958E+02 0.  0.
          5    1    3    3  502    0 -0.13675735964E+02 -0.29438183902E+02 -0.57630973434E+02  0.66310267113E+02  0.47000000000E+01 0. -1.
        -11    1    4    4    0    0  0.42406209459E+02  0.19359935200E+02  0.21144160238E+02  0.51187588377E+02  0.00000000000E+00 0.  1.
         12    1    4    4    0    0 -0.21741945347E+02 -0.20077721646E+02  0.50265429477E+02  0.58330442262E+02  0.00000000000E+00 0. -1.
         -5    1    5    5    0  501 -0.44124804516E+02  0.88772681671E+01  0.37389235286E+02  0.58701355853E+02  0.47000000000E+01 0.  1.
         11    1    6    6    0    0  0.35997241676E+02  0.50161571047E+02 -0.64208119454E+02  0.89076749054E+02  0.00000000000E+00 0. -1.
        -12    1    6    6    0    0  0.11390346919E+01 -0.28882868866E+02 -0.17191152946E+02  0.33631135181E+02  0.00000000000E+00 0.  1.
<mgrwt>
<rscale>  2 0.17563837E+03</rscale>
<asrwt>0</asrwt>
<pdfrwt beam="1">  1        2 0.25154317E-01 0.17563837E+03</pdfrwt>
<pdfrwt beam="2">  1       -2 0.29805304E-01 0.17563837E+03</pdfrwt>
<totfact> 0.21700658E+03</totfact>
</mgrwt>
</event>
<event>
12    1  0.4404304E-002  0.2095912E+03  0.7546771E-02  0.1141890E+00
          1   -1    0    0  502    0  0.00000000000E+00  0.00000000000E+00  0.15617871727E+03  0.15617871727E+03  0.00000000000E+00 0.  1.
         -1   -1    0    0    0  501 -0.00000000000E+00 -0.00000000000E+00 -0.54557517307E+03  0.54557517307E+03  0.00000000000E+00 0. -1.
          6    2    1    2  502    0 -0.54700920793E+02  0.10474988968E+03  0.49707042302E+02  0.21502597039E+03  0.17262864121E+03 0.  0.
         24    2    3    3    0    0 -0.17753686949E+02  0.55880177265E+02 -0.26473461857E+02  0.11715408427E+03  0.97910406326E+02 0.  0.
         -6    2    1    2    0  501  0.54700920793E+02 -0.10474988968E+03 -0.43910349810E+03  0.48672791995E+03  0.17357262424E+03 0.  0.
        -24    2    5    5    0    0  0.75993226102E+02 -0.11982265255E+02 -0.18972689361E+03  0.21976354915E+03  0.79882277648E+02 0.  0.
          5    1    3    3  502    0 -0.36947233844E+02  0.48869712411E+02  0.76180504158E+02  0.97871886125E+02  0.47000000000E+01 0. -1.
        -11    1    4    4    0    0 -0.53098716820E+02  0.56179499127E+02 -0.26771233649E+02  0.81806532753E+02  0.00000000000E+00 0.  1.
         12    1    4    4    0    0  0.35345029871E+02 -0.29932186199E+00  0.29777179259E+00  0.35347551516E+02  0.00000000000E+00 0. -1.
         -5    1    5    5    0  501 -0.21292305309E+02 -0.92767624420E+02 -0.24937660449E+03  0.26696437079E+03  0.47000000000E+01 0.  1.
         11    1    6    6    0    0  0.21905185270E+02  0.25564360398E+02 -0.11659757157E+03  0.12136048517E+03  0.00000000000E+00 0. -1.
        -12    1    6    6    0    0  0.54088040832E+02 -0.37546625653E+02 -0.73129322043E+02  0.98403063984E+02  0.00000000000E+00 0.  1.
<mgrwt>
<rscale>  2 0.20959122E+03</rscale>
<asrwt>0</asrwt>
<pdfrwt beam="1">  1        1 0.24027495E-01 0.20959122E+03</pdfrwt>
<pdfrwt beam="2">  1       -1 0.83934641E-01 0.20959122E+03</pdfrwt>
<totfact> 0.29944794E+02</totfact>
</mgrwt>
</event>
<event>
12    1  0.4404304E-002  0.1807190E+03  0.7546771E-02  0.1167109E+00
          2   -1    0    0  502    0  0.00000000000E+00  0.00000000000E+00  0.79417446123E+03  0.79417446123E+03  0.00000000000E+00 0.  1.
         -2   -1    0    0    0  501 -0.00000000000E+00 -0.00000000000E+00 -0.47572024506E+02  0.47572024506E+02  0.00000000000E+00 0. -1.
          6    2    1    2  502    0 -0.12957851672E+02  0.50483992105E+02  0.52893974411E+03  0.55908511749E+03  0.17344271770E+03 0.  0.
         24    2    3    3    0    0 -0.50413589584E+02  0.23475659761E+02  0.48664426131E+03  0.49628877855E+03  0.79920448189E+02 0.  0.
         -6    2    1    2    0  501  0.12957851672E+02 -0.50483992105E+02  0.21766269262E+03  0.28266136825E+03  0.17263795053E+03 0.  0.
        -24    2    5    5    0    0  0.53971979763E+02 -0.86401680707E+02  0.16234965141E+03  0.20485480307E+03  0.72317743318E+02 0.  0.
          5    1    3    3  502    0  0.37455737911E+02  0.27008332344E+02  0.42295482800E+02  0.62796338936E+02  0.47000000000E+01 0. -1.
        -13    1    4    4    0    0 -0.35035965264E+01 -0.19579724973E+01  0.34347657748E+03  0.34350002638E+03  0.00000000000E+00 0.  1.
         14    1    4    4    0    0 -0.46909993057E+02  0.25433632259E+02  0.14316768382E+03  0.15278875217E+03  0.00000000000E+00 0. -1.
         -5    1    5    5    0  501 -0.41014128091E+02  0.35917688602E+02  0.55313041210E+02  0.77806565182E+02  0.47000000000E+01 0.  1.
         11    1    6    6    0    0 -0.53929843261E+01 -0.30465858086E+02  0.92266178630E+02  0.97315469006E+02  0.00000000000E+00 0. -1.
        -12    1    6    6    0    0  0.59364964089E+02 -0.55935822621E+02  0.70083472778E+02  0.10753933406E+03  0.00000000000E+00 0.  1.
<mgrwt>
<rscale>  2 0.18071901E+03</rscale>
<asrwt>0</asrwt>
<pdfrwt beam="1">  1        2 0.12218068E+00 0.18071901E+03</pdfrwt>
<pdfrwt beam="2">  1       -2 0.73187736E-02 0.18071901E+03</pdfrwt>
<totfact> 0.38378118E+03</totfact>
</mgrwt>
</event>
<event>
12    1  0.4404304E-002  0.1811347E+03  0.7546771E-02  0.1166709E+00
          1   -1    0    0  502    0  0.00000000000E+00  0.00000000000E+00  0.82859273246E+02  0.82859273246E+02  0.00000000000E+00 0. -1.
         -1   -1    0    0    0  501 -0.00000000000E+00 -0.00000000000E+00 -0.48674790858E+03  0.48674790858E+03  0.00000000000E+00 0.  1.
          6    2    1    2  502    0 -0.50482043017E+02  0.97257268297E+01 -0.32473125957E+03  0.37172273130E+03  0.17344846956E+03 0.  0.
         24    2    3    3    0    0  0.22206914478E+02  0.25680388929E+01 -0.26411601324E+03  0.27669002574E+03  0.79374807218E+02 0.  0.
         -6    2    1    2    0  501  0.50482043017E+02 -0.97257268297E+01 -0.79157375761E+02  0.19788445052E+03  0.17392337161E+03 0.  0.
        -24    2    5    5    0    0  0.76924002727E+02 -0.14877887855E+02 -0.77333253500E+00  0.11486716179E+03  0.83995315772E+02 0.  0.
          5    1    3    3  502    0 -0.72688957495E+02  0.71576879369E+01 -0.60615246336E+02  0.95032705563E+02  0.47000000000E+01 0. -1.
        -13    1    4    4    0    0  0.17874185816E+02 -0.31955533574E+02 -0.20375450941E+03  0.20701821840E+03  0.00000000000E+00 0.  1.
         14    1    4    4    0    0  0.43327286627E+01  0.34523572467E+02 -0.60361503821E+02  0.69671807333E+02  0.00000000000E+00 0. -1.
         -5    1    5    5    0  501 -0.26441959710E+02  0.51521610250E+01 -0.78384043226E+02  0.83017288736E+02  0.47000000000E+01 0.  1.
         11    1    6    6    0    0  0.13961831511E+02  0.64809604692E+01  0.35811764863E+02  0.38979713831E+02  0.00000000000E+00 0. -1.
        -12    1    6    6    0    0  0.62962171216E+02 -0.21358848324E+02 -0.36585097398E+02  0.75887447958E+02  0.00000000000E+00 0.  1.
<mgrwt>
<rscale>  2 0.18113470E+03</rscale>
<asrwt>0</asrwt>
<pdfrwt beam="1">  1        1 0.12747581E-01 0.18113470E+03</pdfrwt>
<pdfrwt beam="2">  1       -1 0.74884294E-01 0.18113470E+03</pdfrwt>
<totfact> 0.86061061E+02</totfact>
</mgrwt>
</event>
<event>
12    1  0.4404304E-002  0.2045159E+03  0.7546771E-02  0.1145984E+00
          1   -1    0    0  502    0  0.00000000000E+00  0.00000000000E+00  0.78962295197E+03  0.78962295197E+03  0.00000000000E+00 0.  1.
         -1   -1    0    0    0  501 -0.00000000000E+00 -0.00000000000E+00 -0.53368554733E+02  0.53368554733E+02  0.00000000000E+00 0. -1.
          6    2    1    2  502    0  0.73763593517E+02 -0.84857781431E+02  0.40378049272E+03  0.45243472330E+03  0.17034254240E+03 0.  0.
         24    2    3    3    0    0  0.42191567568E+02 -0.86474038041E+02  0.14254242793E+03  0.18924881638E+03  0.78986600838E+02 0.  0.
         -6    2    1    2    0  501 -0.73763593517E+02  0.84857781431E+02  0.33247390452E+03  0.39055678340E+03  0.17132948689E+03 0.  0.
        -24    2    5    5    0    0 -0.25437212258E+02  0.86971015914E+01  0.26287056087E+03  0.27652782337E+03  0.81510821258E+02 0.  0.
          5    1    3    3  502    0  0.31572025949E+02  0.16162566106E+01  0.26123806479E+03  0.26318590692E+03  0.47000000000E+01 0. -1.
        -11    1    4    4    0    0  0.50068630627E+02 -0.22562028014E+02  0.92986236685E+02  0.10799237516E+03  0.00000000000E+00 0.  1.
         12    1    4    4    0    0 -0.78770630586E+01 -0.63912010028E+02  0.49556191246E+02  0.81256441215E+02  0.00000000000E+00 0. -1.
         -5    1    5    5    0  501 -0.48326381259E+02  0.76160679839E+02  0.69603343654E+02  0.11402896004E+03  0.47000000000E+01 0.  1.
         13    1    6    6    0    0 -0.21867900403E+02 -0.33443618076E+02  0.88513426048E+02  0.97114917746E+02  0.00000000000E+00 0. -1.
        -14    1    6    6    0    0 -0.35693118543E+01  0.42140719667E+02  0.17435713482E+03  0.17941290562E+03  0.00000000000E+00 0.  1.
<mgrwt>
<rscale>  2 0.20451591E+03</rscale>
<asrwt>0</asrwt>
<pdfrwt beam="1">  1        1 0.12148045E+00 0.20451591E+03</pdfrwt>
<pdfrwt beam="2">  1       -1 0.82105474E-02 0.20451591E+03</pdfrwt>
<totfact> 0.19367944E+03</totfact>
</mgrwt>
</event>
<event>
12    1  0.4404304E-002  0.3445485E+03  0.7546771E-02  0.1064875E+00
          2   -1    0    0  502    0  0.00000000000E+00  0.00000000000E+00  0.43275944417E+04  0.43275944417E+04  0.00000000000E+00 0.  1.
         -2   -1    0    0    0  501 -0.00000000000E+00 -0.00000000000E+00 -0.45975478003E+02  0.45975478003E+02  0.00000000000E+00 0. -1.
          6    2    1    2  502    0  0.26405905439E+03 -0.13759820588E+03  0.75112430610E+03  0.82627938072E+03  0.17288563076E+03 0.  0.
         24    2    3    3    0    0  0.99917596721E+02 -0.32535140978E+02  0.18636498317E+03  0.22882155914E+03  0.81150092063E+02 0.  0.
         -6    2    1    2    0  501 -0.26405905439E+03  0.13759820588E+03  0.35304946576E+04  0.35472905390E+04  0.17383092410E+03 0.  0.
        -24    2    5    5    0    0 -0.22513228465E+03  0.70813269252E+02  0.21083700684E+04  0.21230588309E+04  0.80345437749E+02 0.  0.
          5    1    3    3  502    0  0.16414145767E+03 -0.10506306490E+03  0.56475932294E+03  0.59745782159E+03  0.47000000000E+01 0. -1.
        -13    1    4    4    0    0  0.89748055829E+01 -0.34383667197E+02  0.87693574414E+02  0.94620012147E+02  0.00000000000E+00 0.  1.
         14    1    4    4    0    0  0.90942791138E+02  0.18485262192E+01  0.98671408755E+02  0.13420154699E+03  0.00000000000E+00 0. -1.
         -5    1    5    5    0  501 -0.38926769741E+02  0.66784936625E+02  0.14221245892E+04  0.14242317081E+04  0.47000000000E+01 0.  1.
         13    1    6    6    0    0 -0.25253050313E+02  0.34154746632E+02  0.52212794058E+03  0.52385288928E+03  0.00000000000E+00 0. -1.
        -14    1    6    6    0    0 -0.19987923434E+03  0.36658522620E+02  0.15862421278E+04  0.15992059416E+04  0.00000000000E+00 0.  1.
<mgrwt>
<rscale>  2 0.34454848E+03</rscale>
<asrwt>0</asrwt>
<pdfrwt beam="1">  1        2 0.66578344E+00 0.34454848E+03</pdfrwt>
<pdfrwt beam="2">  1       -2 0.70731539E-02 0.34454848E+03</pdfrwt>
<totfact> 0.26858745E+01</totfact>
</mgrwt>
</event>
<event>
12    1  0.4404304E-002  0.1781372E+03  0.7546771E-02  0.1169618E+00
          1   -1    0    0  502    0  0.00000000000E+00  0.00000000000E+00  0.57274586520E+03  0.57274586520E+03  0.00000000000E+00 0.  1.
         -1   -1    0    0    0  501 -0.00000000000E+00 -0.00000000000E+00 -0.58809751867E+02  0.58809751867E+02  0.00000000000E+00 0. -1.
          6    2    1    2  502    0  0.89337136690E+00  0.37488423470E+02  0.17995575999E+03  0.25267548961E+03  0.17336276270E+03 0.  0.
         24    2    3    3    0    0  0.47187315457E+02  0.72392906933E+02  0.10643441978E+03  0.15892619792E+03  0.80385788289E+02 0.  0.
         -6    2    1    2    0  501 -0.89337136690E+00 -0.37488423470E+02  0.33398035334E+03  0.37888012746E+03  0.17493168540E+03 0.  0.
        -24    2    5    5    0    0  0.11796976557E+02 -0.98969074640E+02  0.19413699519E+03  0.22552051668E+03  0.56888348111E+02 0.  0.
          5    1    3    3  502    0 -0.46293944090E+02 -0.34904483463E+02  0.73521340215E+02  0.93749291689E+02  0.47000000000E+01 0. -1.
        -13    1    4    4    0    0 -0.10171084575E+02  0.55734508446E+02  0.38658818185E+02  0.68587831403E+02  0.00000000000E+00 0.  1.
         14    1    4    4    0    0  0.57358400031E+02  0.16658398487E+02  0.67775601594E+02  0.90338366521E+02  0.00000000000E+00 0. -1.
         -5    1    5    5    0  501 -0.12690347924E+02  0.61480651170E+02  0.13984335815E+03  0.15335961078E+03  0.47000000000E+01 0.  1.
         13    1    6    6    0    0  0.27233954028E+02 -0.32686941014E+02  0.10560714292E+03  0.11385514043E+03  0.00000000000E+00 0. -1.
        -14    1    6    6    0    0 -0.15436977472E+02 -0.66282133626E+02  0.88529852266E+02  0.11166537625E+03  0.00000000000E+00 0.  1.
<mgrwt>
<rscale>  2 0.17813724E+03</rscale>
<asrwt>0</asrwt>
<pdfrwt beam="1">  1        1 0.88114745E-01 0.17813724E+03</pdfrwt>
<pdfrwt beam="2">  1       -1 0.90476545E-02 0.17813724E+03</pdfrwt>
<totfact> 0.26364704E+03</totfact>
</mgrwt>
</event>
<event>
12    1  0.4404304E-002  0.2628772E+03  0.7546771E-02  0.1105427E+00
          2   -1    0    0  502    0  0.00000000000E+00  0.00000000000E+00  0.39240843133E+03  0.39240843133E+03  0.00000000000E+00 0.  1.
         -2   -1    0    0    0  501 -0.00000000000E+00 -0.00000000000E+00 -0.26388398898E+03  0.26388398898E+03  0.00000000000E+00 0. -1.
          6    2    1    2  502    0  0.48801307886E+02 -0.19006685015E+03  0.25397404724E+03  0.36767148482E+03  0.17936702287E+03 0.  0.
         24    2    3    3    0    0 -0.26846493815E+02 -0.15413009833E+03  0.20858644525E+03  0.27229767055E+03  0.78491367675E+02 0.  0.
         -6    2    1    2    0  501 -0.48801307886E+02  0.19006685015E+03 -0.12544960489E+03  0.28862093549E+03  0.17046250573E+03 0.  0.
        -24    2    5    5    0    0 -0.14767829879E+02  0.81811122290E+02 -0.13081939084E+03  0.17491735225E+03  0.81063053054E+02 0.  0.
          5    1    3    3  502    0  0.75647801701E+02 -0.35936751819E+02  0.45387601991E+02  0.95373814268E+02  0.47000000000E+01 0. -1.
        -13    1    4    4    0    0 -0.39870790978E+02 -0.35299039321E+02  0.85405134380E+02  0.10064660515E+03  0.00000000000E+00 0.  1.
         14    1    4    4    0    0  0.13024297163E+02 -0.11883105901E+03  0.12318131087E+03  0.17165106540E+03  0.00000000000E+00 0. -1.
         -5    1    5    5    0  501 -0.34033478007E+02  0.10825572786E+03  0.53697859460E+01  0.11370358324E+03  0.47000000000E+01 0.  1.
         13    1    6    6    0    0 -0.48394274335E+02  0.43099217795E+02 -0.70972727129E+02  0.96107629036E+02  0.00000000000E+00 0. -1.
        -14    1    6    6    0    0  0.33626444456E+02  0.38711904496E+02 -0.59846663708E+02  0.78809723216E+02  0.00000000000E+00 0.  1.
<mgrwt>
<rscale>  2 0.26287720E+03</rscale>
<asrwt>0</asrwt>
<pdfrwt beam="1">  1        2 0.60370528E-01 0.26287720E+03</pdfrwt>
<pdfrwt beam="2">  1       -2 0.40597537E-01 0.26287720E+03</pdfrwt>
<totfact> 0.47457546E+02</totfact>
</mgrwt>
</event>
<event>
12    1  0.4404304E-002  0.2207451E+03  0.7546771E-02  0.1133329E+00
         -2   -1    0    0    0  501 -0.00000000000E+00  0.00000000000E+00  0.61814537342E+02  0.61814537342E+02  0.00000000000E+00 0.  1.
          2   -1    0    0  502    0  0.00000000000E+00 -0.00000000000E+00 -0.78834502360E+03  0.78834502360E+03  0.00000000000E+00 0. -1.
          6    2    1    2  502    0 -0.45648790863E+02 -0.13044711427E+03 -0.36120199262E+03  0.42361710913E+03  0.17287080131E+03 0.  0.
         24    2    3    3    0    0 -0.38068402208E+02 -0.15935525183E+03 -0.25821261365E+03  0.31627632056E+03  0.80707233658E+02 0.  0.
         -6    2    1    2    0  501  0.45648790863E+02  0.13044711427E+03 -0.36532849363E+03  0.42654245181E+03  0.17138638572E+03 0.  0.
        -24    2    5    5    0    0  0.23674312030E+02  0.91927886805E+02 -0.36044059803E+03  0.38168055119E+03  0.82166958235E+02 0.  0.
          5    1    3    3  502    0 -0.75803886551E+01  0.28908137567E+02 -0.10298937897E+03  0.10734078856E+03  0.47000000000E+01 0. -1.
        -13    1    4    4    0    0 -0.60559653124E+02 -0.14035837062E+03 -0.22322834495E+03  0.27055283731E+03  0.00000000000E+00 0.  1.
         14    1    4    4    0    0  0.22491250916E+02 -0.18996881216E+02 -0.34984268702E+02  0.45723483248E+02  0.00000000000E+00 0. -1.
         -5    1    5    5    0  501  0.21974478833E+02  0.38519227462E+02 -0.48878956067E+01  0.44861900625E+02  0.47000000000E+01 0.  1.
         11    1    6    6    0    0  0.48761079123E+02  0.83085342783E+02 -0.24603596298E+03  0.26422435940E+03  0.00000000000E+00 0. -1.
        -12    1    6    6    0    0 -0.25086767094E+02  0.88425440219E+01 -0.11440463505E+03  0.11745619178E+03  0.00000000000E+00 0.  1.
<mgrwt>
<rscale>  2 0.22074509E+03</rscale>
<asrwt>0</asrwt>
<pdfrwt beam="2">  1        2 0.12128384E+00 0.22074509E+03</pdfrwt>
<pdfrwt beam="1">  1       -2 0.95099295E-02 0.22074509E+03</pdfrwt>
<totfact> 0.25849348E+03</totfact>
</mgrwt>
</event>
<event>
12    1  0.4404304E-002  0.2056601E+03  0.7546771E-02  0.1145050E+00
          1   -1    0    0  502    0  0.00000000000E+00  0.00000000000E+00  0.45013424973E+03  0.45013424973E+03  0.00000000000E+00 0. -1.
         -1   -1    0    0    0  501 -0.00000000000E+00 -0.00000000000E+00 -0.11465527214E+03  0.11465527214E+03  0.00000000000E+00 0.  1.
          6    2    1    2  502    0  0.83106338638E+02  0.76714707830E+02  0.28784705719E+03  0.35389116876E+03  0.17202099021E+03 0.  0.
         24    2    3    3    0    0  0.43664694774E+02  0.48548770880E+02  0.51733416117E+02  0.11280880778E+03  0.76065051410E+02 0.  0.
         -6    2    1    2    0  501 -0.83106338638E+02 -0.76714707830E+02  0.47631920402E+02  0.21089835311E+03  0.17151532171E+03 0.  0.
        -24    2    5    5    0    0 -0.48416967729E+02 -0.97465594867E+02  0.81716489402E+02  0.15781540282E+03  0.79902263931E+02 0.  0.
          5    1    3    3  502    0  0.39441643864E+02  0.28165936950E+02  0.23611364107E+03  0.24108236098E+03  0.47000000000E+01 0. -1.
        -13    1    4    4    0    0  0.58002027547E+02  0.39995175057E+02  0.61453785941E+02  0.93490197529E+02  0.00000000000E+00 0.  1.
         14    1    4    4    0    0 -0.14337332773E+02  0.85535958231E+01 -0.97203698241E+01  0.19318610252E+02  0.00000000000E+00 0. -1.
         -5    1    5    5    0  501 -0.34689370908E+02  0.20750887037E+02 -0.34084568999E+02  0.53082950283E+02  0.47000000000E+01 0.  1.
         11    1    6    6    0    0 -0.11142595963E+02 -0.91883177535E+02  0.37890642835E+02  0.10001188216E+03  0.00000000000E+00 0. -1.
        -12    1    6    6    0    0 -0.37274371766E+02 -0.55824173324E+01  0.43825846567E+02  0.57803520664E+02  0.00000000000E+00 0.  1.
<mgrwt>
<rscale>  2 0.20566012E+03</rscale>
<asrwt>0</asrwt>
<pdfrwt beam="1">  1        1 0.69251422E-01 0.20566012E+03</pdfrwt>
<pdfrwt beam="2">  1       -1 0.17639273E-01 0.20566012E+03</pdfrwt>
<totfact> 0.12817910E+03</totfact>
</mgrwt>
</event>
<event>
12    1  0.4404304E-002  0.1914145E+03  0.7546771E-02  0.1157192E+00
         -2   -1    0    0    0  501 -0.00000000000E+00  0.00000000000E+00  0.15853676340E+03  0.15853676340E+03  0.00000000000E+00 0. -1.
          2   -1    0    0  502    0  0.00000000000E+00 -0.00000000000E+00 -0.23123835952E+03  0.23123835952E+03  0.00000000000E+00 0.  1.
          6    2    1    2  502    0  0.48362374267E+02 -0.75864295133E+02 -0.37536842827E+02  0.19111243903E+03  0.16437955853E+03 0.  0.
         24    2    3    3    0    0  0.13969804284E+02 -0.31371275053E+02 -0.81291519569E+02  0.11970488031E+03  0.80880373920E+02 0.  0.
         -6    2    1    2    0  501 -0.48362374267E+02  0.75864295133E+02 -0.35164753300E+02  0.19866268389E+03  0.17359721074E+03 0.  0.
        -24    2    5    5    0    0 -0.36619192885E+01  0.11342258668E+03 -0.13439937970E+02  0.13619018162E+03  0.74088061215E+02 0.  0.
          5    1    3    3  502    0  0.34392569983E+02 -0.44493020080E+02  0.43754676743E+02  0.71407558723E+02  0.47000000000E+01 0. -1.
        -13    1    4    4    0    0 -0.10356711754E+02 -0.20212079166E+02 -0.89000797209E+02  0.91852770924E+02  0.00000000000E+00 0.  1.
         14    1    4    4    0    0  0.24326516038E+02 -0.11159195887E+02  0.77092776399E+01  0.27852109384E+02  0.00000000000E+00 0. -1.
         -5    1    5    5    0  501 -0.44700454979E+02 -0.37558291547E+02 -0.21724815330E+02  0.62472502274E+02  0.47000000000E+01 0.  1.
         11    1    6    6    0    0 -0.38915716554E+02  0.58457114906E+02 -0.69759677283E+01  0.70571463098E+02  0.00000000000E+00 0. -1.
        -12    1    6    6    0    0  0.35253797266E+02  0.54965471774E+02 -0.64639702417E+01  0.65618718521E+02  0.00000000000E+00 0.  1.
<mgrwt>
<rscale>  2 0.19141455E+03</rscale>
<asrwt>0</asrwt>
<pdfrwt beam="2">  1        2 0.35575132E-01 0.19141455E+03</pdfrwt>
<pdfrwt beam="1">  1       -2 0.24390271E-01 0.19141455E+03</pdfrwt>
<totfact> 0.21283259E+03</totfact>
</mgrwt>
</event>
<event>
12    1  0.4404304E-002  0.1806620E+03  0.7546771E-02  0.1167164E+00
         -2   -1    0    0    0  501 -0.00000000000E+00  0.00000000000E+00  0.26951729170E+02  0.26951729170E+02  0.00000000000E+00 0. -1.
          2   -1    0    0  502    0  0.00000000000E+00 -0.00000000000E+00 -0.13829554140E+04  0.13829554140E+04  0.00000000000E+00 0.  1.
          6    2    1    2  502    0  0.19355954119E+02 -0.48714176459E+02 -0.92688363348E+03  0.94434420027E+03  0.17298836553E+03 0.  0.
         24    2    3    3    0    0 -0.27111613177E+01 -0.95292347368E+02 -0.74910620755E+03  0.75918646546E+03  0.78204841781E+02 0.  0.
         -6    2    1    2    0  501 -0.19355954119E+02  0.48714176459E+02 -0.42912005131E+03  0.46556294287E+03  0.17279210452E+03 0.  0.
        -24    2    5    5    0    0  0.15120737955E+02  0.96419723891E+02 -0.30310180776E+03  0.32639703735E+03  0.71686262619E+02 0.  0.
          5    1    3    3  502    0  0.22067115437E+02  0.46578170909E+02 -0.17777742593E+03  0.18515773481E+03  0.47000000000E+01 0. -1.
        -13    1    4    4    0    0  0.30153794226E+02 -0.22283598295E+02 -0.35874389494E+03  0.36069792377E+03  0.00000000000E+00 0.  1.
         14    1    4    4    0    0 -0.32864955543E+02 -0.73008749073E+02 -0.39036231261E+03  0.39848854168E+03  0.00000000000E+00 0. -1.
         -5    1    5    5    0  501 -0.34476692074E+02 -0.47705547432E+02 -0.12601824355E+03  0.13916590552E+03  0.47000000000E+01 0.  1.
         11    1    6    6    0    0 -0.16220012270E+02  0.35781045738E+02 -0.46511169615E+02  0.60882353199E+02  0.00000000000E+00 0. -1.
        -12    1    6    6    0    0  0.31340750225E+02  0.60638678153E+02 -0.25659063815E+03  0.26551468415E+03  0.00000000000E+00 0.  1.
<mgrwt>
<rscale>  2 0.18066198E+03</rscale>
<asrwt>0</asrwt>
<pdfrwt beam="2">  1        2 0.21276236E+00 0.18066198E+03</pdfrwt>
<pdfrwt beam="1">  1       -2 0.41464202E-02 0.18066198E+03</pdfrwt>
<totfact> 0.40829028E+03</totfact>
</mgrwt>
</event>
<event>
12    1  0.4404304E-002  0.1738659E+03  0.7546771E-02  0.1173875E+00
         -2   -1    0    0    0  501 -0.00000000000E+00  0.00000000000E+00  0.13319860623E+03  0.13319860623E+03  0.00000000000E+00 0.  1.
          2   -1    0    0  502    0  0.00000000000E+00 -0.00000000000E+00 -0.25375106011E+03  0.25375106011E+03  0.00000000000E+00 0. -1.
          6    2    1    2  502    0 -0.19970775671E+02  0.10589017328E+02 -0.12322510086E+03  0.21329226250E+03  0.17262156468E+03 0.  0.
         24    2    3    3    0    0  0.77278702657E+01  0.18129703679E+02 -0.15161097554E+03  0.17264838451E+03  0.80207048529E+02 0.  0.
         -6    2    1    2    0  501  0.19970775671E+02 -0.10589017328E+02  0.26726469831E+01  0.17365740384E+03  0.17215920451E+03 0.  0.
        -24    2    5    5    0    0  0.20508477401E+02 -0.31414660225E+02  0.63740063735E+02  0.10896338623E+03  0.80017156234E+02 0.  0.
          5    1    3    3  502    0 -0.27698645937E+02 -0.75406863514E+01  0.28385874679E+02  0.40643877998E+02  0.47000000000E+01 0. -1.
        -13    1    4    4    0    0 -0.18990775748E+02  0.37441501590E+02 -0.47262138494E+02  0.63215704852E+02  0.00000000000E+00 0.  1.
         14    1    4    4    0    0  0.26718646014E+02 -0.19311797911E+02 -0.10434883705E+03  0.10943267965E+03  0.00000000000E+00 0. -1.
         -5    1    5    5    0  501 -0.53770172980E+00  0.20825642897E+02 -0.61067416751E+02  0.64694017605E+02  0.47000000000E+01 0.  1.
         13    1    6    6    0    0  0.30871341927E+02  0.12832013204E+02  0.36592159299E+01  0.33631684115E+02  0.00000000000E+00 0. -1.
        -14    1    6    6    0    0 -0.10362864525E+02 -0.44246673429E+02  0.60080847805E+02  0.75331702116E+02  0.00000000000E+00 0.  1.
<mgrwt>
<rscale>  2 0.17386590E+03</rscale>
<asrwt>0</asrwt>
<pdfrwt beam="2">  1        2 0.39038624E-01 0.17386590E+03</pdfrwt>
<pdfrwt beam="1">  1       -2 0.20492093E-01 0.17386590E+03</pdfrwt>
<totfact> 0.25931515E+03</totfact>
</mgrwt>
</event>
<event>
12    1  0.4404304E-002  0.3641245E+03  0.7546771E-02  0.1056963E+00
          3   -1    0    0  502    0  0.00000000000E+00  0.00000000000E+00  0.53135118162E+03  0.53135118162E+03  0.00000000000E+00 0.  1.
         -3   -1    0    0    0  501 -0.00000000000E+00 -0.00000000000E+00 -0.26538334700E+03  0.26538334700E+03  0.00000000000E+00 0. -1.
          6    2    1    2  502    0  0.29543987228E+03 -0.12574771560E+03  0.23017748932E+03  0.43033619149E+03  0.17061756945E+03 0.  0.
         24    2    3    3    0    0  0.21363204761E+03 -0.30619961479E+02  0.10563176941E+03  0.25348728386E+03  0.80755795854E+02 0.  0.
         -6    2    1    2    0  501 -0.29543987228E+03  0.12574771560E+03  0.35790345312E+02  0.36639833713E+03  0.17282819945E+03 0.  0.
        -24    2    5    5    0    0 -0.83092681018E+02  0.93146690811E+02  0.39277114171E+02  0.15148346093E+03  0.76314137556E+02 0.  0.
          5    1    3    3  502    0  0.81807824671E+02 -0.95127754119E+02  0.12454571990E+03  0.17684890762E+03  0.47000000000E+01 0. -1.
        -13    1    4    4    0    0  0.14745654150E+03 -0.21479042003E+02  0.11195734573E+03  0.18638462420E+03  0.00000000000E+00 0.  1.
         14    1    4    4    0    0  0.66175506109E+02 -0.91409194756E+01 -0.63255763169E+01  0.67102659659E+02  0.00000000000E+00 0. -1.
         -5    1    5    5    0  501 -0.21234719126E+03  0.32601024787E+02 -0.34867688585E+01  0.21491487620E+03  0.47000000000E+01 0.  1.
         11    1    6    6    0    0  0.86393284744E+01  0.89213813451E+00 -0.91948836409E+01  0.12648311828E+02  0.00000000000E+00 0. -1.
        -12    1    6    6    0    0 -0.91732009493E+02  0.92254552676E+02  0.48471997812E+02  0.13883514910E+03  0.00000000000E+00 0.  1.
<mgrwt>
<rscale>  2 0.36412448E+03</rscale>
<asrwt>0</asrwt>
<pdfrwt beam="1">  1        3 0.81746336E-01 0.36412448E+03</pdfrwt>
<pdfrwt beam="2">  1       -3 0.40828207E-01 0.36412448E+03</pdfrwt>
<totfact> 0.21353152E+01</totfact>
</mgrwt>
</event>
<event>
12    1  0.4404304E-002  0.2749704E+03  0.7546771E-02  0.1098468E+00
          2   -1    0    0  502    0  0.00000000000E+00  0.00000000000E+00  0.91556569564E+03  0.91556569564E+03  0.00000000000E+00 0.  1.
         -2   -1    0    0    0  501 -0.00000000000E+00 -0.00000000000E+00 -0.82605042908E+02  0.82605042908E+02  0.00000000000E+00 0. -1.
          6    2    1    2  502    0  0.19575657825E+03 -0.86356531039E+02  0.42602531542E+03  0.50750110611E+03  0.17401642147E+03 0.  0.
         24    2    3    3    0    0  0.15785036391E+03  0.46245587212E+01  0.26162127227E+03  0.31575852037E+03  0.79496095229E+02 0.  0.
         -6    2    1    2    0  501 -0.19575657825E+03  0.86356531039E+02  0.40693533732E+03  0.49066963245E+03  0.17141245889E+03 0.  0.
        -24    2    5    5    0    0 -0.20848657833E+03  0.81881068935E+02  0.29697557356E+03  0.37978535805E+03  0.76624174392E+02 0.  0.
          5    1    3    3  502    0  0.37906214344E+02 -0.90981089761E+02  0.16440404315E+03  0.19174258573E+03  0.47000000000E+01 0. -1.
        -13    1    4    4    0    0 -0.24398163901E+01  0.34940559030E+01  0.50504513342E+02  0.50683991541E+02  0.00000000000E+00 0.  1.
         14    1    4    4    0    0  0.16029018030E+03  0.11305028182E+01  0.21111675893E+03  0.26507452883E+03  0.00000000000E+00 0. -1.
         -5    1    5    5    0  501  0.12730000078E+02  0.44754621039E+01  0.10995976376E+03  0.11088427440E+03  0.47000000000E+01 0.  1.
         11    1    6    6    0    0 -0.20390479572E+03  0.89600169044E+02  0.29644975070E+03  0.37079348794E+03  0.00000000000E+00 0. -1.
        -12    1    6    6    0    0 -0.45817826087E+01 -0.77191001085E+01  0.52582286639E+00  0.89918701083E+01  0.00000000000E+00 0.  1.
<mgrwt>
<rscale>  2 0.27497041E+03</rscale>
<asrwt>0</asrwt>
<pdfrwt beam="1">  1        2 0.14085625E+00 0.27497041E+03</pdfrwt>
<pdfrwt beam="2">  1       -2 0.12708469E-01 0.27497041E+03</pdfrwt>
<totfact> 0.13370113E+03</totfact>
</mgrwt>
</event>
<event>
12    1  0.4404304E-002  0.1758573E+03  0.7546771E-02  0.1171874E+00
          2   -1    0    0  502    0  0.00000000000E+00  0.00000000000E+00  0.19332024423E+04  0.19332024423E+04  0.00000000000E+00 0. -1.
         -2   -1    0    0    0  501 -0.00000000000E+00 -0.00000000000E+00 -0.18266109851E+02  0.18266109851E+02  0.00000000000E+00 0.  1.
          6    2    1    2  502    0  0.85093734615E+01  0.29026635979E+02  0.13031541320E+04  0.13150170250E+04  0.17362064704E+03 0.  0.
         24    2    3    3    0    0 -0.10193805131E+02  0.19016581345E+02  0.12808652991E+04  0.12838899924E+04  0.85393524980E+02 0.  0.
         -6    2    1    2    0  501 -0.85093734615E+01 -0.29026635979E+02  0.61178220039E+03  0.63645152716E+03  0.17285291632E+03 0.  0.
        -24    2    5    5    0    0 -0.24448991881E+02  0.37072613439E+02  0.46474184369E+03  0.47438321222E+03  0.84156514247E+02 0.  0.
          5    1    3    3  502    0  0.18703178592E+02  0.10010054634E+02  0.22288832948E+02  0.31127032583E+02  0.47000000000E+01 0. -1.
        -13    1    4    4    0    0  0.29529875804E+02  0.23950993380E+02  0.33011787048E+03  0.33230027394E+03  0.00000000000E+00 0.  1.
         14    1    4    4    0    0 -0.39723680934E+02 -0.49344120351E+01  0.95074742862E+03  0.95158971845E+03  0.00000000000E+00 0. -1.
         -5    1    5    5    0  501  0.15939618420E+02 -0.66099249417E+02  0.14704035670E+03  0.16206831494E+03  0.47000000000E+01 0.  1.
         13    1    6    6    0    0  0.28556160003E+02 -0.63636446839E+00  0.10544102475E+03  0.10924133345E+03  0.00000000000E+00 0. -1.
        -14    1    6    6    0    0 -0.53005151884E+02  0.37708977907E+02  0.35930081894E+03  0.36514187877E+03  0.00000000000E+00 0.  1.
<mgrwt>
<rscale>  2 0.17585733E+03</rscale>
<asrwt>0</asrwt>
<pdfrwt beam="1">  1        2 0.29741560E+00 0.17585733E+03</pdfrwt>
<pdfrwt beam="2">  1       -2 0.28101723E-02 0.17585733E+03</pdfrwt>
<totfact> 0.37570296E+03</totfact>
</mgrwt>
</event>
<event>
12    1  0.4404304E-002  0.2490063E+03  0.7546771E-02  0.1113934E+00
         -1   -1    0    0    0  501 -0.00000000000E+00  0.00000000000E+00  0.17623751114E+03  0.17623751114E+03  0.00000000000E+00 0. -1.
          1   -1    0    0  502    0  0.00000000000E+00 -0.00000000000E+00 -0.41085769122E+03  0.41085769122E+03  0.00000000000E+00 0.  1.
          6    2    1    2  502    0 -0.32529224079E+02  0.17610844041E+03 -0.22849374589E+03  0.33779144021E+03  0.17268854035E+03 0.  0.
         24    2    3    3    0    0 -0.14662426254E+02  0.16063343493E+03 -0.24816804940E+03  0.30668088770E+03  0.80297565187E+02 0.  0.
         -6    2    1    2    0  501  0.32529224079E+02 -0.17610844041E+03 -0.61264341946E+01  0.24930376215E+03  0.17332772260E+03 0.  0.
        -24    2    5    5    0    0 -0.49237167473E+02 -0.85129345313E+02  0.44171583443E+01  0.12643718461E+03  0.79344478507E+02 0.  0.
          5    1    3    3  502    0 -0.17866797826E+02  0.15475005479E+02  0.19674303510E+02  0.31110552514E+02  0.47000000000E+01 0. -1.
        -13    1    4    4    0    0 -0.42273729079E+02  0.13473792308E+03 -0.20876979090E+03  0.25204404710E+03  0.00000000000E+00 0.  1.
         14    1    4    4    0    0  0.27611302825E+02  0.25895511852E+02 -0.39398258500E+02  0.54636840599E+02  0.00000000000E+00 0. -1.
         -5    1    5    5    0  501  0.81766391552E+02 -0.90979095101E+02 -0.10543592539E+02  0.12286657754E+03  0.47000000000E+01 0.  1.
         13    1    6    6    0    0 -0.59461709520E+02 -0.94718599996E+02  0.33269612056E+00  0.11183657171E+03  0.00000000000E+00 0. -1.
        -14    1    6    6    0    0  0.10224542047E+02  0.95892546831E+01  0.40844622237E+01  0.14600612902E+02  0.00000000000E+00 0.  1.
<mgrwt>
<rscale>  2 0.24900633E+03</rscale>
<asrwt>0</asrwt>
<pdfrwt beam="2">  1        1 0.63208875E-01 0.24900633E+03</pdfrwt>
<pdfrwt beam="1">  1       -1 0.27113463E-01 0.24900633E+03</pdfrwt>
<totfact> 0.71314987E+02</totfact>
</mgrwt>
</event>
<event>
12    1  0.4404304E-002  0.2125234E+03  0.7546771E-02  0.1139583E+00
          2   -1    0    0  502    0  0.00000000000E+00  0.00000000000E+00  0.32744460042E+03  0.32744460042E+03  0.00000000000E+00 0. -1.
         -2   -1    0    0    0  501 -0.00000000000E+00 -0.00000000000E+00 -0.13967500329E+03  0.13967500329E+03  0.00000000000E+00 0.  1.
          6    2    1    2  502    0  0.12080446584E+03  0.21561687452E+02  0.11939046625E+03  0.24271487521E+03  0.17204011708E+03 0.  0.
         24    2    3    3    0    0  0.61018359907E+01  0.38781551553E+02  0.27266234175E+02  0.94518447622E+02  0.81541696520E+02 0.  0.
         -6    2    1    2    0  501 -0.12080446584E+03 -0.21561687452E+02  0.68379130885E+02  0.22440472850E+03  0.17499471792E+03 0.  0.
        -24    2    5    5    0    0 -0.22902414600E+02 -0.41952942470E+02 -0.93186278368E+01  0.97678067421E+02  0.84673479047E+02 0.  0.
          5    1    3    3  502    0  0.11470262985E+03 -0.17219864101E+02  0.92124232075E+02  0.14819642759E+03  0.47000000000E+01 0. -1.
        -11    1    4    4    0    0 -0.52590839655E+01 -0.23042037798E+02  0.20518364754E+02  0.31298510543E+02  0.00000000000E+00 0.  1.
         12    1    4    4    0    0  0.11360919956E+02  0.61823589351E+02  0.67478694215E+01  0.63219937079E+02  0.00000000000E+00 0. -1.
         -5    1    5    5    0  501 -0.97902051242E+02  0.20391255018E+02  0.77697758721E+02  0.12672666108E+03  0.47000000000E+01 0.  1.
         13    1    6    6    0    0 -0.30036261254E+02 -0.51450216948E+02  0.22524346206E+02  0.63691820402E+02  0.00000000000E+00 0. -1.
        -14    1    6    6    0    0  0.71338466532E+01  0.94972744784E+01 -0.31842974042E+02  0.33986247019E+02  0.00000000000E+00 0.  1.
<mgrwt>
<rscale>  2 0.21252339E+03</rscale>
<asrwt>0</asrwt>
<pdfrwt beam="1">  1        2 0.50376092E-01 0.21252339E+03</pdfrwt>
<pdfrwt beam="2">  1       -2 0.21488462E-01 0.21252339E+03</pdfrwt>
<totfact> 0.18303191E+03</totfact>
</mgrwt>
</event>
<event>
12    1  0.4404304E-002  0.2540244E+03  0.7546771E-02  0.1110788E+00
         -2   -1    0    0    0  501 -0.00000000000E+00  0.00000000000E+00  0.11915796843E+03  0.11915796843E+03  0.00000000000E+00 0.  1.
          2   -1    0    0  502    0  0.00000000000E+00 -0.00000000000E+00 -0.89880778946E+03  0.89880778946E+03  0.00000000000E+00 0. -1.
          6    2    1    2  502    0 -0.26271889350E+02 -0.18458452192E+03 -0.71070256733E+03  0.75472814856E+03  0.17249574234E+03 0.  0.
         24    2    3    3    0    0 -0.44083842459E+02 -0.25943555772E+02 -0.24403801295E+03  0.26149177711E+03  0.78784163882E+02 0.  0.
         -6    2    1    2    0  501  0.26271889350E+02  0.18458452192E+03 -0.68947253694E+02  0.26323760932E+03  0.17256493638E+03 0.  0.
        -24    2    5    5    0    0 -0.25813275572E+02  0.59988952096E+02  0.14223123956E+02  0.10456712642E+03  0.80417579569E+02 0.  0.
          5    1    3    3  502    0  0.17811953109E+02 -0.15864096615E+03 -0.46666455438E+03  0.49323637146E+03  0.47000000000E+01 0. -1.
        -13    1    4    4    0    0 -0.51996631065E+02 -0.45944667328E+02 -0.21057130946E+03  0.22170890479E+03  0.00000000000E+00 0.  1.
         14    1    4    4    0    0  0.79127886064E+01  0.20001111556E+02 -0.33466703495E+02  0.39782872317E+02  0.00000000000E+00 0. -1.
         -5    1    5    5    0  501  0.52085164922E+02  0.12459556983E+03 -0.83170377651E+02  0.15867048290E+03  0.47000000000E+01 0.  1.
         13    1    6    6    0    0 -0.44185349744E+02  0.11636671417E+02 -0.11033424471E+02  0.47005251932E+02  0.00000000000E+00 0. -1.
        -14    1    6    6    0    0  0.18372074172E+02  0.48352280680E+02  0.25256548428E+02  0.57561874490E+02  0.00000000000E+00 0.  1.
<mgrwt>
<rscale>  2 0.25402436E+03</rscale>
<asrwt>0</asrwt>
<pdfrwt beam="2">  1        2 0.13827812E+00 0.25402436E+03</pdfrwt>
<pdfrwt beam="1">  1       -2 0.18331995E-01 0.25402436E+03</pdfrwt>
<totfact> 0.74594259E+02</totfact>
</mgrwt>
</event>
<event>
12    1  0.4404304E-002  0.1901340E+03  0.7546771E-02  0.1158341E+00
         -1   -1    0    0    0  501 -0.00000000000E+00  0.00000000000E+00  0.96877081055E+02  0.96877081055E+02  0.00000000000E+00 0.  1.
          1   -1    0    0  502    0  0.00000000000E+00 -0.00000000000E+00 -0.37899025188E+03  0.37899025188E+03  0.00000000000E+00 0. -1.
          6    2    1    2  502    0 -0.77683675226E+02 -0.15064460732E+02 -0.11168897381E+03  0.22067149743E+03  0.17308896999E+03 0.  0.
         24    2    3    3    0    0 -0.90901295387E+02  0.43005432290E+02 -0.88961820434E+02  0.15675411748E+03  0.80902009515E+02 0.  0.
         -6    2    1    2    0  501  0.77683675226E+02  0.15064460732E+02 -0.17042419701E+03  0.25519583551E+03  0.17268125596E+03 0.  0.
        -24    2    5    5    0    0  0.10454894657E+03  0.51419590388E+02 -0.14668900619E+03  0.20392315721E+03  0.80576255825E+02 0.  0.
          5    1    3    3  502    0  0.13217620160E+02 -0.58069893022E+02 -0.22727153377E+02  0.63917379944E+02  0.47000000000E+01 0. -1.
        -13    1    4    4    0    0 -0.14953160154E+02  0.13932700801E+02  0.14571854718E+02  0.25100918312E+02  0.00000000000E+00 0.  1.
         14    1    4    4    0    0 -0.75948135233E+02  0.29072731489E+02 -0.10353367515E+03  0.13165319917E+03  0.00000000000E+00 0. -1.
         -5    1    5    5    0  501 -0.26865271344E+02 -0.36355129656E+02 -0.23735190818E+02  0.51272678298E+02  0.47000000000E+01 0.  1.
         13    1    6    6    0    0 -0.46573938592E+01 -0.13444900362E+02 -0.10416420454E+02  0.17634014812E+02  0.00000000000E+00 0. -1.
        -14    1    6    6    0    0  0.10920634043E+03  0.64864490750E+02 -0.13627258574E+03  0.18628914240E+03  0.00000000000E+00 0.  1.
<mgrwt>
<rscale>  2 0.19013397E+03</rscale>
<asrwt>0</asrwt>
<pdfrwt beam="2">  1        1 0.58306191E-01 0.19013397E+03</pdfrwt>
<pdfrwt beam="1">  1       -1 0.14904167E-01 0.19013397E+03</pdfrwt>
<totfact> 0.20863116E+03</totfact>
</mgrwt>
</event>
<event>
12    1  0.4404304E-002  0.1763556E+03  0.7546771E-02  0.1171377E+00
          1   -1    0    0  502    0  0.00000000000E+00  0.00000000000E+00  0.26253485791E+03  0.26253485791E+03  0.00000000000E+00 0. -1.
         -1   -1    0    0    0  501 -0.00000000000E+00 -0.00000000000E+00 -0.16625072252E+03  0.16625072252E+03  0.00000000000E+00 0.  1.
          6    2    1    2  502    0 -0.17807990732E+02 -0.24435590282E+02 -0.66682215779E+02  0.18909449474E+03  0.17434445054E+03 0.  0.
         24    2    3    3    0    0  0.56137425307E+02 -0.53808102205E+00 -0.51816779626E+02  0.10983487895E+03  0.78911481628E+02 0.  0.
         -6    2    1    2    0  501  0.17807990732E+02  0.24435590282E+02  0.16296635118E+03  0.23969108569E+03  0.17314607226E+03 0.  0.
        -24    2    5    5    0    0 -0.48165654505E+02  0.50616732386E+01  0.47587722042E+02  0.10529544369E+03  0.80479738837E+02 0.  0.
          5    1    3    3  502    0 -0.73945416040E+02 -0.23897509260E+02 -0.14865436152E+02  0.79259615783E+02  0.47000000000E+01 0. -1.
        -13    1    4    4    0    0  0.28127890977E+02  0.11263469533E+02 -0.68686760592E+02  0.75072731916E+02  0.00000000000E+00 0.  1.
         14    1    4    4    0    0  0.28009534331E+02 -0.11801550555E+02  0.16869980966E+02  0.34762147038E+02  0.00000000000E+00 0. -1.
         -5    1    5    5    0  501  0.65973645237E+02  0.19373917043E+02  0.11537862913E+03  0.13439564200E+03  0.47000000000E+01 0.  1.
         11    1    6    6    0    0  0.71906673517E+01  0.24366241770E+01  0.49269853803E+02  0.49851392439E+02  0.00000000000E+00 0. -1.
        -12    1    6    6    0    0 -0.55356321857E+02  0.26250490616E+01 -0.16821317610E+01  0.55444051253E+02  0.00000000000E+00 0.  1.
<mgrwt>
<rscale>  2 0.17635561E+03</rscale>
<asrwt>0</asrwt>
<pdfrwt beam="1">  1        1 0.40389978E-01 0.17635561E+03</pdfrwt>
<pdfrwt beam="2">  1       -1 0.25577034E-01 0.17635561E+03</pdfrwt>
<totfact> 0.13790016E+03</totfact>
</mgrwt>
</event>
<event>
12    1  0.4404304E-002  0.6630154E+03  0.7546771E-02  0.9782659E-01
         -2   -1    0    0    0  501 -0.00000000000E+00  0.00000000000E+00  0.31745099246E+03  0.31745099246E+03  0.00000000000E+00 0. -1.
          2   -1    0    0  502    0  0.00000000000E+00 -0.00000000000E+00 -0.15675658784E+04  0.15675658784E+04  0.00000000000E+00 0.  1.
          6    2    1    2  502    0  0.61456325214E+03 -0.17720388312E+03 -0.94659519966E+03  0.11554661110E+04  0.17311919192E+03 0.  0.
         24    2    3    3    0    0  0.48126197068E+03 -0.16667530463E+03 -0.83432315584E+03  0.98080305130E+03  0.80534188294E+02 0.  0.
         -6    2    1    2    0  501 -0.61456325214E+03  0.17720388312E+03 -0.30351968625E+03  0.72955075982E+03  0.17615590862E+03 0.  0.
        -24    2    5    5    0    0 -0.62263689737E+03  0.17274914248E+03 -0.29102524054E+03  0.71332640668E+03  0.81362765675E+02 0.  0.
          5    1    3    3  502    0  0.13330128146E+03 -0.10528578496E+02 -0.11227204382E+03  0.17466305971E+03  0.47000000000E+01 0. -1.
        -13    1    4    4    0    0  0.36164701396E+03 -0.98174454551E+02 -0.65505120110E+03  0.75466473503E+03  0.00000000000E+00 0.  1.
         14    1    4    4    0    0  0.11961495672E+03 -0.68500850078E+02 -0.17927195473E+03  0.22613831627E+03  0.00000000000E+00 0. -1.
         -5    1    5    5    0  501  0.80736452282E+01  0.44547406449E+01 -0.12494445708E+02  0.16224353147E+02  0.47000000000E+01 0.  1.
         13    1    6    6    0    0 -0.70748774164E+02 -0.60746846430E+01 -0.35933865660E+02  0.79583500428E+02  0.00000000000E+00 0. -1.
        -14    1    6    6    0    0 -0.55188812320E+03  0.17882382712E+03 -0.25509137488E+03  0.63374290625E+03  0.00000000000E+00 0.  1.
<mgrwt>
<rscale>  2 0.66301543E+03</rscale>
<asrwt>0</asrwt>
<pdfrwt beam="2">  1        2 0.24116399E+00 0.66301543E+03</pdfrwt>
<pdfrwt beam="1">  1       -2 0.48838613E-01 0.66301543E+03</pdfrwt>
<totfact> 0.47699627E+01</totfact>
</mgrwt>
</event>
<event>
12    1  0.4404304E-002  0.2189492E+03  0.7546771E-02  0.1134669E+00
          3   -1    0    0  502    0  0.00000000000E+00  0.00000000000E+00  0.31540397731E+03  0.31540397731E+03  0.00000000000E+00 0.  1.
         -3   -1    0    0    0  501 -0.00000000000E+00 -0.00000000000E+00 -0.15200371597E+03  0.15200371597E+03  0.00000000000E+00 0. -1.
          6    2    1    2  502    0  0.46106744064E+02 -0.12615919823E+03  0.79540287483E+02  0.23273578504E+03  0.17261898261E+03 0.  0.
         24    2    3    3    0    0  0.91821999279E+02 -0.59908372886E+02  0.34657597776E+02  0.14045576416E+03  0.80662134288E+02 0.  0.
         -6    2    1    2    0  501 -0.46106744064E+02  0.12615919823E+03  0.83859973855E+02  0.23467190824E+03  0.17319478675E+03 0.  0.
        -24    2    5    5    0    0 -0.54981381033E+02  0.15995989793E+03  0.69074953495E+02  0.19643667177E+03  0.72151892637E+02 0.  0.
          5    1    3    3  502    0 -0.45715255216E+02 -0.66250825349E+02  0.44882689707E+02  0.92280020883E+02  0.47000000000E+01 0. -1.
        -13    1    4    4    0    0  0.72957618318E+02 -0.75006437277E+02  0.45340178026E+02  0.11403732480E+03  0.00000000000E+00 0.  1.
         14    1    4    4    0    0  0.18864380962E+02  0.15098064391E+02 -0.10682580250E+02  0.26418439360E+02  0.00000000000E+00 0. -1.
         -5    1    5    5    0  501  0.88746369696E+01 -0.33800699692E+02  0.14785020360E+02  0.38235236472E+02  0.47000000000E+01 0.  1.
         13    1    6    6    0    0 -0.46900867429E+02  0.52429811692E+02  0.39360406628E+01  0.70456149028E+02  0.00000000000E+00 0. -1.
        -14    1    6    6    0    0 -0.80805136039E+01  0.10753008623E+03  0.65138912832E+02  0.12598052274E+03  0.00000000000E+00 0.  1.
<mgrwt>
<rscale>  2 0.21894918E+03</rscale>
<asrwt>0</asrwt>
<pdfrwt beam="1">  1        3 0.48523689E-01 0.21894918E+03</pdfrwt>
<pdfrwt beam="2">  1       -3 0.23385187E-01 0.21894918E+03</pdfrwt>
<totfact> 0.17737276E+02</totfact>
</mgrwt>
</event>
<event>
12    1  0.4404304E-002  0.1882568E+03  0.7546771E-02  0.1160043E+00
         -1   -1    0    0    0  501 -0.00000000000E+00  0.00000000000E+00  0.53270776675E+02  0.53270776675E+02  0.00000000000E+00 0. -1.
          1   -1    0    0  502    0  0.00000000000E+00 -0.00000000000E+00 -0.66631196109E+03  0.66631196109E+03  0.00000000000E+00 0.  1.
          6    2    1    2  502    0 -0.20166398860E+02  0.73794565671E+02 -0.29099485255E+03  0.34605972218E+03  0.17095907562E+03 0.  0.
         24    2    3    3    0    0 -0.23592140906E+02 -0.21739062320E+02 -0.97335807616E+02  0.13004045111E+03  0.80044259870E+02 0.  0.
         -6    2    1    2    0  501  0.20166398860E+02 -0.73794565671E+02 -0.32204633187E+03  0.37352301559E+03  0.17307016422E+03 0.  0.
        -24    2    5    5    0    0 -0.11940843434E+02 -0.50419232584E+01 -0.26891070486E+03  0.28076911700E+03  0.79688927344E+02 0.  0.
          5    1    3    3  502    0  0.34257420458E+01  0.95533627991E+02 -0.19365904494E+03  0.21601927107E+03  0.47000000000E+01 0. -1.
        -11    1    4    4    0    0 -0.14221284984E+02 -0.21549193488E+02 -0.11072571735E+03  0.11369607368E+03  0.00000000000E+00 0.  1.
         12    1    4    4    0    0 -0.93708559220E+01 -0.18986883294E+00  0.13389909738E+02  0.16344377433E+02  0.00000000000E+00 0. -1.
         -5    1    5    5    0  501  0.32107242293E+02 -0.68752642412E+02 -0.53135627009E+02  0.92753898592E+02  0.47000000000E+01 0.  1.
         11    1    6    6    0    0  0.19930985725E+02 -0.21145220103E+02 -0.42038190449E+02  0.51103561338E+02  0.00000000000E+00 0. -1.
        -12    1    6    6    0    0 -0.31871829158E+02  0.16103296844E+02 -0.22687251441E+03  0.22966555566E+03  0.00000000000E+00 0.  1.
<mgrwt>
<rscale>  2 0.18825675E+03</rscale>
<asrwt>0</asrwt>
<pdfrwt beam="2">  1        1 0.10250954E+00 0.18825675E+03</pdfrwt>
<pdfrwt beam="1">  1       -1 0.81955034E-02 0.18825675E+03</pdfrwt>
<totfact> 0.24885902E+03</totfact>
</mgrwt>
</event>
<event>
12    1  0.4404304E-002  0.1904273E+03  0.7546771E-02  0.1158076E+00
         -2   -1    0    0    0  501 -0.00000000000E+00  0.00000000000E+00  0.10000497710E+03  0.10000497710E+03  0.00000000000E+00 0.  1.
          2   -1    0    0  502    0  0.00000000000E+00 -0.00000000000E+00 -0.41888345167E+03  0.41888345167E+03  0.00000000000E+00 0. -1.
          6    2    1    2  502    0 -0.74058096711E+02 -0.41796866956E+02 -0.65577698566E+02  0.20298476827E+03  0.17225214607E+03 0.  0.
         24    2    3    3    0    0 -0.11169522640E+02  0.10907782084E+02 -0.81506994809E+02  0.11926747461E+03  0.85659805928E+02 0.  0.
         -6    2    1    2    0  501  0.74058096711E+02  0.41796866956E+02 -0.25330077601E+03  0.31590366049E+03  0.16852970008E+03 0.  0.
        -24    2    5    5    0    0  0.67479117982E+02 -0.13681499906E+02 -0.66547723946E+02  0.12091667476E+03  0.73835139799E+02 0.  0.
          5    1    3    3  502    0 -0.62888574072E+02 -0.52704649040E+02  0.15929296242E+02  0.83717293661E+02  0.47000000000E+01 0. -1.
        -13    1    4    4    0    0 -0.16374723570E+02  0.33721851979E+02 -0.32971646127E+01  0.37631983304E+02  0.00000000000E+00 0.  1.
         14    1    4    4    0    0  0.52052009306E+01 -0.22814069895E+02 -0.78209830196E+02  0.81635491308E+02  0.00000000000E+00 0. -1.
         -5    1    5    5    0  501  0.65789787288E+01  0.55478366862E+02 -0.18675305206E+03  0.19498698573E+03  0.47000000000E+01 0.  1.
         13    1    6    6    0    0  0.20478010913E+02 -0.41324387155E+02 -0.25799071280E+02  0.52845491610E+02  0.00000000000E+00 0. -1.
        -14    1    6    6    0    0  0.47001107070E+02  0.27642887248E+02 -0.40748652666E+02  0.68071183149E+02  0.00000000000E+00 0.  1.
<mgrwt>
<rscale>  2 0.19042732E+03</rscale>
<asrwt>0</asrwt>
<pdfrwt beam="2">  1        2 0.64443608E-01 0.19042732E+03</pdfrwt>
<pdfrwt beam="1">  1       -2 0.15385381E-01 0.19042732E+03</pdfrwt>
<totfact> 0.24575461E+03</totfact>
</mgrwt>
</event>
<event>
12    1  0.4404304E-002  0.1819914E+03  0.7546771E-02  0.1165890E+00
         -3   -1    0    0    0  501 -0.00000000000E+00  0.00000000000E+00  0.18124546905E+02  0.18124546905E+02  0.00000000000E+00 0.  1.
          3   -1    0    0  502    0  0.00000000000E+00 -0.00000000000E+00 -0.18285990076E+04  0.18285990076E+04  0.00000000000E+00 0. -1.
          6    2    1    2  502    0 -0.51976233367E+02  0.28476523669E+02 -0.88782908198E+03  0.90651415939E+03  0.17324837987E+03 0.  0.
         24    2    3    3    0    0 -0.38092119645E+02 -0.49514078255E+02 -0.41494864339E+03  0.42702140469E+03  0.79134378703E+02 0.  0.
         -6    2    1    2    0  501  0.51976233367E+02 -0.28476523669E+02 -0.92264537871E+03  0.94020939511E+03  0.17089988463E+03 0.  0.
        -24    2    5    5    0    0  0.35752496267E+02  0.42720141396E+02 -0.36605954497E+03  0.37883424864E+03  0.80078374140E+02 0.  0.
          5    1    3    3  502    0 -0.13884113723E+02  0.77990601924E+02 -0.47288043859E+03  0.47949275470E+03  0.47000000000E+01 0. -1.
        -11    1    4    4    0    0 -0.14585716214E+02 -0.77514758984E+01 -0.10130941766E+02  0.19376905768E+02  0.00000000000E+00 0.  1.
         12    1    4    4    0    0 -0.23506403430E+02 -0.41762602357E+02 -0.40481770162E+03  0.40764449892E+03  0.00000000000E+00 0. -1.
         -5    1    5    5    0  501  0.16223737101E+02 -0.71196665064E+02 -0.55658583374E+03  0.56137514647E+03  0.47000000000E+01 0.  1.
         11    1    6    6    0    0  0.56437407214E+02  0.15411908051E+02 -0.28305959489E+03  0.28904228428E+03  0.00000000000E+00 0. -1.
        -12    1    6    6    0    0 -0.20684910948E+02  0.27308233345E+02 -0.82999950081E+02  0.89791964355E+02  0.00000000000E+00 0.  1.
<mgrwt>
<rscale>  2 0.18199138E+03</rscale>
<asrwt>0</asrwt>
<pdfrwt beam="2">  1        3 0.28132281E+00 0.18199138E+03</pdfrwt>
<pdfrwt beam="1">  1       -3 0.27883930E-02 0.18199138E+03</pdfrwt>
<totfact> 0.78630766E+01</totfact>
</mgrwt>
</event>
<event>
12    1  0.4404304E-002  0.1933856E+03  0.7546771E-02  0.1155443E+00
          2   -1    0    0  502    0  0.00000000000E+00  0.00000000000E+00  0.39573408523E+03  0.39573408523E+03  0.00000000000E+00 0. -1.
         -2   -1    0    0    0  501 -0.00000000000E+00 -0.00000000000E+00 -0.96655265430E+02  0.96655265430E+02  0.00000000000E+00 0.  1.
          6    2    1    2  502    0  0.49014924395E+02 -0.72759552647E+02  0.18674930936E+03  0.26929376717E+03  0.17305320908E+03 0.  0.
         24    2    3    3    0    0  0.73752285070E+02 -0.71923064438E+02  0.20150289495E+03  0.24009796245E+03  0.80195312505E+02 0.  0.
         -6    2    1    2    0  501 -0.49014924395E+02  0.72759552647E+02  0.11232951044E+03  0.22309558349E+03  0.17163130584E+03 0.  0.
        -24    2    5    5    0    0 -0.10165311001E+03  0.55062695011E+02  0.66004129014E+02  0.15062429042E+03  0.70468976583E+02 0.  0.
          5    1    3    3  502    0 -0.24737360675E+02 -0.83648820919E+00 -0.14753585584E+02  0.29195804721E+02  0.47000000000E+01 0. -1.
        -13    1    4    4    0    0 -0.30893736226E+01 -0.35225892724E+01 -0.65190649576E+01  0.80281425301E+01  0.00000000000E+00 0.  1.
         14    1    4    4    0    0  0.76841658693E+02 -0.68400475166E+02  0.20802195990E+03  0.23206981991E+03  0.00000000000E+00 0. -1.
         -5    1    5    5    0  501  0.52638185619E+02  0.17696857636E+02  0.46325381423E+02  0.72471293071E+02  0.47000000000E+01 0.  1.
         11    1    6    6    0    0 -0.82853007327E+01  0.10149818827E+02  0.42376647853E+02  0.44355893787E+02  0.00000000000E+00 0. -1.
        -12    1    6    6    0    0 -0.93367809281E+02  0.44912876184E+02  0.23627481161E+02  0.10626839663E+03  0.00000000000E+00 0.  1.
<mgrwt>
<rscale>  2 0.19338555E+03</rscale>
<asrwt>0</asrwt>
<pdfrwt beam="1">  1        2 0.60882166E-01 0.19338555E+03</pdfrwt>
<pdfrwt beam="2">  1       -2 0.14870041E-01 0.19338555E+03</pdfrwt>
<totfact> 0.27660787E+03</totfact>
</mgrwt>
</event>
<event>
12    1  0.4404304E-002  0.2013931E+03  0.7546771E-02  0.1148569E+00
         -2   -1    0    0    0  501 -0.00000000000E+00  0.00000000000E+00  0.35118633004E+02  0.35118633004E+02  0.00000000000E+00 0. -1.
          2   -1    0    0  502    0  0.00000000000E+00 -0.00000000000E+00 -0.11627597555E+04  0.11627597555E+04  0.00000000000E+00 0.  1.
          6    2    1    2  502    0 -0.50860116732E+02 -0.89704152889E+02 -0.61450464612E+03  0.64683637310E+03  0.17363106559E+03 0.  0.
         24    2    3    3    0    0  0.15762912667E+02 -0.21062575579E+02 -0.43780301975E+03  0.44584918708E+03  0.80111871845E+02 0.  0.
         -6    2    1    2    0  501  0.50860116732E+02  0.89704152889E+02 -0.51313647638E+03  0.55104201541E+03  0.17235043613E+03 0.  0.
        -24    2    5    5    0    0  0.12345228842E+02  0.80470147203E+02 -0.16510814176E+03  0.20073575634E+03  0.80039341133E+02 0.  0.
          5    1    3    3  502    0 -0.66623029400E+02 -0.68641577311E+02 -0.17670162637E+03  0.20098718602E+03  0.47000000000E+01 0. -1.
        -11    1    4    4    0    0  0.33548737864E+00 -0.42598245473E+02 -0.37860426012E+03  0.38099331864E+03  0.00000000000E+00 0.  1.
         12    1    4    4    0    0  0.15427425289E+02  0.21535669895E+02 -0.59198759630E+02  0.64855868436E+02  0.00000000000E+00 0. -1.
         -5    1    5    5    0  501  0.38514887890E+02  0.92340056866E+01 -0.34802833462E+03  0.35030625908E+03  0.47000000000E+01 0.  1.
         11    1    6    6    0    0 -0.12927597205E+02  0.34467313037E+02 -0.11746218516E+02  0.38640549775E+02  0.00000000000E+00 0. -1.
        -12    1    6    6    0    0  0.25272826048E+02  0.46002834165E+02 -0.15336192325E+03  0.16209520656E+03  0.00000000000E+00 0.  1.
<mgrwt>
<rscale>  2 0.20139313E+03</rscale>
<asrwt>0</asrwt>
<pdfrwt beam="2">  1        2 0.17888610E+00 0.20139313E+03</pdfrwt>
<pdfrwt beam="1">  1       -2 0.54028672E-02 0.20139313E+03</pdfrwt>
<totfact> 0.36282207E+03</totfact>
</mgrwt>
</event>
<event>
12    1  0.4404304E-002  0.2116819E+03  0.7546771E-02  0.1140241E+00
         -2   -1    0    0    0  501 -0.00000000000E+00  0.00000000000E+00  0.11275335825E+04  0.11275335825E+04  0.00000000000E+00 0. -1.
          2   -1    0    0  502    0  0.00000000000E+00 -0.00000000000E+00 -0.65813554200E+02  0.65813554200E+02  0.00000000000E+00 0.  1.
          6    2    1    2  502    0 -0.41204448614E+02  0.11581301136E+03  0.90565705042E+03  0.92995353463E+03  0.17172193633E+03 0.  0.
         24    2    3    3    0    0 -0.89322589716E+02  0.86015829297E+02  0.74717274854E+03  0.76160095371E+03  0.79947786734E+02 0.  0.
         -6    2    1    2    0  501  0.41204448614E+02 -0.11581301136E+03  0.15606297793E+03  0.26339360211E+03  0.17294529878E+03 0.  0.
        -24    2    5    5    0    0  0.42325574788E+01 -0.10790905488E+03  0.17589918435E+03  0.22044062378E+03  0.77403274426E+02 0.  0.
          5    1    3    3  502    0  0.48118141102E+02  0.29797182064E+02  0.15848430188E+03  0.16835258092E+03  0.47000000000E+01 0. -1.
        -13    1    4    4    0    0 -0.55009265789E+01 -0.13739548593E+02  0.12896388543E+03  0.12981031982E+03  0.00000000000E+00 0.  1.
         14    1    4    4    0    0 -0.83821663137E+02  0.99755377891E+02  0.61820886312E+03  0.63179063389E+03  0.00000000000E+00 0. -1.
         -5    1    5    5    0  501  0.36971891135E+02 -0.79039564819E+01 -0.19836206422E+02  0.42952978329E+02  0.47000000000E+01 0.  1.
         13    1    6    6    0    0  0.77586933806E+01  0.52571085161E+01  0.51032243917E+02  0.51885686197E+02  0.00000000000E+00 0. -1.
        -14    1    6    6    0    0 -0.35261359018E+01 -0.11316616340E+03  0.12486694043E+03  0.16855493759E+03  0.00000000000E+00 0.  1.
<mgrwt>
<rscale>  2 0.21168187E+03</rscale>
<asrwt>0</asrwt>
<pdfrwt beam="2">  1        2 0.10125163E-01 0.21168187E+03</pdfrwt>
<pdfrwt beam="1">  1       -2 0.17346669E+00 0.21168187E+03</pdfrwt>
<totfact> 0.13629868E+02</totfact>
</mgrwt>
</event>
<event>
12    1  0.4404304E-002  0.2338701E+03  0.7546771E-02  0.1123945E+00
          1   -1    0    0  502    0  0.00000000000E+00  0.00000000000E+00  0.13218240633E+04  0.13218240633E+04  0.00000000000E+00 0.  1.
         -1   -1    0    0    0  501 -0.00000000000E+00 -0.00000000000E+00 -0.41823164173E+02  0.41823164173E+02  0.00000000000E+00 0. -1.
          6    2    1    2  502    0  0.14327663729E+03  0.52547263395E+02  0.57900285867E+03  0.62566658378E+03  0.18145234644E+03 0.  0.
         24    2    3    3    0    0  0.22591589572E+02 -0.31435213266E+02  0.20609368464E+03  0.22479094321E+03  0.80980298517E+02 0.  0.
         -6    2    1    2    0  501 -0.14327663729E+03 -0.52547263395E+02  0.70099804048E+03  0.73798064372E+03  0.17299643944E+03 0.  0.
        -24    2    5    5    0    0 -0.28493360910E+02 -0.30990122242E+02  0.15599416655E+03  0.18058381607E+03  0.80647847685E+02 0.  0.
          5    1    3    3  502    0  0.12068504772E+03  0.83982476661E+02  0.37290917403E+03  0.40087564057E+03  0.47000000000E+01 0. -1.
        -13    1    4    4    0    0  0.37240647422E+02 -0.41309762104E+01  0.18123019544E+03  0.18506300150E+03  0.00000000000E+00 0.  1.
         14    1    4    4    0    0 -0.14649057851E+02 -0.27304237056E+02  0.24863489194E+02  0.39727941704E+02  0.00000000000E+00 0. -1.
         -5    1    5    5    0  501 -0.11478327638E+03 -0.21557141153E+02  0.54500387393E+03  0.55739682765E+03  0.47000000000E+01 0.  1.
         13    1    6    6    0    0 -0.29224279162E+02  0.17511095603E+02  0.29349908410E+02  0.44967922850E+02  0.00000000000E+00 0. -1.
        -14    1    6    6    0    0  0.73091825229E+00 -0.48501217845E+02  0.12664425814E+03  0.13561589322E+03  0.00000000000E+00 0.  1.
<mgrwt>
<rscale>  2 0.23387014E+03</rscale>
<asrwt>0</asrwt>
<pdfrwt beam="1">  1        1 0.20335752E+00 0.23387014E+03</pdfrwt>
<pdfrwt beam="2">  1       -1 0.64343340E-02 0.23387014E+03</pdfrwt>
<totfact> 0.11356593E+03</totfact>
</mgrwt>
</event>
<event>
12    1  0.4404304E-002  0.1923018E+03  0.7546771E-02  0.1156402E+00
          3   -1    0    0  502    0  0.00000000000E+00  0.00000000000E+00  0.77125889480E+02  0.77125889480E+02  0.00000000000E+00 0. -1.
         -3   -1    0    0    0  501 -0.00000000000E+00 -0.00000000000E+00 -0.51198780882E+03  0.51198780882E+03  0.00000000000E+00 0.  1.
          6    2    1    2  502    0  0.77472775102E+02 -0.35268224065E+02 -0.29084973290E+03  0.34825895951E+03  0.17159503850E+03 0.  0.
         24    2    3    3    0    0 -0.89260746439E+01  0.25685063441E+02 -0.11225580660E+03  0.14065851392E+03  0.80274866125E+02 0.  0.
         -6    2    1    2    0  501 -0.77472775102E+02  0.35268224065E+02 -0.14401218644E+03  0.24085473879E+03  0.17327901444E+03 0.  0.
        -24    2    5    5    0    0 -0.10816794454E+03  0.56864629735E+02 -0.14051499620E+03  0.20286897167E+03  0.80482701039E+02 0.  0.
          5    1    3    3  502    0  0.86398849746E+02 -0.60953287507E+02 -0.17859392631E+03  0.20760044559E+03  0.47000000000E+01 0. -1.
        -11    1    4    4    0    0 -0.22469910422E+02 -0.18742388231E+02 -0.76924362146E+02  0.82301467075E+02  0.00000000000E+00 0.  1.
         12    1    4    4    0    0  0.13543835779E+02  0.44427451673E+02 -0.35331444449E+02  0.58357046846E+02  0.00000000000E+00 0. -1.
         -5    1    5    5    0  501  0.30695169437E+02 -0.21596405670E+02 -0.34971902397E+01  0.37985767127E+02  0.47000000000E+01 0.  1.
         11    1    6    6    0    0 -0.24876805290E+02 -0.20064416577E+02 -0.21667413955E+02  0.38612343642E+02  0.00000000000E+00 0. -1.
        -12    1    6    6    0    0 -0.83291139249E+02  0.76929046312E+02 -0.11884758225E+03  0.16425662802E+03  0.00000000000E+00 0.  1.
<mgrwt>
<rscale>  2 0.19230178E+03</rscale>
<asrwt>0</asrwt>
<pdfrwt beam="1">  1        3 0.11865521E-01 0.19230178E+03</pdfrwt>
<pdfrwt beam="2">  1       -3 0.78767355E-01 0.19230178E+03</pdfrwt>
<totfact> 0.20773094E+02</totfact>
</mgrwt>
</event>
<event>
12    1  0.4404304E-002  0.2213121E+03  0.7546771E-02  0.1132909E+00
          2   -1    0    0  502    0  0.00000000000E+00  0.00000000000E+00  0.28618766483E+04  0.28618766483E+04  0.00000000000E+00 0. -1.
         -2   -1    0    0    0  501 -0.00000000000E+00 -0.00000000000E+00 -0.17284143285E+02  0.17284143285E+02  0.00000000000E+00 0.  1.
          6    2    1    2  502    0  0.39179040355E+02  0.12216288040E+03  0.12486934382E+04  0.12672013122E+04  0.17350820249E+03 0.  0.
         24    2    3    3    0    0 -0.47146067865E+02  0.96619810862E+02  0.68665707203E+03  0.69798128472E+03  0.64201243697E+02 0.  0.
         -6    2    1    2    0  501 -0.39179040355E+02 -0.12216288040E+03  0.15958990668E+04  0.16119594794E+04  0.18724520117E+03 0.  0.
        -24    2    5    5    0    0 -0.89614779885E+02 -0.11616665688E+03  0.13830954260E+04  0.13931280418E+04  0.79544218725E+02 0.  0.
          5    1    3    3  502    0  0.86325108220E+02  0.25543069542E+02  0.56203636619E+03  0.56922002743E+03  0.47000000000E+01 0. -1.
        -13    1    4    4    0    0 -0.35326557188E+02  0.10406195954E+03  0.63643214350E+03  0.64585039316E+03  0.00000000000E+00 0.  1.
         14    1    4    4    0    0 -0.11819510677E+02 -0.74421486745E+01  0.50224928529E+02  0.52130891564E+02  0.00000000000E+00 0. -1.
         -5    1    5    5    0  501  0.50435739530E+02 -0.59962235263E+01  0.21280364080E+03  0.21883143754E+03  0.47000000000E+01 0.  1.
         11    1    6    6    0    0 -0.36735780161E+02 -0.14010760816E+02  0.16528097835E+03  0.16989296856E+03  0.00000000000E+00 0. -1.
        -12    1    6    6    0    0 -0.52878999724E+02 -0.10215589606E+03  0.12178144476E+04  0.12232350733E+04  0.00000000000E+00 0.  1.
<mgrwt>
<rscale>  2 0.22131213E+03</rscale>
<asrwt>0</asrwt>
<pdfrwt beam="1">  1        2 0.44028834E+00 0.22131213E+03</pdfrwt>
<pdfrwt beam="2">  1       -2 0.26591012E-02 0.22131213E+03</pdfrwt>
<totfact> 0.12829187E+03</totfact>
</mgrwt>
</event>
<event>
12    1  0.4404304E-002  0.3083722E+03  0.7546771E-02  0.1081129E+00
          1   -1    0    0  502    0  0.00000000000E+00  0.00000000000E+00  0.14533852464E+04  0.14533852464E+04  0.00000000000E+00 0. -1.
         -1   -1    0    0    0  501 -0.00000000000E+00 -0.00000000000E+00 -0.10050643363E+03  0.10050643363E+03  0.00000000000E+00 0.  1.
          6    2    1    2  502    0  0.21688640678E+03  0.13813745173E+03  0.21507246212E+03  0.37459788535E+03  0.16716980210E+03 0.  0.
         24    2    3    3    0    0  0.17920328355E+03  0.10090010788E+03  0.89736134337E+02  0.23844384533E+03  0.80673694384E+02 0.  0.
         -6    2    1    2    0  501 -0.21688640678E+03 -0.13813745173E+03  0.11378063506E+04  0.11792937947E+04  0.17323075230E+03 0.  0.
        -24    2    5    5    0    0 -0.34327337819E+02 -0.18774877581E+02  0.25315566856E+03  0.26813839788E+03  0.79243584879E+02 0.  0.
          5    1    3    3  502    0  0.37683123228E+02  0.37237343854E+02  0.12533632778E+03  0.13615404002E+03  0.47000000000E+01 0. -1.
        -11    1    4    4    0    0  0.84581920034E+02  0.90485495789E+02  0.35337042445E+02  0.12880385364E+03  0.00000000000E+00 0.  1.
         12    1    4    4    0    0  0.94621363516E+02  0.10414612092E+02  0.54399091892E+02  0.10963999169E+03  0.00000000000E+00 0. -1.
         -5    1    5    5    0  501 -0.18255906896E+03 -0.11936257415E+03  0.88465068208E+03  0.91115539678E+03  0.47000000000E+01 0.  1.
         11    1    6    6    0    0 -0.31717773435E+02 -0.33566565918E+02  0.24799217910E+03  0.25225552995E+03  0.00000000000E+00 0. -1.
        -12    1    6    6    0    0 -0.26095643833E+01  0.14791688337E+02  0.51634894615E+01  0.15882867926E+02  0.00000000000E+00 0.  1.
<mgrwt>
<rscale>  2 0.30837216E+03</rscale>
<asrwt>0</asrwt>
<pdfrwt beam="1">  1        1 0.22359772E+00 0.30837216E+03</pdfrwt>
<pdfrwt beam="2">  1       -1 0.15462529E-01 0.30837216E+03</pdfrwt>
<totfact> 0.23513856E+02</totfact>
</mgrwt>
</event>
<event>
12    1  0.4404304E-002  0.2157292E+03  0.7546771E-02  0.1137108E+00
          1   -1    0    0  502    0  0.00000000000E+00  0.00000000000E+00  0.13948860398E+04  0.13948860398E+04  0.00000000000E+00 0.  1.
         -1   -1    0    0    0  501 -0.00000000000E+00 -0.00000000000E+00 -0.39701306317E+02  0.39701306317E+02  0.00000000000E+00 0. -1.
          6    2    1    2  502    0  0.12405275189E+03  0.29649552388E+02  0.38851277772E+03  0.44392738285E+03  0.17280382399E+03 0.  0.
         24    2    3    3    0    0  0.12265109062E+03  0.41227929611E+02  0.18293036008E+03  0.23796077411E+03  0.80117296306E+02 0.  0.
         -6    2    1    2    0  501 -0.12405275189E+03 -0.29649552388E+02  0.96667195572E+03  0.99065996322E+03  0.17516937959E+03 0.  0.
        -24    2    5    5    0    0 -0.66164786052E+02  0.15874171856E+02  0.26556740174E+03  0.28568257943E+03  0.80366181152E+02 0.  0.
          5    1    3    3  502    0  0.14016612683E+01 -0.11578377223E+02  0.20558241764E+03  0.20596660874E+03  0.47000000000E+01 0. -1.
        -13    1    4    4    0    0  0.53376083659E+02 -0.22587162866E+02  0.72460401955E+02  0.92788448012E+02  0.00000000000E+00 0.  1.
         14    1    4    4    0    0  0.69275006958E+02  0.63815092477E+02  0.11046995813E+03  0.14517232610E+03  0.00000000000E+00 0. -1.
         -5    1    5    5    0  501 -0.57887965833E+02 -0.45523724244E+02  0.70110455398E+03  0.70497738380E+03  0.47000000000E+01 0.  1.
         11    1    6    6    0    0  0.85994790268E+01 -0.20276503427E+02  0.48289632055E+02  0.53075193780E+02  0.00000000000E+00 0. -1.
        -12    1    6    6    0    0 -0.74764265079E+02  0.36150675283E+02  0.21727776969E+03  0.23260738565E+03  0.00000000000E+00 0.  1.
<mgrwt>
<rscale>  2 0.21572922E+03</rscale>
<asrwt>0</asrwt>
<pdfrwt beam="1">  1        1 0.21459781E+00 0.21572922E+03</pdfrwt>
<pdfrwt beam="2">  1       -1 0.61078943E-02 0.21572922E+03</pdfrwt>
<totfact> 0.10980722E+03</totfact>
</mgrwt>
</event>
<event>
12    1  0.4404304E-002  0.2145622E+03  0.7546771E-02  0.1138003E+00
         -2   -1    0    0    0  501 -0.00000000000E+00  0.00000000000E+00  0.78053998744E+02  0.78053998744E+02  0.00000000000E+00 0.  1.
          2   -1    0    0  502    0  0.00000000000E+00 -0.00000000000E+00 -0.60641008469E+03  0.60641008469E+03  0.00000000000E+00 0. -1.
          6    2    1    2  502    0 -0.13027651210E+03 -0.30583633392E+01 -0.31939324155E+03  0.38413176141E+03  0.16900841454E+03 0.  0.
         24    2    3    3    0    0 -0.98699316279E+02  0.31981050062E+02 -0.30905496859E+03  0.33561527272E+03  0.79738918175E+02 0.  0.
         -6    2    1    2    0  501  0.13027651210E+03  0.30583633392E+01 -0.20896284439E+03  0.30033232202E+03  0.17190901699E+03 0.  0.
        -24    2    5    5    0    0  0.88439200138E+02 -0.55726549314E+02 -0.10699976581E+03  0.17533397794E+03  0.91466461174E+02 0.  0.
          5    1    3    3  502    0 -0.31577195818E+02 -0.35039413402E+02 -0.10338272957E+02  0.48516488692E+02  0.47000000000E+01 0. -1.
        -11    1    4    4    0    0 -0.44274156318E+02  0.26448858716E+02 -0.53653577068E+02  0.74420759048E+02  0.00000000000E+00 0.  1.
         12    1    4    4    0    0 -0.54425159961E+02  0.55321913463E+01 -0.25540139153E+03  0.26119451367E+03  0.00000000000E+00 0. -1.
         -5    1    5    5    0  501  0.41837311960E+02  0.58784912653E+02 -0.10196307858E+03  0.12499834408E+03  0.47000000000E+01 0.  1.
         11    1    6    6    0    0  0.42114581979E+02 -0.35195068989E+02 -0.11169002416E+03  0.12444674521E+03  0.00000000000E+00 0. -1.
        -12    1    6    6    0    0  0.46324618159E+02 -0.20531480325E+02  0.46902583538E+01  0.50887232734E+02  0.00000000000E+00 0.  1.
<mgrwt>
<rscale>  2 0.21456222E+03</rscale>
<asrwt>0</asrwt>
<pdfrwt beam="2">  1        2 0.93293857E-01 0.21456222E+03</pdfrwt>
<pdfrwt beam="1">  1       -2 0.12008308E-01 0.21456222E+03</pdfrwt>
<totfact> 0.24427319E+03</totfact>
</mgrwt>
</event>
<event>
12    1  0.4404304E-002  0.2431581E+03  0.7546771E-02  0.1117707E+00
         -2   -1    0    0    0  501 -0.00000000000E+00  0.00000000000E+00  0.18188799948E+03  0.18188799948E+03  0.00000000000E+00 0. -1.
          2   -1    0    0  502    0  0.00000000000E+00 -0.00000000000E+00 -0.32647782081E+03  0.32647782081E+03  0.00000000000E+00 0.  1.
          6    2    1    2  502    0  0.10560304972E+03  0.13386537066E+03 -0.55576461232E+02  0.24938743437E+03  0.17330149395E+03 0.  0.
         24    2    3    3    0    0  0.58243000679E+02  0.92645114892E+02  0.32113069998E+02  0.14143546534E+03  0.83650326651E+02 0.  0.
         -6    2    1    2    0  501 -0.10560304972E+03 -0.13386537066E+03 -0.89013360098E+02  0.25897838592E+03  0.17341996576E+03 0.  0.
        -24    2    5    5    0    0  0.97323881021E+01 -0.32407799779E+02 -0.47612431249E+02  0.99817998836E+02  0.80942599523E+02 0.  0.
          5    1    3    3  502    0  0.47360049042E+02  0.41220255767E+02 -0.87689531229E+02  0.10795196903E+03  0.47000000000E+01 0. -1.
        -11    1    4    4    0    0  0.32923712692E+02 -0.67504450430E+00 -0.12138741936E+02  0.35096660785E+02  0.00000000000E+00 0.  1.
         12    1    4    4    0    0  0.25319287987E+02  0.93320159396E+02  0.44251811933E+02  0.10633880455E+03  0.00000000000E+00 0. -1.
         -5    1    5    5    0  501 -0.11533543782E+03 -0.10145757088E+03 -0.41400928849E+02  0.15916038708E+03  0.47000000000E+01 0.  1.
         11    1    6    6    0    0  0.27694284550E+02 -0.46536677849E+02 -0.89240292873E+01  0.54884187893E+02  0.00000000000E+00 0. -1.
        -12    1    6    6    0    0 -0.17961896448E+02  0.14128878070E+02 -0.38688401962E+02  0.44933810943E+02  0.00000000000E+00 0.  1.
<mgrwt>
<rscale>  2 0.24315815E+03</rscale>
<asrwt>0</asrwt>
<pdfrwt beam="2">  1        2 0.50227357E-01 0.24315815E+03</pdfrwt>
<pdfrwt beam="1">  1       -2 0.27982769E-01 0.24315815E+03</pdfrwt>
<totfact> 0.11564713E+03</totfact>
</mgrwt>
</event>
<event>
12    1  0.4404304E-002  0.1731042E+03  0.7546771E-02  0.1174649E+00
         -2   -1    0    0    0  501 -0.00000000000E+00  0.00000000000E+00  0.95924180681E+02  0.95924180681E+02  0.00000000000E+00 0.  1.
          2   -1    0    0  502    0  0.00000000000E+00 -0.00000000000E+00 -0.31252167349E+03  0.31252167349E+03  0.00000000000E+00 0. -1.
          6    2    1    2  502    0 -0.11454161023E+02 -0.44222369113E+01 -0.11222128103E+03  0.20584740548E+03  0.17213013810E+03 0.  0.
         24    2    3    3    0    0 -0.40884128747E+02  0.51512010763E+02 -0.47133995714E+02  0.11500023837E+03  0.81721735395E+02 0.  0.
         -6    2    1    2    0  501  0.11454161023E+02  0.44222369113E+01 -0.10437621178E+03  0.20259844869E+03  0.17320792084E+03 0.  0.
        -24    2    5    5    0    0 -0.24890449954E+02 -0.22087911079E+02 -0.12520832648E+03  0.15280100200E+03  0.81016114925E+02 0.  0.
          5    1    3    3  502    0  0.29429967723E+02 -0.55934247674E+02 -0.65087285318E+02  0.90847167116E+02  0.47000000000E+01 0. -1.
        -13    1    4    4    0    0  0.69385293856E+01  0.17991202374E+02  0.18793279995E+02  0.26926082631E+02  0.00000000000E+00 0.  1.
         14    1    4    4    0    0 -0.47822658132E+02  0.33520808389E+02 -0.65927275709E+02  0.88074155734E+02  0.00000000000E+00 0. -1.
         -5    1    5    5    0  501  0.36344610978E+02  0.26510147990E+02  0.20832114703E+02  0.49797446688E+02  0.47000000000E+01 0.  1.
         11    1    6    6    0    0  0.48093352879E+01  0.27254327129E+02 -0.58196863761E+02  0.64442245498E+02  0.00000000000E+00 0. -1.
        -12    1    6    6    0    0 -0.29699785242E+02 -0.49342238208E+02 -0.67011462719E+02  0.88358756502E+02  0.00000000000E+00 0.  1.
<mgrwt>
<rscale>  2 0.17310419E+03</rscale>
<asrwt>0</asrwt>
<pdfrwt beam="2">  1        2 0.48080258E-01 0.17310419E+03</pdfrwt>
<pdfrwt beam="1">  1       -2 0.14757566E-01 0.17310419E+03</pdfrwt>
<totfact> 0.35927937E+03</totfact>
</mgrwt>
</event>
<event>
12    1  0.4404304E-002  0.4468659E+03  0.7546771E-02  0.1028661E+00
         -2   -1    0    0    0  501 -0.00000000000E+00  0.00000000000E+00  0.71419324823E+02  0.71419324823E+02  0.00000000000E+00 0. -1.
          2   -1    0    0  502    0  0.00000000000E+00 -0.00000000000E+00 -0.29526422204E+04  0.29526422204E+04  0.00000000000E+00 0.  1.
          6    2    1    2  502    0 -0.89592347685E+02 -0.39860569027E+03 -0.17753968547E+04  0.18297285941E+04  0.17017476692E+03 0.  0.
         24    2    3    3    0    0  0.77526180519E+01 -0.24564326781E+03 -0.11470333296E+04  0.11757130326E+04  0.78835002637E+02 0.  0.
         -6    2    1    2    0  501  0.89592347685E+02  0.39860569027E+03 -0.11058260409E+04  0.11943329511E+04  0.19148545739E+03 0.  0.
        -24    2    5    5    0    0  0.79771097904E+01  0.54011410694E+02 -0.24965235433E+03  0.26780084909E+03  0.80063287377E+02 0.  0.
          5    1    3    3  502    0 -0.97344965737E+02 -0.15296242246E+03 -0.62836352510E+03  0.65401556153E+03  0.47000000000E+01 0. -1.
        -11    1    4    4    0    0 -0.16271171428E+02 -0.10197957198E+03 -0.63588607974E+03  0.64421711444E+03  0.00000000000E+00 0.  1.
         12    1    4    4    0    0  0.24023789480E+02 -0.14366369583E+03 -0.51114724988E+03  0.53149591816E+03  0.00000000000E+00 0. -1.
         -5    1    5    5    0  501  0.81615237895E+02  0.34459427957E+03 -0.85617368654E+03  0.92653210203E+03  0.47000000000E+01 0.  1.
         13    1    6    6    0    0  0.14894980086E+02  0.12815524576E+01 -0.27060941918E+01  0.15192950807E+02  0.00000000000E+00 0. -1.
        -14    1    6    6    0    0 -0.69178702955E+01  0.52729858237E+02 -0.24694626014E+03  0.25260789828E+03  0.00000000000E+00 0.  1.
<mgrwt>
<rscale>  2 0.44686594E+03</rscale>
<asrwt>0</asrwt>
<pdfrwt beam="2">  1        2 0.45425260E+00 0.44686594E+03</pdfrwt>
<pdfrwt beam="1">  1       -2 0.10987590E-01 0.44686594E+03</pdfrwt>
<totfact> 0.12125219E+02</totfact>
</mgrwt>
</event>
<event>
12    1  0.4404304E-002  0.2686639E+03  0.7546771E-02  0.1102047E+00
          2   -1    0    0  502    0  0.00000000000E+00  0.00000000000E+00  0.20455281393E+04  0.20455281393E+04  0.00000000000E+00 0.  1.
         -2   -1    0    0    0  501 -0.00000000000E+00 -0.00000000000E+00 -0.35439064943E+02  0.35439064943E+02  0.00000000000E+00 0. -1.
          6    2    1    2  502    0  0.28744814970E+02 -0.20312659108E+03  0.93633529868E+03  0.97407795850E+03  0.17325530666E+03 0.  0.
         24    2    3    3    0    0 -0.25679322459E+02 -0.19273956163E+03  0.78828643286E+03  0.81593108440E+03  0.80870687183E+02 0.  0.
         -6    2    1    2    0  501 -0.28744814970E+02  0.20312659108E+03  0.10737537757E+04  0.11068892458E+04  0.17369500618E+03 0.  0.
        -24    2    5    5    0    0 -0.26456036075E+00  0.21998166733E+03  0.97704463825E+03  0.10045663951E+04  0.78392685365E+02 0.  0.
          5    1    3    3  502    0  0.54424137429E+02 -0.10387029455E+02  0.14804886582E+03  0.15814687409E+03  0.47000000000E+01 0. -1.
        -13    1    4    4    0    0  0.78779872903E+01 -0.19899399643E+02  0.26503032123E+02  0.34065517780E+02  0.00000000000E+00 0.  1.
         14    1    4    4    0    0 -0.33557309749E+02 -0.17284016199E+03  0.76178340074E+03  0.78186556662E+03  0.00000000000E+00 0. -1.
         -5    1    5    5    0  501 -0.28480254610E+02 -0.16855076248E+02  0.96709137447E+02  0.10232285064E+03  0.47000000000E+01 0.  1.
         13    1    6    6    0    0  0.19783203383E+02  0.11401237368E+03  0.35918205406E+03  0.37736182166E+03  0.00000000000E+00 0. -1.
        -14    1    6    6    0    0 -0.20047763744E+02  0.10596929366E+03  0.61786258419E+03  0.62720457346E+03  0.00000000000E+00 0.  1.
<mgrwt>
<rscale>  2 0.26866394E+03</rscale>
<asrwt>0</asrwt>
<pdfrwt beam="1">  1        2 0.31469654E+00 0.26866394E+03</pdfrwt>
<pdfrwt beam="2">  1       -2 0.54521654E-02 0.26866394E+03</pdfrwt>
<totfact> 0.12059007E+03</totfact>
</mgrwt>
</event>
<event>
12    1  0.4404304E-002  0.1770706E+03  0.7546771E-02  0.1170669E+00
         -2   -1    0    0    0  501 -0.00000000000E+00  0.00000000000E+00  0.15491978046E+02  0.15491978046E+02  0.00000000000E+00 0. -1.
          2   -1    0    0  502    0  0.00000000000E+00 -0.00000000000E+00 -0.21316067299E+04  0.21316067299E+04  0.00000000000E+00 0.  1.
          6    2    1    2  502    0 -0.10238270869E+02 -0.39006994451E+02 -0.82258455404E+03  0.84164265736E+03  0.17346655685E+03 0.  0.
         24    2    3    3    0    0  0.57685551628E+02 -0.30464997515E+01 -0.52433125038E+03  0.53361031168E+03  0.80497208544E+02 0.  0.
         -6    2    1    2    0  501  0.10238270869E+02  0.39006994451E+02 -0.12935301978E+04  0.13054560505E+04  0.17137315873E+03 0.  0.
        -24    2    5    5    0    0  0.72657383673E+02  0.21905701221E+02 -0.85035904508E+03  0.85755945483E+03  0.80862586290E+02 0.  0.
          5    1    3    3  502    0 -0.67923822497E+02 -0.35960494699E+02 -0.29825330366E+03  0.30803234568E+03  0.47000000000E+01 0. -1.
        -13    1    4    4    0    0  0.20926964913E+02  0.20965668452E+02 -0.41107832858E+03  0.41214425793E+03  0.00000000000E+00 0.  1.
         14    1    4    4    0    0  0.36758586715E+02 -0.24012168203E+02 -0.11325292180E+03  0.12146605376E+03  0.00000000000E+00 0. -1.
         -5    1    5    5    0  501 -0.62419112804E+02  0.17101293230E+02 -0.44317115269E+03  0.44789659571E+03  0.47000000000E+01 0.  1.
         11    1    6    6    0    0  0.59719859974E+02 -0.13042723453E+02 -0.31320914500E+03  0.31911838371E+03  0.00000000000E+00 0. -1.
        -12    1    6    6    0    0  0.12937523700E+02  0.34948424674E+02 -0.53714990008E+03  0.53844107112E+03  0.00000000000E+00 0.  1.
<mgrwt>
<rscale>  2 0.17707059E+03</rscale>
<asrwt>0</asrwt>
<pdfrwt beam="2">  1        2 0.32793960E+00 0.17707059E+03</pdfrwt>
<pdfrwt beam="1">  1       -2 0.23833805E-02 0.17707059E+03</pdfrwt>
<totfact> 0.37783846E+03</totfact>
</mgrwt>
</event>
<event>
12    1  0.4404304E-002  0.2213078E+03  0.7546771E-02  0.1132912E+00
          1   -1    0    0  502    0  0.00000000000E+00  0.00000000000E+00  0.79850902877E+03  0.79850902877E+03  0.00000000000E+00 0. -1.
         -1   -1    0    0    0  501 -0.00000000000E+00 -0.00000000000E+00 -0.69199217414E+02  0.69199217414E+02  0.00000000000E+00 0.  1.
          6    2    1    2  502    0 -0.41518731212E+01 -0.13967355251E+03  0.51065239614E+03  0.55647652470E+03  0.17138936238E+03 0.  0.
         24    2    3    3    0    0  0.44536452330E+02 -0.58508653334E+02  0.16559848365E+03  0.19864613692E+03  0.81428937270E+02 0.  0.
         -6    2    1    2    0  501  0.41518731212E+01  0.13967355251E+03  0.21865741522E+03  0.31123172149E+03  0.17183765568E+03 0.  0.
        -24    2    5    5    0    0 -0.14010679090E+02  0.16828828497E+03  0.18866739532E+03  0.26573257303E+03  0.80629822821E+02 0.  0.
          5    1    3    3  502    0 -0.48688325451E+02 -0.81164899178E+02  0.34505391249E+03  0.35783038778E+03  0.47000000000E+01 0. -1.
        -13    1    4    4    0    0  0.63749710669E+02 -0.63331849937E+02  0.13783497605E+03  0.16454005424E+03  0.00000000000E+00 0.  1.
         14    1    4    4    0    0 -0.19213258339E+02  0.48231966033E+01  0.27763507600E+02  0.34106082679E+02  0.00000000000E+00 0. -1.
         -5    1    5    5    0  501  0.18162552211E+02 -0.28614732458E+02  0.29990019901E+02  0.45499148455E+02  0.47000000000E+01 0.  1.
         13    1    6    6    0    0 -0.14472912796E+02  0.47145971613E+01  0.46782385766E+02  0.49196384513E+02  0.00000000000E+00 0. -1.
        -14    1    6    6    0    0  0.46223370597E+00  0.16357368781E+03  0.14188500955E+03  0.21653618852E+03  0.00000000000E+00 0.  1.
<mgrwt>
<rscale>  2 0.22130776E+03</rscale>
<asrwt>0</asrwt>
<pdfrwt beam="1">  1        1 0.12284754E+00 0.22130776E+03</pdfrwt>
<pdfrwt beam="2">  1       -1 0.10646034E-01 0.22130776E+03</pdfrwt>
<totfact> 0.12778385E+03</totfact>
</mgrwt>
</event>
<event>
12    1  0.4404304E-002  0.2140105E+03  0.7546771E-02  0.1138429E+00
         -1   -1    0    0    0  501 -0.00000000000E+00  0.00000000000E+00  0.49580058147E+02  0.49580058147E+02  0.00000000000E+00 0.  1.
          1   -1    0    0  502    0  0.00000000000E+00 -0.00000000000E+00 -0.11141657631E+04  0.11141657631E+04  0.00000000000E+00 0. -1.
          6    2    1    2  502    0  0.10509650367E+03  0.55880185017E+02 -0.76786624391E+03  0.79650313236E+03  0.17501657398E+03 0.  0.
         24    2    3    3    0    0 -0.19146536042E+02  0.36195347349E+02 -0.32883406835E+03  0.33978093351E+03  0.75116877304E+02 0.  0.
         -6    2    1    2    0  501 -0.10509650367E+03 -0.55880185017E+02 -0.29671946108E+03  0.36724268892E+03  0.18071215737E+03 0.  0.
        -24    2    5    5    0    0 -0.10051076289E+03 -0.14545215877E+02 -0.93859669005E+02  0.16011037871E+03  0.80695223791E+02 0.  0.
          5    1    3    3  502    0  0.12424303971E+03  0.19684837668E+02 -0.43903217556E+03  0.45672219885E+03  0.47000000000E+01 0. -1.
        -11    1    4    4    0    0  0.39000647826E-01 -0.22938944274E+02 -0.74040069498E+02  0.77512118902E+02  0.00000000000E+00 0.  1.
         12    1    4    4    0    0 -0.19185536690E+02  0.59134291623E+02 -0.25479399886E+03  0.26226881461E+03  0.00000000000E+00 0. -1.
         -5    1    5    5    0  501 -0.45857407714E+01 -0.41334969140E+02 -0.20285979207E+03  0.20713231021E+03  0.47000000000E+01 0.  1.
         11    1    6    6    0    0  0.22871392235E+01  0.85463963059E+01 -0.41547050883E+02  0.42478574985E+02  0.00000000000E+00 0. -1.
        -12    1    6    6    0    0 -0.10279790212E+03 -0.23091612183E+02 -0.52312618122E+02  0.11763180373E+03  0.00000000000E+00 0.  1.
<mgrwt>
<rscale>  2 0.21401054E+03</rscale>
<asrwt>0</asrwt>
<pdfrwt beam="2">  1        1 0.17141011E+00 0.21401054E+03</pdfrwt>
<pdfrwt beam="1">  1       -1 0.76277015E-02 0.21401054E+03</pdfrwt>
<totfact> 0.12234003E+03</totfact>
</mgrwt>
</event>
<event>
12    1  0.4404304E-002  0.1846140E+03  0.7546771E-02  0.1163411E+00
         -1   -1    0    0    0  501 -0.00000000000E+00  0.00000000000E+00  0.58185583066E+03  0.58185583066E+03  0.00000000000E+00 0.  1.
          1   -1    0    0  502    0  0.00000000000E+00 -0.00000000000E+00 -0.59133423159E+02  0.59133423159E+02  0.00000000000E+00 0. -1.
          6    2    1    2  502    0  0.65144247173E+02 -0.99760573082E+01  0.23170039826E+03  0.29689298115E+03  0.17354271244E+03 0.  0.
         24    2    3    3    0    0 -0.30039102884E+02  0.78595279215E+00  0.86779599351E+02  0.12311203010E+03  0.81993339171E+02 0.  0.
         -6    2    1    2    0  501 -0.65144247173E+02  0.99760573082E+01  0.29102200924E+03  0.34409627267E+03  0.17136259903E+03 0.  0.
        -24    2    5    5    0    0 -0.37312977006E+02  0.64355322749E+02  0.10961901433E+03  0.15262611659E+03  0.75792726185E+02 0.  0.
          5    1    3    3  502    0  0.95183350057E+02 -0.10762010100E+02  0.14492079891E+03  0.17378095105E+03  0.47000000000E+01 0. -1.
        -11    1    4    4    0    0 -0.11362572775E+02  0.22554174213E+02  0.90711643164E+02  0.94161568806E+02  0.00000000000E+00 0.  1.
         12    1    4    4    0    0 -0.18676530110E+02 -0.21768221420E+02 -0.39320438125E+01  0.28950461297E+02  0.00000000000E+00 0. -1.
         -5    1    5    5    0  501 -0.27831270167E+02 -0.54379265441E+02  0.18140299491E+03  0.19147015608E+03  0.47000000000E+01 0.  1.
         11    1    6    6    0    0  0.15323541547E+02 -0.35109799940E+01  0.34987650386E+01  0.16105255752E+02  0.00000000000E+00 0. -1.
        -12    1    6    6    0    0 -0.52636518553E+02  0.67866302743E+02  0.10612024929E+03  0.13652086083E+03  0.00000000000E+00 0.  1.
<mgrwt>
<rscale>  2 0.18461400E+03</rscale>
<asrwt>0</asrwt>
<pdfrwt beam="2">  1        1 0.90974501E-02 0.18461400E+03</pdfrwt>
<pdfrwt beam="1">  1       -1 0.89516278E-01 0.18461400E+03</pdfrwt>
<totfact> 0.93126891E+02</totfact>
</mgrwt>
</event>
<event>
12    1  0.4404304E-002  0.2556720E+03  0.7546771E-02  0.1109772E+00
         -2   -1    0    0    0  501 -0.00000000000E+00  0.00000000000E+00  0.12967582261E+03  0.12967582261E+03  0.00000000000E+00 0.  1.
          2   -1    0    0  502    0  0.00000000000E+00 -0.00000000000E+00 -0.50418388643E+03  0.50418388643E+03  0.00000000000E+00 0. -1.
          6    2    1    2  502    0 -0.14684753861E+02  0.18779891696E+03 -0.18288702683E+03  0.31432274794E+03  0.17282086125E+03 0.  0.
         24    2    3    3    0    0  0.24567491071E+01  0.15094569362E+02 -0.61527282604E+02  0.10249522300E+03  0.80534356601E+02 0.  0.
         -6    2    1    2    0  501  0.14684753861E+02 -0.18779891696E+03 -0.19162103699E+03  0.31953696110E+03  0.17291955495E+03 0.  0.
        -24    2    5    5    0    0  0.55063928882E+02 -0.10790718663E+03 -0.54357351940E+02  0.15559619258E+03  0.81113847425E+02 0.  0.
          5    1    3    3  502    0 -0.17141502968E+02  0.17270434759E+03 -0.12135974423E+03  0.21182752494E+03  0.47000000000E+01 0. -1.
        -13    1    4    4    0    0  0.35725497745E+02  0.28569099999E+02 -0.39045047067E+02  0.60141669118E+02  0.00000000000E+00 0.  1.
         14    1    4    4    0    0 -0.33268748637E+02 -0.13474530637E+02 -0.22482235537E+02  0.42353553883E+02  0.00000000000E+00 0. -1.
         -5    1    5    5    0  501 -0.40379175022E+02 -0.79891730326E+02 -0.13726368505E+03  0.16394076852E+03  0.47000000000E+01 0.  1.
         11    1    6    6    0    0  0.43965274029E+02 -0.14766840770E+02 -0.38898055251E+02  0.60531509226E+02  0.00000000000E+00 0. -1.
        -12    1    6    6    0    0  0.11098654853E+02 -0.93140345861E+02 -0.15459296689E+02  0.95064683352E+02  0.00000000000E+00 0.  1.
<mgrwt>
<rscale>  2 0.25567202E+03</rscale>
<asrwt>0</asrwt>
<pdfrwt beam="2">  1        2 0.77566752E-01 0.25567202E+03</pdfrwt>
<pdfrwt beam="1">  1       -2 0.19950127E-01 0.25567202E+03</pdfrwt>
<totfact> 0.13014785E+03</totfact>
</mgrwt>
</event>
<event>
12    1  0.4404304E-002  0.1976466E+03  0.7546771E-02  0.1151740E+00
          2   -1    0    0  502    0  0.00000000000E+00  0.00000000000E+00  0.32161481731E+02  0.32161481731E+02  0.00000000000E+00 0. -1.
         -2   -1    0    0    0  501 -0.00000000000E+00 -0.00000000000E+00 -0.13314160702E+04  0.13314160702E+04  0.00000000000E+00 0.  1.
          6    2    1    2  502    0 -0.99860555893E+02  0.18130800907E+02 -0.45608408333E+03  0.49816507209E+03  0.17278568058E+03 0.  0.
         24    2    3    3    0    0 -0.97211419859E+01 -0.18060476994E+02 -0.32263419279E+03  0.33304122214E+03  0.80018446980E+02 0.  0.
         -6    2    1    2    0  501  0.99860555893E+02 -0.18130800907E+02 -0.84317050516E+03  0.86541247986E+03  0.16643738454E+03 0.  0.
        -24    2    5    5    0    0  0.59782888018E+02  0.18315271708E+02 -0.26967998521E+03  0.28934998140E+03  0.84182387907E+02 0.  0.
          5    1    3    3  502    0 -0.90139413907E+02  0.36191277901E+02 -0.13344989054E+03  0.16512384995E+03  0.47000000000E+01 0. -1.
        -13    1    4    4    0    0 -0.34954001452E+02 -0.35089779125E+02 -0.15680717319E+03  0.16444319499E+03  0.00000000000E+00 0.  1.
         14    1    4    4    0    0  0.25232859466E+02  0.17029302131E+02 -0.16582701960E+03  0.16859802715E+03  0.00000000000E+00 0. -1.
         -5    1    5    5    0  501  0.40077667874E+02 -0.36446072615E+02 -0.57349051995E+03  0.57606249847E+03  0.47000000000E+01 0.  1.
         13    1    6    6    0    0  0.39319059714E+02  0.38847213577E+02 -0.78630312684E+02  0.96113581414E+02  0.00000000000E+00 0. -1.
        -14    1    6    6    0    0  0.20463828305E+02 -0.20531941869E+02 -0.19104967253E+03  0.19323639998E+03  0.00000000000E+00 0.  1.
<mgrwt>
<rscale>  2 0.19764657E+03</rscale>
<asrwt>0</asrwt>
<pdfrwt beam="1">  1        2 0.49479196E-02 0.19764657E+03</pdfrwt>
<pdfrwt beam="2">  1       -2 0.20483327E+00 0.19764657E+03</pdfrwt>
<totfact> 0.21374137E+02</totfact>
</mgrwt>
</event>
<event>
12    1  0.4404304E-002  0.1784787E+03  0.7546771E-02  0.1169283E+00
         -1   -1    0    0    0  501 -0.00000000000E+00  0.00000000000E+00  0.14060626690E+03  0.14060626690E+03  0.00000000000E+00 0.  1.
          1   -1    0    0  502    0  0.00000000000E+00 -0.00000000000E+00 -0.22662086536E+03  0.22662086536E+03  0.00000000000E+00 0. -1.
          6    2    1    2  502    0  0.42564229875E+02 -0.96272834639E+01 -0.44480585511E+02  0.18164016692E+03  0.17061720166E+03 0.  0.
         24    2    3    3    0    0  0.91825008896E+02  0.82144921242E+01 -0.27047693669E+02  0.12622402285E+03  0.81863398856E+02 0.  0.
         -6    2    1    2    0  501 -0.42564229875E+02  0.96272834639E+01 -0.41534012955E+02  0.18558696534E+03  0.17553646122E+03 0.  0.
        -24    2    5    5    0    0 -0.63425303490E+02 -0.13825940178E+02 -0.84130241687E+02  0.13246666043E+03  0.79092305651E+02 0.  0.
          5    1    3    3  502    0 -0.49260779021E+02 -0.17841775588E+02 -0.17432891841E+02  0.55416144072E+02  0.47000000000E+01 0. -1.
        -11    1    4    4    0    0  0.50020924276E+02  0.37640614198E+02  0.95864551699E+01  0.63330946822E+02  0.00000000000E+00 0.  1.
         12    1    4    4    0    0  0.41804084620E+02 -0.29426122074E+02 -0.36634148839E+02  0.62893076029E+02  0.00000000000E+00 0. -1.
         -5    1    5    5    0  501  0.20861073615E+02  0.23453223642E+02  0.42596228732E+02  0.53120304911E+02  0.47000000000E+01 0.  1.
         13    1    6    6    0    0 -0.33765158637E+02 -0.46042247065E+02 -0.36502858833E+02  0.67767493354E+02  0.00000000000E+00 0. -1.
        -14    1    6    6    0    0 -0.29660144854E+02  0.32216306886E+02 -0.47627382854E+02  0.64699167071E+02  0.00000000000E+00 0.  1.
<mgrwt>
<rscale>  2 0.17847874E+03</rscale>
<asrwt>0</asrwt>
<pdfrwt beam="2">  1        1 0.34864748E-01 0.17847874E+03</pdfrwt>
<pdfrwt beam="1">  1       -1 0.21631734E-01 0.17847874E+03</pdfrwt>
<totfact> 0.21822968E+03</totfact>
</mgrwt>
</event>
<event>
12    1  0.4404304E-002  0.2608498E+03  0.7546771E-02  0.1106634E+00
          1   -1    0    0  502    0  0.00000000000E+00  0.00000000000E+00  0.37644764900E+03  0.37644764900E+03  0.00000000000E+00 0. -1.
         -1   -1    0    0    0  501 -0.00000000000E+00 -0.00000000000E+00 -0.18772193450E+03  0.18772193450E+03  0.00000000000E+00 0.  1.
          6    2    1    2  502    0 -0.12442147329E+03 -0.14952252792E+03  0.14857860864E+03  0.29982903842E+03  0.17315934847E+03 0.  0.
         24    2    3    3    0    0 -0.10213445778E+03 -0.57382482651E+02  0.25991716404E+02  0.14479312274E+03  0.81026429577E+02 0.  0.
         -6    2    1    2    0  501  0.12442147329E+03  0.14952252792E+03  0.40147105860E+02  0.26434054508E+03  0.17443177547E+03 0.  0.
        -24    2    5    5    0    0  0.57363728452E+02  0.14624832269E+03 -0.15080024988E+02  0.17727971839E+03  0.80755941992E+02 0.  0.
          5    1    3    3  502    0 -0.22287015509E+02 -0.92140045264E+02  0.12258689223E+03  0.15503591567E+03  0.47000000000E+01 0. -1.
        -11    1    4    4    0    0 -0.75635839948E+02 -0.41872660744E+01  0.37076271401E+02  0.84338386176E+02  0.00000000000E+00 0.  1.
         12    1    4    4    0    0 -0.26498617836E+02 -0.53195216577E+02 -0.11084554996E+02  0.60454736567E+02  0.00000000000E+00 0. -1.
         -5    1    5    5    0  501  0.67057744841E+02  0.32742052264E+01  0.55227130848E+02  0.87060826694E+02  0.47000000000E+01 0.  1.
         11    1    6    6    0    0  0.38779195438E+02  0.16007412353E+02  0.10519949936E+02  0.43251966379E+02  0.00000000000E+00 0. -1.
        -12    1    6    6    0    0  0.18584533014E+02  0.13024091034E+03 -0.25599974924E+02  0.13402775201E+03  0.00000000000E+00 0.  1.
<mgrwt>
<rscale>  2 0.26084983E+03</rscale>
<asrwt>0</asrwt>
<pdfrwt beam="1">  1        1 0.57915023E-01 0.26084983E+03</pdfrwt>
<pdfrwt beam="2">  1       -1 0.28880298E-01 0.26084983E+03</pdfrwt>
<totfact> 0.71710494E+02</totfact>
</mgrwt>
</event>
<event>
12    1  0.4404304E-002  0.4194720E+03  0.7546771E-02  0.1037238E+00
         -2   -1    0    0    0  501 -0.00000000000E+00  0.00000000000E+00  0.10407412227E+03  0.10407412227E+03  0.00000000000E+00 0.  1.
          2   -1    0    0  502    0  0.00000000000E+00 -0.00000000000E+00 -0.29338582397E+04  0.29338582397E+04  0.00000000000E+00 0. -1.
          6    2    1    2  502    0  0.13172308686E+03  0.35841612430E+03 -0.24041127394E+04  0.24404734700E+04  0.17418267525E+03 0.  0.
         24    2    3    3    0    0  0.12458931159E+03  0.17392804884E+03 -0.10892775677E+04  0.11127308898E+04  0.76622129725E+02 0.  0.
         -6    2    1    2    0  501 -0.13172308686E+03 -0.35841612430E+03 -0.42567137805E+03  0.59745889196E+03  0.17305466110E+03 0.  0.
        -24    2    5    5    0    0 -0.65095428295E+02 -0.30884901788E+03 -0.38660114572E+03  0.50556375619E+03  0.80679210911E+02 0.  0.
          5    1    3    3  502    0  0.71337752746E+01  0.18448807546E+03 -0.13148351717E+04  0.13277425803E+04  0.47000000000E+01 0. -1.
        -11    1    4    4    0    0  0.48901069283E+02  0.20994387292E+02 -0.34950730807E+03  0.35353562376E+03  0.00000000000E+00 0.  1.
         12    1    4    4    0    0  0.75688242303E+02  0.15293366155E+03 -0.73977025964E+03  0.75919526600E+03  0.00000000000E+00 0. -1.
         -5    1    5    5    0  501 -0.66627658566E+02 -0.49567106421E+02 -0.39070232332E+02  0.91895135776E+02  0.47000000000E+01 0.  1.
         11    1    6    6    0    0 -0.76058527205E+00 -0.12997285385E+03 -0.20458048875E+03  0.24237718046E+03  0.00000000000E+00 0. -1.
        -12    1    6    6    0    0 -0.64334843023E+02 -0.17887616403E+03 -0.18202065696E+03  0.26318657573E+03  0.00000000000E+00 0.  1.
<mgrwt>
<rscale>  2 0.41947198E+03</rscale>
<asrwt>0</asrwt>
<pdfrwt beam="2">  1        2 0.45136286E+00 0.41947198E+03</pdfrwt>
<pdfrwt beam="1">  1       -2 0.16011401E-01 0.41947198E+03</pdfrwt>
<totfact> 0.67156296E+01</totfact>
</mgrwt>
</event>
<event>
12    1  0.4404304E-002  0.1757031E+03  0.7546771E-02  0.1172028E+00
         -1   -1    0    0    0  501 -0.00000000000E+00  0.00000000000E+00  0.19993216570E+02  0.19993216570E+02  0.00000000000E+00 0. -1.
          1   -1    0    0  502    0  0.00000000000E+00 -0.00000000000E+00 -0.17292698230E+04  0.17292698230E+04  0.00000000000E+00 0.  1.
          6    2    1    2  502    0  0.25313961971E+02  0.18253593525E+02 -0.56453542865E+03  0.59097815387E+03  0.17199109802E+03 0.  0.
         24    2    3    3    0    0  0.76837428152E+02 -0.84297181237E+01 -0.42638958053E+03  0.44106807401E+03  0.82206575272E+02 0.  0.
         -6    2    1    2    0  501 -0.25313961971E+02 -0.18253593525E+02 -0.11447411778E+04  0.11582848857E+04  0.17383187855E+03 0.  0.
        -24    2    5    5    0    0  0.18479359863E+02 -0.40458369142E+02 -0.10215577362E+04  0.10255929215E+04  0.79260745455E+02 0.  0.
          5    1    3    3  502    0 -0.51523466181E+02  0.26683311649E+02 -0.13814584813E+03  0.14991007986E+03  0.47000000000E+01 0. -1.
        -13    1    4    4    0    0  0.22709126013E+01  0.16005142751E+02 -0.21462682480E+03  0.21523474524E+03  0.00000000000E+00 0.  1.
         14    1    4    4    0    0  0.74566515551E+02 -0.24434860875E+02 -0.21176275573E+03  0.22583332877E+03  0.00000000000E+00 0. -1.
         -5    1    5    5    0  501 -0.43793321834E+02  0.22204775616E+02 -0.12318344157E+03  0.13269196424E+03  0.47000000000E+01 0.  1.
         13    1    6    6    0    0  0.26091884897E+02 -0.14180468988E+02 -0.11998930719E+03  0.12360948992E+03  0.00000000000E+00 0. -1.
        -14    1    6    6    0    0 -0.76125250338E+01 -0.26277900153E+02 -0.90156842904E+03  0.90198343156E+03  0.00000000000E+00 0.  1.
<mgrwt>
<rscale>  2 0.17570310E+03</rscale>
<asrwt>0</asrwt>
<pdfrwt beam="2">  1        1 0.26604149E+00 0.17570310E+03</pdfrwt>
<pdfrwt beam="1">  1       -1 0.30758797E-02 0.17570310E+03</pdfrwt>
<totfact> 0.18428291E+03</totfact>
</mgrwt>
</event>
<event>
12    1  0.4404304E-002  0.2937324E+03  0.7546771E-02  0.1088416E+00
         -2   -1    0    0    0  501 -0.00000000000E+00  0.00000000000E+00  0.53439444808E+02  0.53439444808E+02  0.00000000000E+00 0.  1.
          2   -1    0    0  502    0  0.00000000000E+00 -0.00000000000E+00 -0.17437597630E+04  0.17437597630E+04  0.00000000000E+00 0. -1.
          6    2    1    2  502    0  0.23484832785E+03  0.45062477536E+02 -0.60567054629E+03  0.67397611899E+03  0.17384658280E+03 0.  0.
         24    2    3    3    0    0  0.68163953090E+02  0.35314069297E+02 -0.13702597356E+03  0.17645371970E+03  0.80413865553E+02 0.  0.
         -6    2    1    2    0  501 -0.23484832785E+03 -0.45062477536E+02 -0.10846497718E+04  0.11232230888E+04  0.16727407328E+03 0.  0.
        -24    2    5    5    0    0 -0.10131788557E+03  0.96746152760E+01 -0.32223873303E+03  0.34725968083E+03  0.79953566194E+02 0.  0.
          5    1    3    3  502    0  0.16668437476E+03  0.97484082383E+01 -0.46864457273E+03  0.49752239930E+03  0.47000000000E+01 0. -1.
        -13    1    4    4    0    0  0.83016509125E+02  0.40835922849E+02 -0.12884651516E+03  0.15862136632E+03  0.00000000000E+00 0.  1.
         14    1    4    4    0    0 -0.14852556035E+02 -0.55218535513E+01 -0.81794583988E+01  0.17832353381E+02  0.00000000000E+00 0. -1.
         -5    1    5    5    0  501 -0.13353044227E+03 -0.54737092812E+02 -0.76241103882E+03  0.77596340794E+03  0.47000000000E+01 0.  1.
         11    1    6    6    0    0 -0.10463152658E+03  0.33363700865E+01 -0.32348289134E+03  0.34000010104E+03  0.00000000000E+00 0. -1.
        -12    1    6    6    0    0  0.33136410053E+01  0.63382451895E+01  0.12441583088E+01  0.72595797876E+01  0.00000000000E+00 0.  1.
<mgrwt>
<rscale>  2 0.29373237E+03</rscale>
<asrwt>0</asrwt>
<pdfrwt beam="2">  1        2 0.26827071E+00 0.29373237E+03</pdfrwt>
<pdfrwt beam="1">  1       -2 0.82214538E-02 0.29373237E+03</pdfrwt>
<totfact> 0.91642631E+02</totfact>
</mgrwt>
</event>
<event>
12    1  0.4404304E-002  0.1924190E+03  0.7546771E-02  0.1156297E+00
         -1   -1    0    0    0  501 -0.00000000000E+00  0.00000000000E+00  0.39805630605E+02  0.39805630605E+02  0.00000000000E+00 0. -1.
          1   -1    0    0  502    0  0.00000000000E+00 -0.00000000000E+00 -0.24239288179E+04  0.24239288179E+04  0.00000000000E+00 0.  1.
          6    2    1    2  502    0 -0.52077863098E+01  0.84469475145E+02 -0.21581280475E+04  0.21666526542E+04  0.17235092496E+03 0.  0.
         24    2    3    3    0    0 -0.53264007996E+02  0.93062648509E+02 -0.18210326033E+04  0.18260081598E+04  0.81537391992E+02 0.  0.
         -6    2    1    2    0  501  0.52077863098E+01 -0.84469475145E+02 -0.22599513982E+03  0.29708179432E+03  0.17326735417E+03 0.  0.
        -24    2    5    5    0    0  0.11115764196E+02 -0.90336843508E+02 -0.68312480214E+02  0.13910951398E+03  0.80003477537E+02 0.  0.
          5    1    3    3  502    0  0.48056221686E+02 -0.85931733642E+01 -0.33709544416E+03  0.34064449437E+03  0.47000000000E+01 0. -1.
        -11    1    4    4    0    0 -0.61044398531E+02  0.28047040882E+02 -0.76322394611E+03  0.76617481491E+03  0.00000000000E+00 0.  1.
         12    1    4    4    0    0  0.77803905346E+01  0.65015607627E+02 -0.10578086572E+04  0.10598333449E+04  0.00000000000E+00 0. -1.
         -5    1    5    5    0  501 -0.59079778865E+01  0.58673683626E+01 -0.15768265961E+03  0.15797228034E+03  0.47000000000E+01 0.  1.
         13    1    6    6    0    0 -0.23971332064E+02 -0.68892433505E+02 -0.65258767245E+02  0.97874914342E+02  0.00000000000E+00 0. -1.
        -14    1    6    6    0    0  0.35087096260E+02 -0.21444410003E+02 -0.30537129687E+01  0.41234599637E+02  0.00000000000E+00 0.  1.
<mgrwt>
<rscale>  2 0.19241903E+03</rscale>
<asrwt>0</asrwt>
<pdfrwt beam="2">  1        1 0.37291224E+00 0.19241903E+03</pdfrwt>
<pdfrwt beam="1">  1       -1 0.61239414E-02 0.19241903E+03</pdfrwt>
<totfact> 0.23563738E+02</totfact>
</mgrwt>
</event>
<event>
12    1  0.4404304E-002  0.2069188E+03  0.7546771E-02  0.1144029E+00
         -2   -1    0    0    0  501 -0.00000000000E+00  0.00000000000E+00  0.28413725871E+02  0.28413725871E+02  0.00000000000E+00 0.  1.
          2   -1    0    0  502    0  0.00000000000E+00 -0.00000000000E+00 -0.15538760366E+04  0.15538760366E+04  0.00000000000E+00 0. -1.
          6    2    1    2  502    0  0.37019570648E+02  0.10794766237E+03 -0.62499697564E+03  0.65834917238E+03  0.17256670245E+03 0.  0.
         24    2    3    3    0    0  0.83687712895E+02  0.97378920353E+02 -0.54078935902E+03  0.56138203101E+03  0.78805878557E+02 0.  0.
         -6    2    1    2    0  501 -0.37019570648E+02 -0.10794766237E+03 -0.90046533506E+03  0.92394059006E+03  0.17264196446E+03 0.  0.
        -24    2    5    5    0    0  0.25338221519E+02 -0.11124954874E+03 -0.67129322445E+03  0.68636672159E+03  0.86291342268E+02 0.  0.
          5    1    3    3  502    0 -0.46668142246E+02  0.10568742021E+02 -0.84207616620E+02  0.96967141370E+02  0.47000000000E+01 0. -1.
        -11    1    4    4    0    0  0.73018391069E+02  0.42206024025E+02 -0.21815297193E+03  0.23388833459E+03  0.00000000000E+00 0.  1.
         12    1    4    4    0    0  0.10669321826E+02  0.55172896327E+02 -0.32263638709E+03  0.32749369642E+03  0.00000000000E+00 0. -1.
         -5    1    5    5    0  501 -0.62357792167E+02  0.33018863686E+01 -0.22917211061E+03  0.23757386847E+03  0.47000000000E+01 0.  1.
         11    1    6    6    0    0 -0.26518817435E+02 -0.84606561902E+01 -0.14060114851E+03  0.14333008527E+03  0.00000000000E+00 0. -1.
        -12    1    6    6    0    0  0.51857038953E+02 -0.10278889255E+03 -0.53069207594E+03  0.54303663632E+03  0.00000000000E+00 0.  1.
<mgrwt>
<rscale>  2 0.20691883E+03</rscale>
<asrwt>0</asrwt>
<pdfrwt beam="2">  1        2 0.23905794E+00 0.20691883E+03</pdfrwt>
<pdfrwt beam="1">  1       -2 0.43713409E-02 0.20691883E+03</pdfrwt>
<totfact> 0.30641911E+03</totfact>
</mgrwt>
</event>
<event>
12    1  0.4404304E-002  0.2103766E+03  0.7546771E-02  0.1141268E+00
         -2   -1    0    0    0  501 -0.00000000000E+00  0.00000000000E+00  0.21522994590E+02  0.21522994590E+02  0.00000000000E+00 0. -1.
          2   -1    0    0  502    0  0.00000000000E+00 -0.00000000000E+00 -0.36073343144E+04  0.36073343144E+04  0.00000000000E+00 0.  1.
          6    2    1    2  502    0  0.92068712261E+02  0.75556511568E+02 -0.29841383653E+04  0.29915663756E+04  0.17378769281E+03 0.  0.
         24    2    3    3    0    0 -0.44618373052E+01  0.33888875075E+02 -0.19864646887E+04  0.19883569289E+04  0.79705416996E+02 0.  0.
         -6    2    1    2    0  501 -0.92068712261E+02 -0.75556511568E+02 -0.60167295453E+03  0.63729093341E+03  0.17304321822E+03 0.  0.
        -24    2    5    5    0    0  0.12165278590E+02 -0.57162348030E+02 -0.35708837081E+03  0.37074491731E+03  0.80772279351E+02 0.  0.
          5    1    3    3  502    0  0.96530549567E+02  0.41667636493E+02 -0.99767367664E+03  0.10032094467E+04  0.47000000000E+01 0. -1.
        -13    1    4    4    0    0 -0.40077970791E+01  0.55678468232E+02 -0.17499725941E+04  0.17508627114E+04  0.00000000000E+00 0.  1.
         14    1    4    4    0    0 -0.45404022611E+00 -0.21789593157E+02 -0.23649209456E+03  0.23749421743E+03  0.00000000000E+00 0. -1.
         -5    1    5    5    0  501 -0.10423399085E+03 -0.18394163538E+02 -0.24458458373E+03  0.26654601610E+03  0.47000000000E+01 0.  1.
         11    1    6    6    0    0 -0.26245266697E+02  0.22805706919E+01 -0.63524778908E+02  0.68770724600E+02  0.00000000000E+00 0. -1.
        -12    1    6    6    0    0  0.38410545287E+02 -0.59442918722E+02 -0.29356359190E+03  0.30197419271E+03  0.00000000000E+00 0.  1.
<mgrwt>
<rscale>  2 0.21037658E+03</rscale>
<asrwt>0</asrwt>
<pdfrwt beam="2">  1        2 0.55497399E+00 0.21037658E+03</pdfrwt>
<pdfrwt beam="1">  1       -2 0.33112330E-02 0.21037658E+03</pdfrwt>
<totfact> 0.32063526E+02</totfact>
</mgrwt>
</event>
<event>
12    1  0.4404304E-002  0.2082910E+03  0.7546771E-02  0.1142927E+00
          1   -1    0    0  502    0  0.00000000000E+00  0.00000000000E+00  0.45506920049E+03  0.45506920049E+03  0.00000000000E+00 0. -1.
         -1   -1    0    0    0  501 -0.00000000000E+00 -0.00000000000E+00 -0.22619525935E+03  0.22619525935E+03  0.00000000000E+00 0.  1.
          6    2    1    2  502    0  0.11593245374E+03 -0.18247745708E+02  0.37367097354E+03  0.42811790510E+03  0.17286303869E+03 0.  0.
         24    2    3    3    0    0  0.13364675890E+03 -0.21897800260E+02  0.20508365113E+03  0.25849805135E+03  0.80130947661E+02 0.  0.
         -6    2    1    2    0  501 -0.11593245374E+03  0.18247745708E+02 -0.14479703241E+03  0.25314655474E+03  0.17129998111E+03 0.  0.
        -24    2    5    5    0    0 -0.49479709016E+02 -0.54062150614E+02 -0.76369208191E+02  0.13335863584E+03  0.81125286192E+02 0.  0.
          5    1    3    3  502    0 -0.17714305160E+02  0.36500545516E+01  0.16858732242E+03  0.16961985375E+03  0.47000000000E+01 0. -1.
        -13    1    4    4    0    0 -0.36487164696E+01 -0.12178102830E+01 -0.52268436135E+01  0.64896908957E+01  0.00000000000E+00 0.  1.
         14    1    4    4    0    0  0.13729547537E+03 -0.20679989977E+02  0.21031049474E+03  0.25200836046E+03  0.00000000000E+00 0. -1.
         -5    1    5    5    0  501 -0.66452744724E+02  0.72309896322E+02 -0.68427824220E+02  0.11978791890E+03  0.47000000000E+01 0.  1.
         11    1    6    6    0    0 -0.21178457217E+02 -0.26566428504E+02  0.12437815377E+02  0.36180124722E+02  0.00000000000E+00 0. -1.
        -12    1    6    6    0    0 -0.28301251798E+02 -0.27495722110E+02 -0.88807023568E+02  0.97178511116E+02  0.00000000000E+00 0.  1.
<mgrwt>
<rscale>  2 0.20829099E+03</rscale>
<asrwt>0</asrwt>
<pdfrwt beam="1">  1        1 0.70010646E-01 0.20829099E+03</pdfrwt>
<pdfrwt beam="2">  1       -1 0.34799271E-01 0.20829099E+03</pdfrwt>
<totfact> 0.40864971E+02</totfact>
</mgrwt>
</event>
<event>
12    1  0.4404304E-002  0.1800270E+03  0.7546771E-02  0.1167777E+00
          4   -1    0    0  502    0  0.00000000000E+00  0.00000000000E+00  0.12175482026E+03  0.12175482026E+03  0.00000000000E+00 0. -1.
         -4   -1    0    0    0  501 -0.00000000000E+00 -0.00000000000E+00 -0.27720768255E+03  0.27720768255E+03  0.00000000000E+00 0.  1.
          6    2    1    2  502    0  0.58266504175E-02 -0.47183037433E+02 -0.11752089006E+03  0.21503635237E+03  0.17379077704E+03 0.  0.
         24    2    3    3    0    0  0.67370114186E+02 -0.31612920403E+02 -0.87435432177E+02  0.13948768887E+03  0.79207016892E+02 0.  0.
         -6    2    1    2    0  501 -0.58266504175E-02  0.47183037433E+02 -0.37931972233E+02  0.18392615044E+03  0.17367715809E+03 0.  0.
        -24    2    5    5    0    0 -0.48421830194E+02 -0.80171642980E+01 -0.11682633963E+02  0.10580899848E+03  0.93005976480E+02 0.  0.
          5    1    3    3  502    0 -0.67364287536E+02 -0.15570117030E+02 -0.30085457885E+02  0.75548663494E+02  0.47000000000E+01 0. -1.
        -13    1    4    4    0    0  0.39782422017E+02 -0.51945010856E+02 -0.28616346863E+02  0.71413027958E+02  0.00000000000E+00 0.  1.
         14    1    4    4    0    0  0.27587692169E+02  0.20332090452E+02 -0.58819085314E+02  0.68074660914E+02  0.00000000000E+00 0. -1.
         -5    1    5    5    0  501  0.48416003543E+02  0.55200201731E+02 -0.26249338269E+02  0.78117151957E+02  0.47000000000E+01 0.  1.
         13    1    6    6    0    0 -0.34761710671E+02 -0.41637137991E+02  0.19825398295E+02  0.57750101354E+02  0.00000000000E+00 0. -1.
        -14    1    6    6    0    0 -0.13660119523E+02  0.33619973693E+02 -0.31508032259E+02  0.48058897129E+02  0.00000000000E+00 0.  1.
<mgrwt>
<rscale>  2 0.18002702E+03</rscale>
<asrwt>0</asrwt>
<pdfrwt beam="1">  1        4 0.18731511E-01 0.18002702E+03</pdfrwt>
<pdfrwt beam="2">  1       -4 0.42647335E-01 0.18002702E+03</pdfrwt>
<totfact> 0.23781043E+02</totfact>
</mgrwt>
</event>
<event>
12    1  0.4404304E-002  0.2573428E+03  0.7546771E-02  0.1108750E+00
          1   -1    0    0  502    0  0.00000000000E+00  0.00000000000E+00  0.21140684185E+03  0.21140684185E+03  0.00000000000E+00 0. -1.
         -1   -1    0    0    0  501 -0.00000000000E+00 -0.00000000000E+00 -0.36556564736E+03  0.36556564736E+03  0.00000000000E+00 0.  1.
          6    2    1    2  502    0 -0.19105171317E+03  0.32455725976E+01  0.32277447109E+02  0.25843835185E+03  0.17098905600E+03 0.  0.
         24    2    3    3    0    0 -0.13416435227E+03 -0.78164779002E+01 -0.43921366921E+02  0.16259008608E+03  0.80282494193E+02 0.  0.
         -6    2    1    2    0  501  0.19105171317E+03 -0.32455725976E+01 -0.18643625262E+03  0.31853413736E+03  0.17376486851E+03 0.  0.
        -24    2    5    5    0    0  0.11348759248E+03 -0.20460884645E+02 -0.34107676189E+02  0.14666603391E+03  0.83961363023E+02 0.  0.
          5    1    3    3  502    0 -0.56887360898E+02  0.11062050498E+02  0.76198814030E+02  0.95848265768E+02  0.47000000000E+01 0. -1.
        -13    1    4    4    0    0 -0.83098533387E+02 -0.42010712490E+02 -0.38949479577E+02  0.10093229500E+03  0.00000000000E+00 0.  1.
         14    1    4    4    0    0 -0.51065818882E+02  0.34194234590E+02 -0.49718873441E+01  0.61657791082E+02  0.00000000000E+00 0. -1.
         -5    1    5    5    0  501  0.77564120689E+02  0.17215312048E+02 -0.15232857643E+03  0.17186810345E+03  0.47000000000E+01 0.  1.
         13    1    6    6    0    0  0.51049585541E+02  0.27115892512E+02  0.67045701945E+01  0.58191778389E+02  0.00000000000E+00 0. -1.
        -14    1    6    6    0    0  0.62438006936E+02 -0.47576777157E+02 -0.40812246384E+02  0.88474255519E+02  0.00000000000E+00 0.  1.
<mgrwt>
<rscale>  2 0.25734278E+03</rscale>
<asrwt>0</asrwt>
<pdfrwt beam="1">  1        1 0.32524130E-01 0.25734278E+03</pdfrwt>
<pdfrwt beam="2">  1       -1 0.56240868E-01 0.25734278E+03</pdfrwt>
<totfact> 0.45193334E+02</totfact>
</mgrwt>
</event>
<event>
12    1  0.4404304E-002  0.2777727E+03  0.7546771E-02  0.1096912E+00
         -3   -1    0    0    0  501 -0.00000000000E+00  0.00000000000E+00  0.33927819051E+03  0.33927819051E+03  0.00000000000E+00 0. -1.
          3   -1    0    0  502    0  0.00000000000E+00 -0.00000000000E+00 -0.22743081371E+03  0.22743081371E+03  0.00000000000E+00 0.  1.
          6    2    1    2  502    0 -0.21597969313E+03  0.84162980023E+01  0.58060409829E+02  0.28352372226E+03  0.17405926572E+03 0.  0.
         24    2    3    3    0    0 -0.16817326440E+03 -0.10692759852E+02 -0.22051332479E+02  0.18817912632E+03  0.80799383331E+02 0.  0.
         -6    2    1    2    0  501  0.21597969313E+03 -0.84162980023E+01  0.53786966962E+02  0.28318528196E+03  0.17487939898E+03 0.  0.
        -24    2    5    5    0    0  0.19648483339E+03  0.12451393029E+01 -0.12231185306E+02  0.21351549399E+03  0.82652429816E+02 0.  0.
          5    1    3    3  502    0 -0.47806428724E+02  0.19109057855E+02  0.80111742308E+02  0.95344595940E+02  0.47000000000E+01 0. -1.
        -11    1    4    4    0    0 -0.70205498984E+01  0.11847292808E+02 -0.21409937343E+02  0.25456470391E+02  0.00000000000E+00 0.  1.
         12    1    4    4    0    0 -0.16115271450E+03 -0.22540052660E+02 -0.64139513590E+00  0.16272265593E+03  0.00000000000E+00 0. -1.
         -5    1    5    5    0  501  0.19494859738E+02 -0.96614373052E+01  0.66018152269E+02  0.69669787971E+02  0.47000000000E+01 0.  1.
         11    1    6    6    0    0  0.14812662134E+03 -0.35043877982E+02 -0.22163153786E+01  0.15223167012E+03  0.00000000000E+00 0. -1.
        -12    1    6    6    0    0  0.48358212051E+02  0.36289017285E+02 -0.10014869928E+02  0.61283823869E+02  0.00000000000E+00 0.  1.
<mgrwt>
<rscale>  2 0.27777265E+03</rscale>
<asrwt>0</asrwt>
<pdfrwt beam="2">  1        3 0.34989356E-01 0.27777265E+03</pdfrwt>
<pdfrwt beam="1">  1       -3 0.52196645E-01 0.27777265E+03</pdfrwt>
<totfact> 0.73712298E+01</totfact>
</mgrwt>
</event>
<event>
12    1  0.4404304E-002  0.1907286E+03  0.7546771E-02  0.1157806E+00
          2   -1    0    0  502    0  0.00000000000E+00  0.00000000000E+00  0.42428603163E+03  0.42428603163E+03  0.00000000000E+00 0. -1.
         -2   -1    0    0    0  501 -0.00000000000E+00 -0.00000000000E+00 -0.88838802357E+02  0.88838802357E+02  0.00000000000E+00 0.  1.
          6    2    1    2  502    0 -0.76241388373E+02  0.24044207393E+02  0.21502599446E+03  0.28694221540E+03  0.17236236095E+03 0.  0.
         24    2    3    3    0    0 -0.22210070353E+02 -0.49975034188E+02  0.11973019297E+03  0.15464856010E+03  0.81179226186E+02 0.  0.
         -6    2    1    2    0  501  0.76241388373E+02 -0.24044207393E+02  0.12042123482E+03  0.22618261859E+03  0.17397249768E+03 0.  0.
        -24    2    5    5    0    0  0.87278057768E+02  0.21420923546E+01  0.14634692836E+03  0.18743004511E+03  0.78041978719E+02 0.  0.
          5    1    3    3  502    0 -0.54031318020E+02  0.74019241581E+02  0.95295801490E+02  0.13229365530E+03  0.47000000000E+01 0. -1.
        -13    1    4    4    0    0 -0.16136649634E+02 -0.15308094254E+02 -0.68445563874E+01  0.23271810485E+02  0.00000000000E+00 0.  1.
         14    1    4    4    0    0 -0.60734207185E+01 -0.34666939934E+02  0.12657474936E+03  0.13137674961E+03  0.00000000000E+00 0. -1.
         -5    1    5    5    0  501 -0.11036669395E+02 -0.26186299748E+02 -0.25925693544E+02  0.38752573483E+02  0.47000000000E+01 0.  1.
         13    1    6    6    0    0  0.10061012950E+03  0.10822212749E+02  0.12679253873E+03  0.16222165800E+03  0.00000000000E+00 0. -1.
        -14    1    6    6    0    0 -0.13332071735E+02 -0.86801203940E+01  0.19554389634E+02  0.25208387111E+02  0.00000000000E+00 0.  1.
<mgrwt>
<rscale>  2 0.19072863E+03</rscale>
<asrwt>0</asrwt>
<pdfrwt beam="1">  1        2 0.65274773E-01 0.19072863E+03</pdfrwt>
<pdfrwt beam="2">  1       -2 0.13667508E-01 0.19072863E+03</pdfrwt>
<totfact> 0.29433609E+03</totfact>
</mgrwt>
</event>
<event>
12    1  0.4404304E-002  0.3349275E+03  0.7546771E-02  0.1068977E+00
          2   -1    0    0  502    0  0.00000000000E+00  0.00000000000E+00  0.28480722901E+04  0.28480722901E+04  0.00000000000E+00 0. -1.
         -2   -1    0    0    0  501 -0.00000000000E+00 -0.00000000000E+00 -0.40171763977E+02  0.40171763977E+02  0.00000000000E+00 0.  1.
          6    2    1    2  502    0  0.15332115813E+03 -0.24293187372E+03  0.12007763118E+04  0.12465259750E+04  0.17158083397E+03 0.  0.
         24    2    3    3    0    0  0.83982035262E+02 -0.49127049769E+02  0.38868329774E+03  0.40873997773E+03  0.80791176418E+02 0.  0.
         -6    2    1    2    0  501 -0.15332115813E+03  0.24293187372E+03  0.16071242143E+04  0.16417180790E+04  0.17281995858E+03 0.  0.
        -24    2    5    5    0    0 -0.48443567084E+02  0.44840140670E+02  0.37326716530E+03  0.38765869003E+03  0.81200159239E+02 0.  0.
          5    1    3    3  502    0  0.69339122870E+02 -0.19380482395E+03  0.81209301407E+03  0.83778599728E+03  0.47000000000E+01 0. -1.
        -11    1    4    4    0    0  0.31017444531E+02 -0.51734864371E+02  0.11390121226E+03  0.12888779698E+03  0.00000000000E+00 0.  1.
         12    1    4    4    0    0  0.52964590731E+02  0.26078146024E+01  0.27478208548E+03  0.27985218075E+03  0.00000000000E+00 0. -1.
         -5    1    5    5    0  501 -0.10487759105E+03  0.19809173305E+03  0.12338570490E+04  0.12540593890E+04  0.47000000000E+01 0.  1.
         11    1    6    6    0    0  0.12617252506E+02  0.22368006006E+02  0.21515784098E+03  0.21668506937E+03  0.00000000000E+00 0. -1.
        -12    1    6    6    0    0 -0.61060819590E+02  0.22472134664E+02  0.15810932432E+03  0.17097362066E+03  0.00000000000E+00 0.  1.
<mgrwt>
<rscale>  2 0.33492750E+03</rscale>
<asrwt>0</asrwt>
<pdfrwt beam="1">  1        2 0.43816481E+00 0.33492750E+03</pdfrwt>
<pdfrwt beam="2">  1       -2 0.61802737E-02 0.33492750E+03</pdfrwt>
<totfact> 0.35632340E+02</totfact>
</mgrwt>
</event>
<event>
12    1  0.4404304E-002  0.1808145E+03  0.7546771E-02  0.1167017E+00
         -2   -1    0    0    0  501 -0.00000000000E+00  0.00000000000E+00  0.15716283744E+02  0.15716283744E+02  0.00000000000E+00 0.  1.
          2   -1    0    0  502    0  0.00000000000E+00 -0.00000000000E+00 -0.20817283092E+04  0.20817283092E+04  0.00000000000E+00 0. -1.
          6    2    1    2  502    0 -0.44727438956E+02  0.22051984168E+02 -0.99759579281E+03  0.10135680659E+04  0.17215116812E+03 0.  0.
         24    2    3    3    0    0 -0.85565045714E+02 -0.22397889291E+02 -0.61369618877E+03  0.62492363030E+03  0.77996725003E+02 0.  0.
         -6    2    1    2    0  501  0.44727438956E+02 -0.22051984168E+02 -0.10684162326E+04  0.10838765270E+04  0.17546579661E+03 0.  0.
        -24    2    5    5    0    0  0.95484286265E+02 -0.30955740440E+02 -0.69674285545E+03  0.70861831757E+03  0.81325313284E+02 0.  0.
          5    1    3    3  502    0  0.40837606758E+02  0.44449873459E+02 -0.38389960404E+03  0.38864443564E+03  0.47000000000E+01 0. -1.
        -13    1    4    4    0    0 -0.47485763155E+02 -0.17265850530E+02 -0.12654489325E+03  0.13625937510E+03  0.00000000000E+00 0.  1.
         14    1    4    4    0    0 -0.38079282559E+02 -0.51320387617E+01 -0.48715129552E+03  0.48866425520E+03  0.00000000000E+00 0. -1.
         -5    1    5    5    0  501 -0.50756847309E+02  0.89037562723E+01 -0.37167337718E+03  0.37525820941E+03  0.47000000000E+01 0.  1.
         13    1    6    6    0    0  0.77177102460E+02 -0.36241604623E+02 -0.67200519089E+03  0.67739260081E+03  0.00000000000E+00 0. -1.
        -14    1    6    6    0    0  0.18307183805E+02  0.52858641829E+01 -0.24737664559E+02  0.31225716755E+02  0.00000000000E+00 0.  1.
<mgrwt>
<rscale>  2 0.18081453E+03</rscale>
<asrwt>0</asrwt>
<pdfrwt beam="2">  1        2 0.32026593E+00 0.18081453E+03</pdfrwt>
<pdfrwt beam="1">  1       -2 0.24178896E-02 0.18081453E+03</pdfrwt>
<totfact> 0.39273393E+03</totfact>
</mgrwt>
</event>
<event>
12    1  0.4404304E-002  0.1857056E+03  0.7546771E-02  0.1162393E+00
         -1   -1    0    0    0  501 -0.00000000000E+00  0.00000000000E+00  0.77286806885E+02  0.77286806885E+02  0.00000000000E+00 0.  1.
          1   -1    0    0  502    0  0.00000000000E+00 -0.00000000000E+00 -0.44654470116E+03  0.44654470116E+03  0.00000000000E+00 0. -1.
          6    2    1    2  502    0 -0.53977666184E+02 -0.39380188317E+02 -0.17787424101E+03  0.25739663373E+03  0.17363580783E+03 0.  0.
         24    2    3    3    0    0 -0.69466268133E+02 -0.79162153694E+01 -0.37634898797E+02  0.11276246941E+03  0.80067221921E+02 0.  0.
         -6    2    1    2    0  501  0.53977666184E+02  0.39380188317E+02 -0.19138365327E+03  0.26643487432E+03  0.17290301280E+03 0.  0.
        -24    2    5    5    0    0  0.90250629731E+02  0.66830203582E+02 -0.15897535243E+03  0.21038472547E+03  0.79856857897E+02 0.  0.
          5    1    3    3  502    0  0.15488601949E+02 -0.31463972948E+02 -0.14023934221E+03  0.14463416432E+03  0.47000000000E+01 0. -1.
        -13    1    4    4    0    0  0.15748679777E+02 -0.79362447136E+01  0.37501155917E+01  0.18029649520E+02  0.00000000000E+00 0.  1.
         14    1    4    4    0    0 -0.85214947910E+02  0.20029344168E-01 -0.41385014388E+02  0.94732819891E+02  0.00000000000E+00 0. -1.
         -5    1    5    5    0  501 -0.36272963547E+02 -0.27450015265E+02 -0.32408300838E+02  0.56050148847E+02  0.47000000000E+01 0.  1.
         13    1    6    6    0    0  0.76459898151E+02  0.34962665342E+02 -0.15379727100E+03  0.17527722202E+03  0.00000000000E+00 0. -1.
        -14    1    6    6    0    0  0.13790731580E+02  0.31867538240E+02 -0.51780814300E+01  0.35107503447E+02  0.00000000000E+00 0.  1.
<mgrwt>
<rscale>  2 0.18570562E+03</rscale>
<asrwt>0</asrwt>
<pdfrwt beam="2">  1        1 0.68699183E-01 0.18570562E+03</pdfrwt>
<pdfrwt beam="1">  1       -1 0.11890278E-01 0.18570562E+03</pdfrwt>
<totfact> 0.24079262E+03</totfact>
</mgrwt>
</event>
<event>
12    1  0.4404304E-002  0.2670806E+03  0.7546771E-02  0.1102962E+00
          2   -1    0    0  502    0  0.00000000000E+00  0.00000000000E+00  0.22885501847E+04  0.22885501847E+04  0.00000000000E+00 0.  1.
         -2   -1    0    0    0  501 -0.00000000000E+00 -0.00000000000E+00 -0.31256448054E+02  0.31256448054E+02  0.00000000000E+00 0. -1.
          6    2    1    2  502    0  0.15390048131E+03 -0.13450193993E+03  0.11921618179E+04  0.12218292457E+04  0.17274482829E+03 0.  0.
         24    2    3    3    0    0  0.17791859768E+03 -0.12991933642E+03  0.11436234598E+04  0.11672771388E+04  0.78276685466E+02 0.  0.
         -6    2    1    2    0  501 -0.15390048131E+03  0.13450193993E+03  0.10651319188E+04  0.10979773870E+04  0.17109122733E+03 0.  0.
        -24    2    5    5    0    0 -0.17733886557E+03  0.10708975219E+03  0.79894281585E+03  0.82931493263E+03  0.80847672937E+02 0.  0.
          5    1    3    3  502    0 -0.24018116375E+02 -0.45826035112E+01  0.48538358090E+02  0.54552106973E+02  0.47000000000E+01 0. -1.
        -13    1    4    4    0    0  0.21589356334E+02 -0.47426703842E+02  0.37422826957E+03  0.37783884169E+03  0.00000000000E+00 0.  1.
         14    1    4    4    0    0  0.15632924135E+03 -0.82492632577E+02  0.76939519022E+03  0.78943829706E+03  0.00000000000E+00 0. -1.
         -5    1    5    5    0  501  0.23438384266E+02  0.27412187741E+02  0.26618910291E+03  0.26866245439E+03  0.47000000000E+01 0.  1.
         13    1    6    6    0    0 -0.44273498255E+02  0.17903423979E+02  0.83817389389E+02  0.96467766647E+02  0.00000000000E+00 0. -1.
        -14    1    6    6    0    0 -0.13306536732E+03  0.89186328210E+02  0.71512542646E+03  0.73284716599E+03  0.00000000000E+00 0.  1.
<mgrwt>
<rscale>  2 0.26708062E+03</rscale>
<asrwt>0</asrwt>
<pdfrwt beam="1">  1        2 0.35208451E+00 0.26708062E+03</pdfrwt>
<pdfrwt beam="2">  1       -2 0.48086861E-02 0.26708062E+03</pdfrwt>
<totfact> 0.10856216E+03</totfact>
</mgrwt>
</event>
<event>
12    1  0.4404304E-002  0.3076789E+03  0.7546771E-02  0.1081464E+00
          1   -1    0    0  502    0  0.00000000000E+00  0.00000000000E+00  0.26605908060E+03  0.26605908060E+03  0.00000000000E+00 0.  1.
         -1   -1    0    0    0  501 -0.00000000000E+00 -0.00000000000E+00 -0.35601964864E+03  0.35601964864E+03  0.00000000000E+00 0. -1.
          6    2    1    2  502    0  0.25064914198E+03 -0.47032146527E+02 -0.37440367863E+02  0.31007964830E+03  0.17236760706E+03 0.  0.
         24    2    3    3    0    0  0.25172602750E+03 -0.33283676498E+02  0.52651363455E+01  0.26495725696E+03  0.75503843057E+02 0.  0.
         -6    2    1    2    0  501 -0.25064914198E+03  0.47032146527E+02 -0.52520200179E+02  0.31199908094E+03  0.17189543304E+03 0.  0.
        -24    2    5    5    0    0 -0.14883650723E+03 -0.26821501777E+02  0.97654070930E+01  0.17156489410E+03  0.80420462990E+02 0.  0.
          5    1    3    3  502    0 -0.10768855158E+01 -0.13748470029E+02 -0.42705504209E+02  0.45122391340E+02  0.47000000000E+01 0. -1.
        -13    1    4    4    0    0  0.11624287894E+02 -0.21488040092E+02  0.24064416439E+01  0.24548949009E+02  0.00000000000E+00 0.  1.
         14    1    4    4    0    0  0.24010173960E+03 -0.11795636406E+02  0.28586947016E+01  0.24040830795E+03  0.00000000000E+00 0. -1.
         -5    1    5    5    0  501 -0.10181263475E+03  0.73853648304E+02 -0.62285607272E+02  0.14043418685E+03  0.47000000000E+01 0.  1.
         13    1    6    6    0    0 -0.95030371405E+02 -0.41246461758E+02 -0.24114243944E+02  0.10636512050E+03  0.00000000000E+00 0. -1.
        -14    1    6    6    0    0 -0.53806135828E+02  0.14424959981E+02  0.33879651037E+02  0.65199773601E+02  0.00000000000E+00 0.  1.
<mgrwt>
<rscale>  2 0.30767888E+03</rscale>
<asrwt>0</asrwt>
<pdfrwt beam="1">  1        1 0.40932166E-01 0.30767888E+03</pdfrwt>
<pdfrwt beam="2">  1       -1 0.54772253E-01 0.30767888E+03</pdfrwt>
<totfact> 0.35459619E+02</totfact>
</mgrwt>
</event>
<event>
12    1  0.4404304E-002  0.1759548E+03  0.7546771E-02  0.1171776E+00
         -4   -1    0    0    0  501 -0.00000000000E+00  0.00000000000E+00  0.17090559168E+03  0.17090559168E+03  0.00000000000E+00 0.  1.
          4   -1    0    0  502    0  0.00000000000E+00 -0.00000000000E+00 -0.18199486854E+03  0.18199486854E+03  0.00000000000E+00 0. -1.
          6    2    1    2  502    0  0.44231706610E+02  0.54132267349E+01  0.59046221025E+01  0.17932409214E+03  0.17359872858E+03 0.  0.
         24    2    3    3    0    0  0.62796064417E+02 -0.18868978988E+02  0.58445269391E+02  0.11835794979E+03  0.79330767609E+02 0.  0.
         -6    2    1    2    0  501 -0.44231706610E+02 -0.54132267349E+01 -0.16993898959E+02  0.17357636808E+03  0.16689582398E+03 0.  0.
        -24    2    5    5    0    0 -0.61400473172E+02  0.22996324693E+02  0.36368147180E+02  0.11055679076E+03  0.81248463360E+02 0.  0.
          5    1    3    3  502    0 -0.18564357808E+02  0.24282205723E+02 -0.52540647289E+02  0.60966142351E+02  0.47000000000E+01 0. -1.
        -13    1    4    4    0    0 -0.36306488544E+01 -0.20631125201E+02  0.46284438540E+02  0.50804273335E+02  0.00000000000E+00 0.  1.
         14    1    4    4    0    0  0.66426713272E+02  0.17621462123E+01  0.12160830851E+02  0.67553676453E+02  0.00000000000E+00 0. -1.
         -5    1    5    5    0  501  0.17168766562E+02 -0.28409551428E+02 -0.53362046139E+02  0.63019577322E+02  0.47000000000E+01 0.  1.
         11    1    6    6    0    0  0.49591635320E+00  0.34631749635E+02  0.32438537464E+02  0.47453795724E+02  0.00000000000E+00 0. -1.
        -12    1    6    6    0    0 -0.61896389525E+02 -0.11635424942E+02  0.39296097162E+01  0.63102995035E+02  0.00000000000E+00 0.  1.
<mgrwt>
<rscale>  2 0.17595480E+03</rscale>
<asrwt>0</asrwt>
<pdfrwt beam="2">  1        4 0.27999211E-01 0.17595480E+03</pdfrwt>
<pdfrwt beam="1">  1       -4 0.26293168E-01 0.17595480E+03</pdfrwt>
<totfact> 0.28787777E+02</totfact>
</mgrwt>
</event>
<event>
12    1  0.4404304E-002  0.1979530E+03  0.7546771E-02  0.1151478E+00
          2   -1    0    0  502    0  0.00000000000E+00  0.00000000000E+00  0.13301156836E+04  0.13301156836E+04  0.00000000000E+00 0.  1.
         -2   -1    0    0    0  501 -0.00000000000E+00 -0.00000000000E+00 -0.29844879039E+02  0.29844879039E+02  0.00000000000E+00 0. -1.
          6    2    1    2  502    0 -0.46742212371E+02 -0.86176934798E+02  0.57648172288E+03  0.60987049570E+03  0.17320377074E+03 0.  0.
         24    2    3    3    0    0  0.19290746029E+02 -0.88442493677E+02  0.48119981325E+03  0.49382646675E+03  0.64164720984E+02 0.  0.
         -6    2    1    2    0  501  0.46742212371E+02  0.86176934798E+02  0.72378908164E+03  0.75009006691E+03  0.17074300938E+03 0.  0.
        -24    2    5    5    0    0  0.15268482311E+02 -0.15115658384E+02  0.22527205632E+03  0.24039201937E+03  0.81112353808E+02 0.  0.
          5    1    3    3  502    0 -0.66032958399E+02  0.22655588785E+01  0.95281909632E+02  0.11604402895E+03  0.47000000000E+01 0. -1.
        -11    1    4    4    0    0 -0.63187743939E+01 -0.63196125089E+02  0.18819010749E+03  0.19861821088E+03  0.00000000000E+00 0.  1.
         12    1    4    4    0    0  0.25609520422E+02 -0.25246368588E+02  0.29300970576E+03  0.29520825586E+03  0.00000000000E+00 0. -1.
         -5    1    5    5    0  501  0.31473730060E+02  0.10129259318E+03  0.49851702533E+03  0.50969804753E+03  0.47000000000E+01 0.  1.
         13    1    6    6    0    0 -0.25343852757E+02 -0.16036821620E+02  0.36222523666E+02  0.47027244667E+02  0.00000000000E+00 0. -1.
        -14    1    6    6    0    0  0.40612335068E+02  0.92116323611E+00  0.18904953265E+03  0.19336477471E+03  0.00000000000E+00 0.  1.
<mgrwt>
<rscale>  2 0.19795296E+03</rscale>
<asrwt>0</asrwt>
<pdfrwt beam="1">  1        2 0.20463314E+00 0.19795296E+03</pdfrwt>
<pdfrwt beam="2">  1       -2 0.45915209E-02 0.19795296E+03</pdfrwt>
<totfact> 0.37462359E+03</totfact>
</mgrwt>
</event>
<event>
12    1  0.4404304E-002  0.2126837E+03  0.7546771E-02  0.1139458E+00
          2   -1    0    0  502    0  0.00000000000E+00  0.00000000000E+00  0.13214573311E+04  0.13214573311E+04  0.00000000000E+00 0.  1.
         -2   -1    0    0    0  501 -0.00000000000E+00 -0.00000000000E+00 -0.34237159490E+02  0.34237159490E+02  0.00000000000E+00 0. -1.
          6    2    1    2  502    0 -0.10809465721E+03 -0.51211096307E+02  0.63095319837E+03  0.66532919322E+03  0.17393667098E+03 0.  0.
         24    2    3    3    0    0 -0.52156358253E+02  0.24936348842E+02  0.18133766433E+03  0.20586891730E+03  0.78463720325E+02 0.  0.
         -6    2    1    2    0  501  0.10809465721E+03  0.51211096307E+02  0.65626697323E+03  0.69036529736E+03  0.17779446658E+03 0.  0.
        -24    2    5    5    0    0  0.32315002889E+02 -0.20381946918E+02  0.45201548113E+03  0.46099903595E+03  0.82112318174E+02 0.  0.
          5    1    3    3  502    0 -0.55938298961E+02 -0.76147445149E+02  0.44961553404E+03  0.45946027591E+03  0.47000000000E+01 0. -1.
        -13    1    4    4    0    0 -0.55092361100E+02 -0.11828368841E+02  0.13738883916E+03  0.14849502243E+03  0.00000000000E+00 0.  1.
         14    1    4    4    0    0  0.29360028475E+01  0.36764717682E+02  0.43948825171E+02  0.57373894873E+02  0.00000000000E+00 0. -1.
         -5    1    5    5    0  501  0.75779654326E+02  0.71593043226E+02  0.20425149210E+03  0.22936626141E+03  0.47000000000E+01 0.  1.
         11    1    6    6    0    0 -0.14776536756E+02 -0.18099147154E+02  0.40226442781E+02  0.46519800785E+02  0.00000000000E+00 0. -1.
        -12    1    6    6    0    0  0.47091539645E+02 -0.22827997638E+01  0.41178903835E+03  0.41447923517E+03  0.00000000000E+00 0.  1.
<mgrwt>
<rscale>  2 0.21268371E+03</rscale>
<asrwt>0</asrwt>
<pdfrwt beam="1">  1        2 0.20330109E+00 0.21268371E+03</pdfrwt>
<pdfrwt beam="2">  1       -2 0.52672563E-02 0.21268371E+03</pdfrwt>
<totfact> 0.30786003E+03</totfact>
</mgrwt>
</event>
<event>
12    1  0.4404304E-002  0.1871885E+03  0.7546771E-02  0.1161022E+00
          2   -1    0    0  502    0  0.00000000000E+00  0.00000000000E+00  0.15728834953E+04  0.15728834953E+04  0.00000000000E+00 0. -1.
         -2   -1    0    0    0  501 -0.00000000000E+00 -0.00000000000E+00 -0.24594906869E+02  0.24594906869E+02  0.00000000000E+00 0.  1.
          6    2    1    2  502    0  0.24716967919E+02 -0.69019034106E+02  0.10161567605E+04  0.10331022816E+04  0.17132193882E+03 0.  0.
         24    2    3    3    0    0  0.73656917838E+02 -0.46276419817E+02  0.48873671429E+03  0.50290765661E+03  0.80533760649E+02 0.  0.
         -6    2    1    2    0  501 -0.24716967919E+02  0.69019034106E+02  0.53213182797E+03  0.56437612063E+03  0.17315186290E+03 0.  0.
        -24    2    5    5    0    0 -0.71008083144E+02  0.49227748598E+02  0.23480235991E+03  0.26277793611E+03  0.80340378274E+02 0.  0.
          5    1    3    3  502    0 -0.48939949919E+02 -0.22742614288E+02  0.52742004620E+03  0.53019462496E+03  0.47000000000E+01 0. -1.
        -11    1    4    4    0    0  0.50592570902E+02  0.13808486766E+02  0.26287939826E+03  0.26805943476E+03  0.00000000000E+00 0.  1.
         12    1    4    4    0    0  0.23064346936E+02 -0.60084906583E+02  0.22585731604E+03  0.23484822185E+03  0.00000000000E+00 0. -1.
         -5    1    5    5    0  501  0.46291115225E+02  0.19791285508E+02  0.29732946806E+03  0.30159818452E+03  0.47000000000E+01 0.  1.
         11    1    6    6    0    0 -0.23794474680E+02  0.48263176365E+02  0.19075966705E+03  0.19820383899E+03  0.00000000000E+00 0. -1.
        -12    1    6    6    0    0 -0.47213608463E+02  0.96457223270E+00  0.44042692860E+02  0.64574097114E+02  0.00000000000E+00 0.  1.
<mgrwt>
<rscale>  2 0.18718848E+03</rscale>
<asrwt>0</asrwt>
<pdfrwt beam="1">  1        2 0.24198200E+00 0.18718848E+03</pdfrwt>
<pdfrwt beam="2">  1       -2 0.37838331E-02 0.18718848E+03</pdfrwt>
<totfact> 0.37158261E+03</totfact>
</mgrwt>
</event>
<event>
12    1  0.4404304E-002  0.1756212E+03  0.7546771E-02  0.1172109E+00
          2   -1    0    0  502    0  0.00000000000E+00  0.00000000000E+00  0.98291978432E+03  0.98291978432E+03  0.00000000000E+00 0. -1.
         -2   -1    0    0    0  501 -0.00000000000E+00 -0.00000000000E+00 -0.33062888945E+02  0.33062888945E+02  0.00000000000E+00 0.  1.
          6    2    1    2  502    0 -0.14476474317E+02 -0.27229221553E+02  0.58838576852E+03  0.61390458626E+03  0.17242398214E+03 0.  0.
         24    2    3    3    0    0 -0.73000512438E+02 -0.19887399044E+02  0.23371314910E+03  0.25433022349E+03  0.65859267083E+02 0.  0.
         -6    2    1    2    0  501  0.14476474317E+02  0.27229221553E+02  0.36147112686E+03  0.40207808701E+03  0.17336208837E+03 0.  0.
        -24    2    5    5    0    0 -0.39137373120E+02  0.27333354680E+02  0.32253242559E+03  0.33564941897E+03  0.79715247262E+02 0.  0.
          5    1    3    3  502    0  0.58524038121E+02 -0.73418225092E+01  0.35467261942E+03  0.35957436277E+03  0.47000000000E+01 0. -1.
        -13    1    4    4    0    0 -0.58733990247E+02 -0.34099079438E+02  0.21927568465E+03  0.22955229188E+03  0.00000000000E+00 0.  1.
         14    1    4    4    0    0 -0.14266522191E+02  0.14211680394E+02  0.14437464449E+02  0.24777931608E+02  0.00000000000E+00 0. -1.
         -5    1    5    5    0  501  0.53613847438E+02 -0.10413312686E+00  0.38938701269E+02  0.66428668038E+02  0.47000000000E+01 0.  1.
         11    1    6    6    0    0  0.96657367102E+01  0.25773272704E+02  0.22397042394E+03  0.22565557571E+03  0.00000000000E+00 0. -1.
        -12    1    6    6    0    0 -0.48803109831E+02  0.15600819762E+01  0.98562001657E+02  0.10999384326E+03  0.00000000000E+00 0.  1.
<mgrwt>
<rscale>  2 0.17562117E+03</rscale>
<asrwt>0</asrwt>
<pdfrwt beam="1">  1        2 0.15121841E+00 0.17562117E+03</pdfrwt>
<pdfrwt beam="2">  1       -2 0.50865990E-02 0.17562117E+03</pdfrwt>
<totfact> 0.50532952E+03</totfact>
</mgrwt>
</event>
<event>
12    1  0.4404304E-002  0.1966169E+03  0.7546771E-02  0.1152625E+00
          2   -1    0    0  502    0  0.00000000000E+00  0.00000000000E+00  0.41246931282E+03  0.41246931282E+03  0.00000000000E+00 0. -1.
         -2   -1    0    0    0  501 -0.00000000000E+00 -0.00000000000E+00 -0.10260852784E+03  0.10260852784E+03  0.00000000000E+00 0.  1.
          6    2    1    2  502    0 -0.33943901021E+02 -0.63555724957E+02  0.86872751851E+02  0.22374429445E+03  0.19319191415E+03 0.  0.
         24    2    3    3    0    0 -0.98477548237E+02 -0.43641864783E+02  0.39737871315E+02  0.14125223172E+03  0.82283988002E+02 0.  0.
         -6    2    1    2    0  501  0.33943901021E+02  0.63555724957E+02  0.22298803313E+03  0.29133354620E+03  0.17308972712E+03 0.  0.
        -24    2    5    5    0    0 -0.19358396247E+02  0.46716244207E+02  0.21476303946E+03  0.23463748349E+03  0.79840031094E+02 0.  0.
          5    1    3    3  502    0  0.64533647216E+02 -0.19913860174E+02  0.47134880535E+02  0.82492062728E+02  0.47000000000E+01 0. -1.
        -13    1    4    4    0    0 -0.87846339981E+02 -0.65539457186E+02  0.40641263385E+02  0.11689359343E+03  0.00000000000E+00 0.  1.
         14    1    4    4    0    0 -0.10631208256E+02  0.21897592404E+02 -0.90339206939E+00  0.24358638289E+02  0.00000000000E+00 0. -1.
         -5    1    5    5    0  501  0.53302297268E+02  0.16839480751E+02  0.82249936704E+01  0.56696062710E+02  0.47000000000E+01 0.  1.
         11    1    6    6    0    0  0.11456886291E+02  0.57630826578E+02  0.16449298859E+03  0.17467259577E+03  0.00000000000E+00 0. -1.
        -12    1    6    6    0    0 -0.30815282538E+02 -0.10914582371E+02  0.50270050866E+02  0.59964887729E+02  0.00000000000E+00 0.  1.
<mgrwt>
<rscale>  2 0.19661688E+03</rscale>
<asrwt>0</asrwt>
<pdfrwt beam="1">  1        2 0.63456817E-01 0.19661688E+03</pdfrwt>
<pdfrwt beam="2">  1       -2 0.15785928E-01 0.19661688E+03</pdfrwt>
<totfact> 0.23973689E+03</totfact>
</mgrwt>
</event>
<event>
12    1  0.4404304E-002  0.1743524E+03  0.7546771E-02  0.1173384E+00
          2   -1    0    0  502    0  0.00000000000E+00  0.00000000000E+00  0.53977262914E+03  0.53977262914E+03  0.00000000000E+00 0. -1.
         -2   -1    0    0    0  501 -0.00000000000E+00 -0.00000000000E+00 -0.58062850136E+02  0.58062850136E+02  0.00000000000E+00 0.  1.
          6    2    1    2  502    0 -0.83497856581E+01 -0.20051380757E+02  0.29252380479E+03  0.34048359968E+03  0.17287894173E+03 0.  0.
         24    2    3    3    0    0  0.60322150336E+02 -0.68888237153E+01  0.13309353062E+03  0.16633082186E+03  0.79157038191E+02 0.  0.
         -6    2    1    2    0  501  0.83497856581E+01  0.20051380757E+02  0.18918597421E+03  0.25735187959E+03  0.17310944601E+03 0.  0.
        -24    2    5    5    0    0  0.43209871689E+02  0.68281743862E+02  0.13427396774E+03  0.17624200363E+03  0.80636566611E+02 0.  0.
          5    1    3    3  502    0 -0.68671935994E+02 -0.13162557042E+02  0.15943027417E+03  0.17415277782E+03  0.47000000000E+01 0. -1.
        -11    1    4    4    0    0  0.46150494728E+01  0.18671781031E+02  0.88417004233E+02  0.90484809366E+02  0.00000000000E+00 0.  1.
         12    1    4    4    0    0  0.55707100863E+02 -0.25560604747E+02  0.44676526388E+02  0.75846012497E+02  0.00000000000E+00 0. -1.
         -5    1    5    5    0  501 -0.34860086031E+02 -0.48230363105E+02  0.54912006471E+02  0.81109875958E+02  0.47000000000E+01 0.  1.
         11    1    6    6    0    0 -0.11382942606E+02  0.54572276572E+02  0.83736267681E+02  0.10059556291E+03  0.00000000000E+00 0. -1.
        -12    1    6    6    0    0  0.54592814295E+02  0.13709467290E+02  0.50537700060E+02  0.75646440719E+02  0.00000000000E+00 0.  1.
<mgrwt>
<rscale>  2 0.17435239E+03</rscale>
<asrwt>0</asrwt>
<pdfrwt beam="1">  1        2 0.83041940E-01 0.17435239E+03</pdfrwt>
<pdfrwt beam="2">  1       -2 0.89327465E-02 0.17435239E+03</pdfrwt>
<totfact> 0.44346870E+03</totfact>
</mgrwt>
</event>
<event>
12    1  0.4404304E-002  0.1870196E+03  0.7546771E-02  0.1161177E+00
          1   -1    0    0  502    0  0.00000000000E+00  0.00000000000E+00  0.90374252967E+03  0.90374252967E+03  0.00000000000E+00 0.  1.
         -1   -1    0    0    0  501 -0.00000000000E+00 -0.00000000000E+00 -0.39163179929E+02  0.39163179929E+02  0.00000000000E+00 0. -1.
          6    2    1    2  502    0 -0.59824972050E+02 -0.37648536259E+02  0.38159264761E+03  0.42505046073E+03  0.17337389044E+03 0.  0.
         24    2    3    3    0    0  0.32176988140E+02 -0.39686811233E+02  0.18303750112E+03  0.20615607650E+03  0.79919956910E+02 0.  0.
         -6    2    1    2    0  501  0.59824972050E+02  0.37648536259E+02  0.48298670213E+03  0.51785524887E+03  0.17292040016E+03 0.  0.
        -24    2    5    5    0    0  0.27205593658E+02  0.33990134231E+02  0.10754602323E+03  0.14095313808E+03  0.80038531158E+02 0.  0.
          5    1    3    3  502    0 -0.92001960191E+02  0.20382749744E+01  0.19855514650E+03  0.21889438422E+03  0.47000000000E+01 0. -1.
        -11    1    4    4    0    0  0.19495944765E+02 -0.42614988042E+02  0.18681586406E+03  0.19260398784E+03  0.00000000000E+00 0.  1.
         12    1    4    4    0    0  0.12681043375E+02  0.29281768088E+01 -0.37783629446E+01  0.13552088660E+02  0.00000000000E+00 0. -1.
         -5    1    5    5    0  501  0.32619378392E+02  0.36584020277E+01  0.37544067889E+03  0.37690211079E+03  0.47000000000E+01 0.  1.
         11    1    6    6    0    0 -0.26900718168E+02  0.61620755365E+01  0.18951260020E+02  0.33477904193E+02  0.00000000000E+00 0. -1.
        -12    1    6    6    0    0  0.54106311826E+02  0.27828058695E+02  0.88594763215E+02  0.10747523389E+03  0.00000000000E+00 0.  1.
<mgrwt>
<rscale>  2 0.18701962E+03</rscale>
<asrwt>0</asrwt>
<pdfrwt beam="1">  1        1 0.13903730E+00 0.18701962E+03</pdfrwt>
<pdfrwt beam="2">  1       -1 0.60251052E-02 0.18701962E+03</pdfrwt>
<totfact> 0.25006192E+03</totfact>
</mgrwt>
</event>
<event>
12    1  0.4404304E-002  0.1939288E+03  0.7546771E-02  0.1154965E+00
          2   -1    0    0  502    0  0.00000000000E+00  0.00000000000E+00  0.22404562783E+04  0.22404562783E+04  0.00000000000E+00 0.  1.
         -2   -1    0    0    0  501 -0.00000000000E+00 -0.00000000000E+00 -0.16879596460E+02  0.16879596460E+02  0.00000000000E+00 0. -1.
          6    2    1    2  502    0  0.40459878993E+02  0.76322429857E+02  0.11971830205E+04  0.12128270039E+04  0.17389664127E+03 0.  0.
         24    2    3    3    0    0  0.92900166002E+02  0.41155889062E+02  0.88868386017E+03  0.89789766074E+03  0.78338737482E+02 0.  0.
         -6    2    1    2    0  501 -0.40459878993E+02 -0.76322429857E+02  0.10263936614E+04  0.10445088709E+04  0.17335719785E+03 0.  0.
        -24    2    5    5    0    0 -0.38881748465E+01 -0.10461889129E+03  0.53808275252E+03  0.55399096803E+03  0.80079421678E+02 0.  0.
          5    1    3    3  502    0 -0.52440287009E+02  0.35166540795E+02  0.30849916029E+03  0.31492934317E+03  0.47000000000E+01 0. -1.
        -11    1    4    4    0    0  0.56589486541E+02 -0.12285574986E+02  0.28908584736E+03  0.29482864936E+03  0.00000000000E+00 0.  1.
         12    1    4    4    0    0  0.36310679461E+02  0.53441464048E+02  0.59959801281E+03  0.60306901138E+03  0.00000000000E+00 0. -1.
         -5    1    5    5    0  501 -0.36571704146E+02  0.28296461435E+02  0.48831090890E+03  0.49051790286E+03  0.47000000000E+01 0.  1.
         13    1    6    6    0    0  0.19591725124E+02 -0.43005090429E+01  0.33906173541E+02  0.39394906721E+02  0.00000000000E+00 0. -1.
        -14    1    6    6    0    0 -0.23479899971E+02 -0.10031838225E+03  0.50417657898E+03  0.51459606131E+03  0.00000000000E+00 0.  1.
<mgrwt>
<rscale>  2 0.19392880E+03</rscale>
<asrwt>0</asrwt>
<pdfrwt beam="1">  1        2 0.34468535E+00 0.19392880E+03</pdfrwt>
<pdfrwt beam="2">  1       -2 0.25968628E-02 0.19392880E+03</pdfrwt>
<totfact> 0.29189353E+03</totfact>
</mgrwt>
</event>
<event>
12    1  0.4404304E-002  0.3361166E+03  0.7546771E-02  0.1068462E+00
          1   -1    0    0  502    0  0.00000000000E+00  0.00000000000E+00  0.26921825348E+03  0.26921825348E+03  0.00000000000E+00 0.  1.
         -1   -1    0    0    0  501 -0.00000000000E+00 -0.00000000000E+00 -0.54924541265E+03  0.54924541265E+03  0.00000000000E+00 0. -1.
          6    2    1    2  502    0  0.90895947424E+02 -0.27491833173E+03 -0.33913489371E+03  0.47821727137E+03  0.17273424712E+03 0.  0.
         24    2    3    3    0    0  0.82192650175E+02 -0.29133201510E+03 -0.29555120750E+03  0.43060651536E+03  0.80258831557E+02 0.  0.
         -6    2    1    2    0  501 -0.90895947424E+02  0.27491833173E+03  0.59107734539E+02  0.34024639476E+03  0.16861708836E+03 0.  0.
        -24    2    5    5    0    0 -0.20534412228E+02  0.48280441865E+02  0.11769879231E+02  0.98216559200E+02  0.82190627761E+02 0.  0.
          5    1    3    3  502    0  0.87032972484E+01  0.16413683377E+02 -0.43583686209E+02  0.47610756018E+02  0.47000000000E+01 0. -1.
        -13    1    4    4    0    0  0.62996659421E+01 -0.86343053661E+02 -0.13093200236E+03  0.15696495771E+03  0.00000000000E+00 0.  1.
         14    1    4    4    0    0  0.75892984233E+02 -0.20498896144E+03 -0.16461920514E+03  0.27364155764E+03  0.00000000000E+00 0. -1.
         -5    1    5    5    0  501 -0.70361535196E+02  0.22663788986E+03  0.47337855308E+02  0.24202983556E+03  0.47000000000E+01 0.  1.
         11    1    6    6    0    0  0.13096520886E+02  0.58764691128E+02  0.17101581307E+02  0.62588112816E+02  0.00000000000E+00 0. -1.
        -12    1    6    6    0    0 -0.33630933114E+02 -0.10484249262E+02 -0.53317020760E+01  0.35628446384E+02  0.00000000000E+00 0.  1.
<mgrwt>
<rscale>  2 0.33611664E+03</rscale>
<asrwt>0</asrwt>
<pdfrwt beam="1">  1        1 0.41418193E-01 0.33611664E+03</pdfrwt>
<pdfrwt beam="2">  1       -1 0.84499293E-01 0.33611664E+03</pdfrwt>
<totfact> 0.14634800E+02</totfact>
</mgrwt>
</event>
<event>
12    1  0.4404304E-002  0.2035905E+03  0.7546771E-02  0.1146745E+00
          1   -1    0    0  502    0  0.00000000000E+00  0.00000000000E+00  0.89505348480E+02  0.89505348480E+02  0.00000000000E+00 0. -1.
         -1   -1    0    0    0  501 -0.00000000000E+00 -0.00000000000E+00 -0.46327332264E+03  0.46327332264E+03  0.00000000000E+00 0.  1.
          6    2    1    2  502    0  0.86802512656E+02 -0.63900907508E+02 -0.18135227002E+03  0.27261319065E+03  0.17265950217E+03 0.  0.
         24    2    3    3    0    0  0.11754310844E+03 -0.63189912854E+02 -0.10654288952E+03  0.19159453135E+03  0.86877670941E+02 0.  0.
         -6    2    1    2    0  501 -0.86802512656E+02  0.63900907508E+02 -0.19241570414E+03  0.28016548048E+03  0.17277410415E+03 0.  0.
        -24    2    5    5    0    0 -0.27524167952E+02  0.77479327916E+02 -0.49820548355E+02  0.12507272079E+03  0.80002952273E+02 0.  0.
          5    1    3    3  502    0 -0.30740595788E+02 -0.71099465428E+00 -0.74809380500E+02  0.81018659293E+02  0.47000000000E+01 0. -1.
        -11    1    4    4    0    0 -0.56112457419E+01 -0.15984054264E+02 -0.40902103041E+02  0.44271414058E+02  0.00000000000E+00 0.  1.
         12    1    4    4    0    0  0.12315435419E+03 -0.47205858589E+02 -0.65640786477E+02  0.14732311729E+03  0.00000000000E+00 0. -1.
         -5    1    5    5    0  501 -0.59278344704E+02 -0.13578420409E+02 -0.14259515579E+03  0.15509275968E+03  0.47000000000E+01 0.  1.
         13    1    6    6    0    0  0.18159800859E+02  0.39656988191E+02  0.55072060855E+01  0.43963443888E+02  0.00000000000E+00 0. -1.
        -14    1    6    6    0    0 -0.45683968812E+02  0.37822339725E+02 -0.55327754440E+02  0.81109276905E+02  0.00000000000E+00 0.  1.
<mgrwt>
<rscale>  2 0.20359051E+03</rscale>
<asrwt>0</asrwt>
<pdfrwt beam="1">  1        1 0.13770054E-01 0.20359051E+03</pdfrwt>
<pdfrwt beam="2">  1       -1 0.71272819E-01 0.20359051E+03</pdfrwt>
<totfact> 0.86025762E+02</totfact>
</mgrwt>
</event>
<event>
12    1  0.4404304E-002  0.2172033E+03  0.7546771E-02  0.1135985E+00
         -1   -1    0    0    0  501 -0.00000000000E+00  0.00000000000E+00  0.46608097983E+03  0.46608097983E+03  0.00000000000E+00 0.  1.
          1   -1    0    0  502    0  0.00000000000E+00 -0.00000000000E+00 -0.10423783286E+03  0.10423783286E+03  0.00000000000E+00 0. -1.
          6    2    1    2  502    0  0.11084467866E+03 -0.62529148470E+02  0.13424365420E+03  0.25719187753E+03  0.17868930013E+03 0.  0.
         24    2    3    3    0    0  0.12263161917E+02  0.24800519846E+02  0.71804423032E+02  0.11136480872E+03  0.80503382093E+02 0.  0.
         -6    2    1    2    0  501 -0.11084467866E+03  0.62529148470E+02  0.22759949278E+03  0.31312693516E+03  0.17335083275E+03 0.  0.
        -24    2    5    5    0    0 -0.12133573859E+03  0.29134989241E+01  0.19954071051E+03  0.24624290664E+03  0.78027072117E+02 0.  0.
          5    1    3    3  502    0  0.98581516745E+02 -0.87329668316E+02  0.62439231163E+02  0.14582706882E+03  0.47000000000E+01 0. -1.
        -11    1    4    4    0    0  0.22107913422E+01 -0.25736351768E+02  0.48206959166E+02  0.54691483000E+02  0.00000000000E+00 0.  1.
         12    1    4    4    0    0  0.10052370574E+02  0.50536871615E+02  0.23597463866E+02  0.56673325716E+02  0.00000000000E+00 0. -1.
         -5    1    5    5    0  501  0.10491059928E+02  0.59615649545E+02  0.28058782263E+02  0.66884028521E+02  0.47000000000E+01 0.  1.
         13    1    6    6    0    0  0.36077236853E+01 -0.13309891394E+02  0.43802752641E+02  0.45922217042E+02  0.00000000000E+00 0. -1.
        -14    1    6    6    0    0 -0.12494346228E+03  0.16223390319E+02  0.15573795787E+03  0.20032068960E+03  0.00000000000E+00 0.  1.
<mgrwt>
<rscale>  2 0.21720329E+03</rscale>
<asrwt>0</asrwt>
<pdfrwt beam="2">  1        1 0.16036590E-01 0.21720329E+03</pdfrwt>
<pdfrwt beam="1">  1       -1 0.71704765E-01 0.21720329E+03</pdfrwt>
<totfact> 0.69648748E+02</totfact>
</mgrwt>
</event>
<event>
12    1  0.4404304E-002  0.2633770E+03  0.7546771E-02  0.1105131E+00
          2   -1    0    0  502    0  0.00000000000E+00  0.00000000000E+00  0.11778414976E+04  0.11778414976E+04  0.00000000000E+00 0. -1.
         -2   -1    0    0    0  501 -0.00000000000E+00 -0.00000000000E+00 -0.73450096955E+02  0.73450096955E+02  0.00000000000E+00 0.  1.
          6    2    1    2  502    0  0.19571898853E+03  0.47684499447E+02  0.82906618089E+03  0.86960076196E+03  0.16815177358E+03 0.  0.
         24    2    3    3    0    0  0.16680540409E+03  0.62454259766E+02  0.80606889834E+03  0.82953698544E+03  0.81608602085E+02 0.  0.
         -6    2    1    2    0  501 -0.19571898853E+03 -0.47684499447E+02  0.27532521973E+03  0.38169083256E+03  0.17118464033E+03 0.  0.
        -24    2    5    5    0    0 -0.73905848068E+02  0.36408308351E+02  0.14059470059E+03  0.18147983311E+03  0.79877535622E+02 0.  0.
          5    1    3    3  502    0  0.28913584444E+02 -0.14769760318E+02  0.22997282542E+02  0.40063776527E+02  0.47000000000E+01 0. -1.
        -13    1    4    4    0    0  0.42110707907E+01 -0.99073627333E+01  0.13678272054E+02  0.17406437887E+02  0.00000000000E+00 0.  1.
         14    1    4    4    0    0  0.16259433330E+03  0.72361622499E+02  0.79239062629E+03  0.81213054755E+03  0.00000000000E+00 0. -1.
         -5    1    5    5    0  501 -0.12181314046E+03 -0.84092807799E+02  0.13473051913E+03  0.20021099945E+03  0.47000000000E+01 0.  1.
         13    1    6    6    0    0 -0.78044652659E+00 -0.10732078727E+02 -0.50039486410E+01  0.11867017847E+02  0.00000000000E+00 0. -1.
        -14    1    6    6    0    0 -0.73125401541E+02  0.47140387078E+02  0.14559864923E+03  0.16961281527E+03  0.00000000000E+00 0.  1.
<mgrwt>
<rscale>  2 0.26337696E+03</rscale>
<asrwt>0</asrwt>
<pdfrwt beam="1">  1        2 0.18120637E+00 0.26337696E+03</pdfrwt>
<pdfrwt beam="2">  1       -2 0.11300016E-01 0.26337696E+03</pdfrwt>
<totfact> 0.11234423E+03</totfact>
</mgrwt>
</event>
<event>
11    1  0.4404304E-002  0.2383735E+03  0.7546771E-02  0.1120881E+00
         -1   -1    0    0    0  501 -0.00000000000E+00  0.00000000000E+00  0.26991813335E+03  0.26991813335E+03  0.00000000000E+00 0.  1.
          1   -1    0    0  502    0  0.00000000000E+00 -0.00000000000E+00 -0.21090859815E+03  0.21090859815E+03  0.00000000000E+00 0. -1.
          6    2    1    2  502    0 -0.14344324230E+03  0.81882888288E+02  0.39820257903E+02  0.24124105731E+03  0.17126244083E+03 0.  0.
         -6    2    1    2    0  501  0.14344324230E+03 -0.81882888288E+02  0.19189277294E+02  0.23958567418E+03  0.17248853804E+03 0.  0.
        -24    2    4    4    0    0  0.87139411337E+01 -0.19182662603E+00  0.85833744495E+01  0.81598366705E+02  0.80676201971E+02 0.  0.
          5    1    3    3  502    0  0.19012322385E+02  0.14526709473E+02  0.35992551789E+01  0.24648292606E+02  0.47000000000E+01 0. -1.
        -11    1    3    3    0    0  0.15928759211E+02  0.95722908100E+01  0.21628850995E+02  0.28515983530E+02  0.00000000000E+00 0.  1.
         12    1    3    3    0    0 -0.17838432390E+03  0.57783888006E+02  0.14592151730E+02  0.18807678118E+03  0.00000000000E+00 0. -1.
         -5    1    4    4    0  501  0.13472930117E+03 -0.81691061662E+02  0.10605902845E+02  0.15798730748E+03  0.47000000000E+01 0.  1.
         11    1    5    5    0    0 -0.29534204522E+01  0.90131654579E+01  0.43040412352E+02  0.44073086338E+02  0.00000000000E+00 0. -1.
        -12    1    5    5    0    0  0.11667361586E+02 -0.92049920839E+01 -0.34457037902E+02  0.37525280367E+02  0.00000000000E+00 0.  1.
<mgrwt>
<rscale>  2 0.23837353E+03</rscale>
<asrwt>0</asrwt>
<pdfrwt beam="2">  1        1 0.32447477E-01 0.23837353E+03</pdfrwt>
<pdfrwt beam="1">  1       -1 0.41525867E-01 0.23837353E+03</pdfrwt>
<totfact> 0.79232839E+02</totfact>
</mgrwt>
</event>
<event>
12    1  0.4404304E-002  0.2902245E+03  0.7546771E-02  0.1090232E+00
          2   -1    0    0  502    0  0.00000000000E+00  0.00000000000E+00  0.81980952249E+02  0.81980952249E+02  0.00000000000E+00 0.  1.
         -2   -1    0    0    0  501 -0.00000000000E+00 -0.00000000000E+00 -0.10371768831E+04  0.10371768831E+04  0.00000000000E+00 0. -1.
          6    2    1    2  502    0  0.24537554907E+02 -0.22508326225E+03 -0.42125385159E+03  0.51079628435E+03  0.17942538862E+03 0.  0.
         24    2    3    3    0    0  0.89546425815E+01 -0.40588731390E+02 -0.21290651974E+03  0.23202799390E+03  0.82341806289E+02 0.  0.
         -6    2    1    2    0  501 -0.24537554907E+02  0.22508326225E+03 -0.53394207929E+03  0.60836155103E+03  0.18369830207E+03 0.  0.
        -24    2    5    5    0    0  0.41367195029E+02  0.18290558355E+03 -0.44750372244E+03  0.49167362458E+03  0.79483798255E+02 0.  0.
          5    1    3    3  502    0  0.15582912325E+02 -0.18449453086E+03 -0.20834733185E+03  0.27876829045E+03  0.47000000000E+01 0. -1.
        -13    1    4    4    0    0  0.41691942315E+02 -0.42135584723E+02 -0.12988447089E+03  0.14277115021E+03  0.00000000000E+00 0.  1.
         14    1    4    4    0    0 -0.32737299734E+02  0.15468533335E+01 -0.83022048853E+02  0.89256843686E+02  0.00000000000E+00 0. -1.
         -5    1    5    5    0  501 -0.65904749936E+02  0.42177678703E+02 -0.86438356845E+02  0.11668792645E+03  0.47000000000E+01 0.  1.
         13    1    6    6    0    0  0.43999656699E+02  0.16707400297E+03 -0.44222892108E+03  0.47478006582E+03  0.00000000000E+00 0. -1.
        -14    1    6    6    0    0 -0.26324616692E+01  0.15831580579E+02 -0.52748013618E+01  0.16893558757E+02  0.00000000000E+00 0.  1.
<mgrwt>
<rscale>  2 0.29022450E+03</rscale>
<asrwt>0</asrwt>
<pdfrwt beam="1">  1        2 0.12612454E-01 0.29022450E+03</pdfrwt>
<pdfrwt beam="2">  1       -2 0.15956567E+00 0.29022450E+03</pdfrwt>
<totfact> 0.12975218E+02</totfact>
</mgrwt>
</event>
<event>
12    1  0.4404304E-002  0.1905901E+03  0.7546771E-02  0.1157930E+00
          3   -1    0    0  502    0  0.00000000000E+00  0.00000000000E+00  0.11207235300E+03  0.11207235300E+03  0.00000000000E+00 0. -1.
         -3   -1    0    0    0  501 -0.00000000000E+00 -0.00000000000E+00 -0.40732465243E+03  0.40732465243E+03  0.00000000000E+00 0.  1.
          6    2    1    2  502    0 -0.74919684945E+02  0.30097380653E+02 -0.26479452656E+03  0.32605656003E+03  0.17227282876E+03 0.  0.
         24    2    3    3    0    0 -0.88318088842E+01 -0.43636694638E+02 -0.11977714629E+03  0.15039651392E+03  0.79311945239E+02 0.  0.
         -6    2    1    2    0  501  0.74919684945E+02 -0.30097380653E+02 -0.30457772874E+02  0.19334044540E+03  0.17301456698E+03 0.  0.
        -24    2    5    5    0    0  0.83830414993E+02 -0.54507061244E+02 -0.69497557987E+02  0.14620841343E+03  0.80922378779E+02 0.  0.
          5    1    3    3  502    0 -0.66087876061E+02  0.73734075291E+02 -0.14501738027E+03  0.17566004611E+03  0.47000000000E+01 0. -1.
        -13    1    4    4    0    0  0.30532849341E+02 -0.64519404604E+01 -0.70840500702E+02  0.77409682626E+02  0.00000000000E+00 0.  1.
         14    1    4    4    0    0 -0.39364658225E+02 -0.37184754178E+02 -0.48936645591E+02  0.72986831292E+02  0.00000000000E+00 0. -1.
         -5    1    5    5    0  501 -0.89107300476E+01  0.24409680591E+02  0.39039785113E+02  0.47132031977E+02  0.47000000000E+01 0.  1.
         11    1    6    6    0    0  0.10954955164E+02 -0.51413601737E+02 -0.45195788264E+02  0.69325527499E+02  0.00000000000E+00 0. -1.
        -12    1    6    6    0    0  0.72875459828E+02 -0.30934595073E+01 -0.24301769723E+02  0.76882885928E+02  0.00000000000E+00 0.  1.
<mgrwt>
<rscale>  2 0.19059006E+03</rscale>
<asrwt>0</asrwt>
<pdfrwt beam="1">  1        3 0.17241900E-01 0.19059006E+03</pdfrwt>
<pdfrwt beam="2">  1       -3 0.62665332E-01 0.19059006E+03</pdfrwt>
<totfact> 0.17807604E+02</totfact>
</mgrwt>
</event>
<event>
12    1  0.4404304E-002  0.1870876E+03  0.7546771E-02  0.1161115E+00
          1   -1    0    0  502    0  0.00000000000E+00  0.00000000000E+00  0.21398851769E+03  0.21398851769E+03  0.00000000000E+00 0.  1.
         -1   -1    0    0    0  501 -0.00000000000E+00 -0.00000000000E+00 -0.16721871353E+03  0.16721871353E+03  0.00000000000E+00 0. -1.
          6    2    1    2  502    0  0.43529099787E+02  0.55084579911E+02  0.51557928402E+02  0.19415454192E+03  0.17351850821E+03 0.  0.
         24    2    3    3    0    0  0.21664359182E+02 -0.28297410849E+02  0.60603448930E+02  0.10735284431E+03  0.81128091563E+02 0.  0.
         -6    2    1    2    0  501 -0.43529099787E+02 -0.55084579911E+02 -0.47881242402E+01  0.18705268931E+03  0.17331096033E+03 0.  0.
        -24    2    5    5    0    0  0.13033370762E+01  0.26345922320E+02 -0.20792896654E+02  0.92611613348E+02  0.86306199460E+02 0.  0.
          5    1    3    3  502    0  0.21864740606E+02  0.83381990760E+02 -0.90455205284E+01  0.86801697601E+02  0.47000000000E+01 0. -1.
        -13    1    4    4    0    0 -0.26924737591E+01  0.99730263766E+01  0.61119206977E+02  0.61986031745E+02  0.00000000000E+00 0.  1.
         14    1    4    4    0    0  0.24356832941E+02 -0.38270437225E+02 -0.51575804700E+00  0.45366812569E+02  0.00000000000E+00 0. -1.
         -5    1    5    5    0  501 -0.44832436864E+02 -0.81430502231E+02  0.16004772414E+02  0.94441075961E+02  0.47000000000E+01 0.  1.
         11    1    6    6    0    0  0.26357169341E+02 -0.11824109807E+02 -0.34446097324E+02  0.44956018165E+02  0.00000000000E+00 0. -1.
        -12    1    6    6    0    0 -0.25053832265E+02  0.38170032127E+02  0.13653200670E+02  0.47655595183E+02  0.00000000000E+00 0.  1.
<mgrwt>
<rscale>  2 0.18708756E+03</rscale>
<asrwt>0</asrwt>
<pdfrwt beam="1">  1        1 0.32921310E-01 0.18708756E+03</pdfrwt>
<pdfrwt beam="2">  1       -1 0.25725956E-01 0.18708756E+03</pdfrwt>
<totfact> 0.17655892E+03</totfact>
</mgrwt>
</event>
<event>
12    1  0.4404304E-002  0.2351410E+03  0.7546771E-02  0.1123073E+00
          2   -1    0    0  502    0  0.00000000000E+00  0.00000000000E+00  0.52785798522E+03  0.52785798522E+03  0.00000000000E+00 0.  1.
         -2   -1    0    0    0  501 -0.00000000000E+00 -0.00000000000E+00 -0.17703919724E+03  0.17703919724E+03  0.00000000000E+00 0. -1.
          6    2    1    2  502    0  0.12045983252E+03  0.10480252787E+03  0.40079281439E+03  0.46486614223E+03  0.17312281488E+03 0.  0.
         24    2    3    3    0    0  0.27031758076E+02  0.40412063198E+02  0.29448998806E+03  0.30931127114E+03  0.81149606223E+02 0.  0.
         -6    2    1    2    0  501 -0.12045983252E+03 -0.10480252787E+03 -0.49974026408E+02  0.24003104024E+03  0.17211436855E+03 0.  0.
        -24    2    5    5    0    0 -0.14857013699E+03 -0.65348889353E+02 -0.58351703593E+02  0.19064425774E+03  0.81220371536E+02 0.  0.
          5    1    3    3  502    0  0.93428074443E+02  0.64390464674E+02  0.10630282632E+03  0.15555487109E+03  0.47000000000E+01 0. -1.
        -13    1    4    4    0    0  0.16434263168E+02 -0.24116401315E+02  0.87735570314E+02  0.92461971191E+02  0.00000000000E+00 0.  1.
         14    1    4    4    0    0  0.10597494908E+02  0.64528464513E+02  0.20675441775E+03  0.21684929995E+03  0.00000000000E+00 0. -1.
         -5    1    5    5    0  501  0.28110304474E+02 -0.39453638519E+02  0.83776771852E+01  0.49386782493E+02  0.47000000000E+01 0.  1.
         11    1    6    6    0    0 -0.11781921943E+03 -0.81472587208E+02 -0.61273602568E+02  0.15579988865E+03  0.00000000000E+00 0. -1.
        -12    1    6    6    0    0 -0.30750917563E+02  0.16123697855E+02  0.29218989747E+01  0.34844369088E+02  0.00000000000E+00 0.  1.
<mgrwt>
<rscale>  2 0.23514102E+03</rscale>
<asrwt>0</asrwt>
<pdfrwt beam="1">  1        2 0.81208920E-01 0.23514102E+03</pdfrwt>
<pdfrwt beam="2">  1       -2 0.27236800E-01 0.23514102E+03</pdfrwt>
<totfact> 0.71626381E+02</totfact>
</mgrwt>
</event>
<event>
12    1  0.4404304E-002  0.2900828E+03  0.7546771E-02  0.1090306E+00
         -2   -1    0    0    0  501 -0.00000000000E+00  0.00000000000E+00  0.45458696540E+03  0.45458696540E+03  0.00000000000E+00 0.  1.
          2   -1    0    0  502    0  0.00000000000E+00 -0.00000000000E+00 -0.20319582030E+03  0.20319582030E+03  0.00000000000E+00 0. -1.
          6    2    1    2  502    0  0.16733947046E+02  0.23208256018E+03  0.22396134944E+03  0.36676354901E+03  0.17382311444E+03 0.  0.
         24    2    3    3    0    0  0.15944712429E+02  0.15998076055E+03  0.23333361194E+03  0.29389914270E+03  0.78000346298E+02 0.  0.
         -6    2    1    2    0  501 -0.16733947046E+02 -0.23208256018E+03  0.27429795662E+02  0.29101923669E+03  0.17261941579E+03 0.  0.
        -24    2    5    5    0    0 -0.10210811747E+02 -0.18495728235E+03  0.82388721279E+02  0.21817751368E+03  0.80623006100E+02 0.  0.
          5    1    3    3  502    0  0.78923461716E+00  0.72101799638E+02 -0.93722624964E+01  0.72864406308E+02  0.47000000000E+01 0. -1.
        -11    1    4    4    0    0  0.32946384403E+02  0.59175214918E+02  0.50708371337E+02  0.84607973794E+02  0.00000000000E+00 0.  1.
         12    1    4    4    0    0 -0.17001671974E+02  0.10080554563E+03  0.18262524060E+03  0.20929116891E+03  0.00000000000E+00 0. -1.
         -5    1    5    5    0  501 -0.65231352994E+01 -0.47125277837E+02 -0.54958925618E+02  0.72841723005E+02  0.47000000000E+01 0.  1.
         11    1    6    6    0    0  0.23974865054E+02 -0.97150868568E+02  0.12461189389E+02  0.10083831940E+03  0.00000000000E+00 0. -1.
        -12    1    6    6    0    0 -0.34185676801E+02 -0.87806413779E+02  0.69927531890E+02  0.11733919428E+03  0.00000000000E+00 0.  1.
<mgrwt>
<rscale>  2 0.29008283E+03</rscale>
<asrwt>0</asrwt>
<pdfrwt beam="2">  1        2 0.31260895E-01 0.29008283E+03</pdfrwt>
<pdfrwt beam="1">  1       -2 0.69936456E-01 0.29008283E+03</pdfrwt>
<totfact> 0.32162286E+02</totfact>
</mgrwt>
</event>
<event>
12    1  0.4404304E-002  0.1733552E+03  0.7546771E-02  0.1174393E+00
         -1   -1    0    0    0  501 -0.00000000000E+00  0.00000000000E+00  0.64540844446E+03  0.64540844446E+03  0.00000000000E+00 0.  1.
          1   -1    0    0  502    0  0.00000000000E+00 -0.00000000000E+00 -0.51462317103E+02  0.51462317103E+02  0.00000000000E+00 0. -1.
          6    2    1    2  502    0  0.11579732164E+02  0.95930854403E+01  0.40640296067E+03  0.44232821766E+03  0.17396772175E+03 0.  0.
         24    2    3    3    0    0  0.11706351262E+02 -0.58294503910E+02  0.19001314079E+03  0.21549042326E+03  0.82436891002E+02 0.  0.
         -6    2    1    2    0  501 -0.11579732164E+02 -0.95930854403E+01  0.18754316668E+03  0.25454254390E+03  0.17144488852E+03 0.  0.
        -24    2    5    5    0    0 -0.42323551182E+02 -0.36522281215E+02  0.48188511514E+02  0.10924225515E+03  0.80539292641E+02 0.  0.
          5    1    3    3  502    0 -0.12661909828E+00  0.67887589351E+02  0.21638981988E+03  0.22683779440E+03  0.47000000000E+01 0. -1.
        -11    1    4    4    0    0 -0.16443920191E+02 -0.29804987251E+02  0.17280562440E+02  0.38175353496E+02  0.00000000000E+00 0.  1.
         12    1    4    4    0    0  0.28150271453E+02 -0.28489516660E+02  0.17273257835E+03  0.17731506977E+03  0.00000000000E+00 0. -1.
         -5    1    5    5    0  501  0.30743819018E+02  0.26929195775E+02  0.13935465517E+03  0.14530028875E+03  0.47000000000E+01 0.  1.
         11    1    6    6    0    0  0.17927952613E+02 -0.29708040581E+02  0.30184957294E+02  0.45990333842E+02  0.00000000000E+00 0. -1.
        -12    1    6    6    0    0 -0.60251503795E+02 -0.68142406340E+01  0.18003554221E+02  0.63251921311E+02  0.00000000000E+00 0.  1.
<mgrwt>
<rscale>  2 0.17335518E+03</rscale>
<asrwt>0</asrwt>
<pdfrwt beam="2">  1        1 0.79172800E-02 0.17335518E+03</pdfrwt>
<pdfrwt beam="1">  1       -1 0.99293601E-01 0.17335518E+03</pdfrwt>
<totfact> 0.89585338E+02</totfact>
</mgrwt>
</event>
<event>
12    1  0.4404304E-002  0.3640560E+03  0.7546771E-02  0.1056989E+00
         -1   -1    0    0    0  501 -0.00000000000E+00  0.00000000000E+00  0.14797404421E+03  0.14797404421E+03  0.00000000000E+00 0. -1.
          1   -1    0    0  502    0  0.00000000000E+00 -0.00000000000E+00 -0.11102092394E+04  0.11102092394E+04  0.00000000000E+00 0.  1.
          6    2    1    2  502    0 -0.23633492079E+03  0.21587105590E+03 -0.75761327175E+03  0.84052606119E+03  0.17335421093E+03 0.  0.
         24    2    3    3    0    0 -0.23727016202E+03  0.13845211799E+03 -0.57882669224E+03  0.64563815075E+03  0.79637700212E+02 0.  0.
         -6    2    1    2    0  501  0.23633492079E+03 -0.21587105590E+03 -0.20462192344E+03  0.41765722241E+03  0.17353073594E+03 0.  0.
        -24    2    5    5    0    0  0.15901867261E+03 -0.10992387472E+03 -0.19556707415E+03  0.28610233755E+03  0.78980191128E+02 0.  0.
          5    1    3    3  502    0  0.93524122454E+00  0.77418937906E+02 -0.17878657951E+03  0.19488791044E+03  0.47000000000E+01 0. -1.
        -11    1    4    4    0    0 -0.23394013907E+03  0.14284574587E+03 -0.57845604595E+03  0.64011271888E+03  0.00000000000E+00 0.  1.
         12    1    4    4    0    0 -0.33300229510E+01 -0.43936278712E+01 -0.37064629602E+00  0.55254318747E+01  0.00000000000E+00 0. -1.
         -5    1    5    5    0  501  0.77316248183E+02 -0.10594718118E+03 -0.90548492907E+01  0.13155488486E+03  0.47000000000E+01 0.  1.
         13    1    6    6    0    0  0.14374895662E+02 -0.46550811959E+02 -0.29581651673E+02  0.56997279190E+02  0.00000000000E+00 0. -1.
        -14    1    6    6    0    0  0.14464377695E+03 -0.63373062759E+02 -0.16598542247E+03  0.22910505836E+03  0.00000000000E+00 0.  1.
<mgrwt>
<rscale>  2 0.36405604E+03</rscale>
<asrwt>0</asrwt>
<pdfrwt beam="2">  1        1 0.17080142E+00 0.36405604E+03</pdfrwt>
<pdfrwt beam="1">  1       -1 0.22765238E-01 0.36405604E+03</pdfrwt>
<totfact> 0.21488067E+02</totfact>
</mgrwt>
</event>
<event>
12    1  0.4404304E-002  0.2901581E+03  0.7546771E-02  0.1090267E+00
         -2   -1    0    0    0  501 -0.00000000000E+00  0.00000000000E+00  0.32201622136E+03  0.32201622136E+03  0.00000000000E+00 0.  1.
          2   -1    0    0  502    0  0.00000000000E+00 -0.00000000000E+00 -0.26512351843E+03  0.26512351843E+03  0.00000000000E+00 0. -1.
          6    2    1    2  502    0  0.22926481600E+03 -0.49022843660E+02  0.63082381272E+02  0.29801072197E+03  0.17281611189E+03 0.  0.
         24    2    3    3    0    0  0.15573144963E+03  0.45200919265E+01  0.97482850077E+02  0.20064807937E+03  0.80523475211E+02 0.  0.
         -6    2    1    2    0  501 -0.22926481600E+03  0.49022843660E+02 -0.61896783411E+01  0.28912901782E+03  0.16909075010E+03 0.  0.
        -24    2    5    5    0    0 -0.35582313336E+02  0.19283998286E+02 -0.17225342459E+02  0.92809923879E+02  0.81725124261E+02 0.  0.
          5    1    3    3  502    0  0.73533366369E+02 -0.53542935586E+02 -0.34400468805E+02  0.97362642604E+02  0.47000000000E+01 0. -1.
        -11    1    4    4    0    0  0.81092072754E+02 -0.13627404583E+00  0.43540294573E+01  0.81208992154E+02  0.00000000000E+00 0.  1.
         12    1    4    4    0    0  0.74639376877E+02  0.46563659723E+01  0.93128820620E+02  0.11943908721E+03  0.00000000000E+00 0. -1.
         -5    1    5    5    0  501 -0.19368250266E+03  0.29738845373E+02  0.11035664118E+02  0.19631909394E+03  0.47000000000E+01 0.  1.
         11    1    6    6    0    0 -0.38874879787E+02  0.24720717306E+01 -0.45409297149E+02  0.59827850410E+02  0.00000000000E+00 0. -1.
        -12    1    6    6    0    0  0.32925664512E+01  0.16811926556E+02  0.28183954690E+02  0.32982073469E+02  0.00000000000E+00 0.  1.
<mgrwt>
<rscale>  2 0.29015811E+03</rscale>
<asrwt>0</asrwt>
<pdfrwt beam="2">  1        2 0.40788234E-01 0.29015811E+03</pdfrwt>
<pdfrwt beam="1">  1       -2 0.49540957E-01 0.29015811E+03</pdfrwt>
<totfact> 0.49148129E+02</totfact>
</mgrwt>
</event>
<event>
12    1  0.4404304E-002  0.1954375E+03  0.7546771E-02  0.1153646E+00
          2   -1    0    0  502    0  0.00000000000E+00  0.00000000000E+00  0.90730809134E+03  0.90730809134E+03  0.00000000000E+00 0.  1.
         -2   -1    0    0    0  501 -0.00000000000E+00 -0.00000000000E+00 -0.72166775041E+02  0.72166775041E+02  0.00000000000E+00 0. -1.
          6    2    1    2  502    0 -0.35583672213E+02 -0.66602411156E+02  0.72967974041E+03  0.75459643765E+03  0.17686486721E+03 0.  0.
         24    2    3    3    0    0  0.21137331086E+01 -0.34682648690E+02  0.67563758318E+03  0.68123016228E+03  0.79881388353E+02 0.  0.
         -6    2    1    2    0  501  0.35583672213E+02  0.66602411156E+02  0.10546157589E+03  0.22487842873E+03  0.18370107462E+03 0.  0.
        -24    2    5    5    0    0  0.69779634721E+02  0.81751710061E+02  0.25103245354E+02  0.13611798486E+03  0.79657977350E+02 0.  0.
          5    1    3    3  502    0 -0.37697405322E+02 -0.31919762466E+02  0.54042157224E+02  0.73366275368E+02  0.47000000000E+01 0. -1.
        -13    1    4    4    0    0 -0.13910318240E+02  0.12972137628E+02  0.43404749378E+03  0.43446403783E+03  0.00000000000E+00 0.  1.
         14    1    4    4    0    0  0.16024051349E+02 -0.47654786318E+02  0.24159008940E+03  0.24676612445E+03  0.00000000000E+00 0. -1.
         -5    1    5    5    0  501 -0.34195962508E+02 -0.15149298905E+02  0.80358330535E+02  0.88760443868E+02  0.47000000000E+01 0.  1.
         13    1    6    6    0    0  0.82409198633E+02  0.55681838120E+02  0.35106646423E+02  0.10547141669E+03  0.00000000000E+00 0. -1.
        -14    1    6    6    0    0 -0.12629563912E+02  0.26069871941E+02 -0.10003401069E+02  0.30646568169E+02  0.00000000000E+00 0.  1.
<mgrwt>
<rscale>  2 0.19543754E+03</rscale>
<asrwt>0</asrwt>
<pdfrwt beam="1">  1        2 0.13958585E+00 0.19543754E+03</pdfrwt>
<pdfrwt beam="2">  1       -2 0.11102581E-01 0.19543754E+03</pdfrwt>
<totfact> 0.16815545E+03</totfact>
</mgrwt>
</event>
<event>
12    1  0.4404304E-002  0.2334008E+03  0.7546771E-02  0.1124269E+00
         -1   -1    0    0    0  501 -0.00000000000E+00  0.00000000000E+00  0.18379800574E+03  0.18379800574E+03  0.00000000000E+00 0.  1.
          1   -1    0    0  502    0  0.00000000000E+00 -0.00000000000E+00 -0.12368221867E+04  0.12368221867E+04  0.00000000000E+00 0. -1.
          6    2    1    2  502    0  0.13844801131E+03  0.77525571357E+02  0.93333933039E+02  0.25056985369E+03  0.16998812450E+03 0.  0.
         24    2    3    3    0    0  0.34102880300E+02 -0.25256297364E+01 -0.19390036598E+01  0.88104092281E+02  0.81173801754E+02 0.  0.
         -6    2    1    2    0  501 -0.13844801131E+03 -0.77525571357E+02 -0.11463581140E+04  0.11700503387E+04  0.17234501333E+03 0.  0.
        -24    2    5    5    0    0 -0.67076633697E+02 -0.75703535945E+02 -0.98508727858E+03  0.99362027976E+03  0.81572138600E+02 0.  0.
          5    1    3    3  502    0  0.10434513101E+03  0.80051201093E+02  0.95272936699E+02  0.16246576141E+03  0.47000000000E+01 0. -1.
        -13    1    4    4    0    0  0.10308124424E+02 -0.33451644819E+02  0.22917763444E+02  0.41838903565E+02  0.00000000000E+00 0.  1.
         14    1    4    4    0    0  0.23794755876E+02  0.30926015083E+02 -0.24856767104E+02  0.46265188716E+02  0.00000000000E+00 0. -1.
         -5    1    5    5    0  501 -0.71371377616E+02 -0.18220354119E+01 -0.16127083541E+03  0.17643005898E+03  0.47000000000E+01 0.  1.
         13    1    6    6    0    0 -0.47349974536E+01  0.15172304104E+02 -0.63136869580E+02  0.65106707129E+02  0.00000000000E+00 0. -1.
        -14    1    6    6    0    0 -0.62341636243E+02 -0.90875840049E+02 -0.92195040899E+03  0.92851357263E+03  0.00000000000E+00 0.  1.
<mgrwt>
<rscale>  2 0.23340085E+03</rscale>
<asrwt>0</asrwt>
<pdfrwt beam="2">  1        1 0.19028034E+00 0.23340085E+03</pdfrwt>
<pdfrwt beam="1">  1       -1 0.28276616E-01 0.23340085E+03</pdfrwt>
<totfact> 0.12446598E+02</totfact>
</mgrwt>
</event>
<event>
12    1  0.4404304E-002  0.1950707E+03  0.7546771E-02  0.1153966E+00
          1   -1    0    0  502    0  0.00000000000E+00  0.00000000000E+00  0.10188949808E+04  0.10188949808E+04  0.00000000000E+00 0. -1.
         -1   -1    0    0    0  501 -0.00000000000E+00 -0.00000000000E+00 -0.41654730752E+02  0.41654730752E+02  0.00000000000E+00 0.  1.
          6    2    1    2  502    0 -0.86551418842E+02 -0.25235230124E+02  0.31850479774E+03  0.37359024933E+03  0.17319469758E+03 0.  0.
         24    2    3    3    0    0 -0.12356000731E+03  0.16085223343E+01  0.24952704239E+03  0.29070331792E+03  0.83516533776E+02 0.  0.
         -6    2    1    2    0  501  0.86551418842E+02  0.25235230124E+02  0.65873545233E+03  0.68695946224E+03  0.17278003839E+03 0.  0.
        -24    2    5    5    0    0  0.86712921826E+02  0.67107061839E+02  0.59666930062E+03  0.61194230712E+03  0.80228700492E+02 0.  0.
          5    1    3    3  502    0  0.37008588464E+02 -0.26843752458E+02  0.68977755344E+02  0.82886931409E+02  0.47000000000E+01 0. -1.
        -11    1    4    4    0    0 -0.11244563918E+03 -0.90311269071E+00  0.13538590190E+03  0.17599482895E+03  0.00000000000E+00 0.  1.
         12    1    4    4    0    0 -0.11114368129E+02  0.25116350250E+01  0.11414114049E+03  0.11470848897E+03  0.00000000000E+00 0. -1.
         -5    1    5    5    0  501 -0.16150298359E+00 -0.41871831715E+02  0.62066151707E+02  0.75017155118E+02  0.47000000000E+01 0.  1.
         11    1    6    6    0    0 -0.15080995832E+02  0.11949799470E+02  0.11166653120E+03  0.11331217204E+03  0.00000000000E+00 0. -1.
        -12    1    6    6    0    0  0.10179391766E+03  0.55157262369E+02  0.48500276942E+03  0.49863013508E+03  0.00000000000E+00 0.  1.
<mgrwt>
<rscale>  2 0.19507068E+03</rscale>
<asrwt>0</asrwt>
<pdfrwt beam="1">  1        1 0.15675306E+00 0.19507068E+03</pdfrwt>
<pdfrwt beam="2">  1       -1 0.64084209E-02 0.19507068E+03</pdfrwt>
<totfact> 0.18666239E+03</totfact>
</mgrwt>
</event>
<event>
12    1  0.4404304E-002  0.1655649E+03  0.7546771E-02  0.1182553E+00
         -2   -1    0    0    0  501 -0.00000000000E+00  0.00000000000E+00  0.25770490944E+03  0.25770490944E+03  0.00000000000E+00 0.  1.
          2   -1    0    0  502    0  0.00000000000E+00 -0.00000000000E+00 -0.26376473482E+03  0.26376473482E+03  0.00000000000E+00 0. -1.
          6    2    1    2  502    0  0.26926503273E+02 -0.17442016435E+02  0.19835528863E+03  0.25601923594E+03  0.15865613171E+03 0.  0.
         24    2    3    3    0    0 -0.34462157350E+02 -0.34742206471E+01  0.64065653812E+02  0.10762967098E+03  0.79246625023E+02 0.  0.
         -6    2    1    2    0  501 -0.26926503273E+02  0.17442016435E+02 -0.20441511401E+03  0.26545040831E+03  0.16628024513E+03 0.  0.
        -24    2    5    5    0    0  0.15395188402E+02 -0.43066237996E+02 -0.12276951457E+03  0.15526661482E+03  0.83328598259E+02 0.  0.
          5    1    3    3  502    0  0.61388660623E+02 -0.13967795788E+02  0.13428963482E+03  0.14838956497E+03  0.47000000000E+01 0. -1.
        -11    1    4    4    0    0 -0.30518363005E+02 -0.32491718420E+02  0.64424946030E+02  0.78343193179E+02  0.00000000000E+00 0.  1.
         12    1    4    4    0    0 -0.39437943453E+01  0.29017497773E+02 -0.35929221791E+00  0.29286477797E+02  0.00000000000E+00 0. -1.
         -5    1    5    5    0  501 -0.42321691675E+02  0.60508254430E+02 -0.81645599438E+02  0.11018379349E+03  0.47000000000E+01 0.  1.
         13    1    6    6    0    0  0.94757084579E+01  0.17537785713E+02 -0.75762424931E+02  0.78340972741E+02  0.00000000000E+00 0. -1.
        -14    1    6    6    0    0  0.59194799440E+01 -0.60604023709E+02 -0.47007089640E+02  0.76925642076E+02  0.00000000000E+00 0.  1.
<mgrwt>
<rscale>  2 0.16556489E+03</rscale>
<asrwt>0</asrwt>
<pdfrwt beam="2">  1        2 0.40579190E-01 0.16556489E+03</pdfrwt>
<pdfrwt beam="1">  1       -2 0.39646909E-01 0.16556489E+03</pdfrwt>
<totfact> 0.76007548E+02</totfact>
</mgrwt>
</event>
<event>
12    1  0.4404304E-002  0.2445229E+03  0.7546771E-02  0.1116816E+00
         -2   -1    0    0    0  501 -0.00000000000E+00  0.00000000000E+00  0.83277038206E+02  0.83277038206E+02  0.00000000000E+00 0. -1.
          2   -1    0    0  502    0  0.00000000000E+00 -0.00000000000E+00 -0.74172414364E+03  0.74172414364E+03  0.00000000000E+00 0.  1.
          6    2    1    2  502    0  0.15394912794E+03  0.76817938173E+02 -0.40240236337E+03  0.47062483103E+03  0.17308593218E+03 0.  0.
         24    2    3    3    0    0  0.68775941292E+02  0.60838476893E+02 -0.34508101611E+03  0.36661693826E+03  0.83039878189E+02 0.  0.
         -6    2    1    2    0  501 -0.15394912794E+03 -0.76817938173E+02 -0.25604474206E+03  0.35437635082E+03  0.17442006324E+03 0.  0.
        -24    2    5    5    0    0 -0.12997723888E+03 -0.12094991015E+03 -0.19581694152E+03  0.27581579854E+03  0.78785257148E+02 0.  0.
          5    1    3    3  502    0  0.85173186644E+02  0.15979461280E+02 -0.57321347253E+02  0.10400789276E+03  0.47000000000E+01 0. -1.
        -13    1    4    4    0    0  0.14420481461E+02  0.38791793795E+02 -0.26001726387E+03  0.26329020312E+03  0.00000000000E+00 0.  1.
         14    1    4    4    0    0  0.54355459831E+02  0.22046683097E+02 -0.85063752248E+02  0.10332673514E+03  0.00000000000E+00 0. -1.
         -5    1    5    5    0  501 -0.23971889059E+02  0.44131971981E+02 -0.60227800540E+02  0.78560552276E+02  0.47000000000E+01 0.  1.
         13    1    6    6    0    0 -0.48615701799E+01 -0.11759293941E+02  0.63246174494E+01  0.14209737664E+02  0.00000000000E+00 0. -1.
        -14    1    6    6    0    0 -0.12511566870E+03 -0.10919061621E+03 -0.20214155897E+03  0.26160606088E+03  0.00000000000E+00 0.  1.
<mgrwt>
<rscale>  2 0.24452286E+03</rscale>
<asrwt>0</asrwt>
<pdfrwt beam="2">  1        2 0.11411141E+00 0.24452286E+03</pdfrwt>
<pdfrwt beam="1">  1       -2 0.12811852E-01 0.24452286E+03</pdfrwt>
<totfact> 0.17317181E+03</totfact>
</mgrwt>
</event>
<event>
12    1  0.4404304E-002  0.2168774E+03  0.7546771E-02  0.1136233E+00
          2   -1    0    0  502    0  0.00000000000E+00  0.00000000000E+00  0.59893831999E+03  0.59893831999E+03  0.00000000000E+00 0. -1.
         -2   -1    0    0    0  501 -0.00000000000E+00 -0.00000000000E+00 -0.79955835500E+02  0.79955835500E+02  0.00000000000E+00 0.  1.
          6    2    1    2  502    0 -0.12986684824E+03 -0.64867320951E+01  0.21350588894E+03  0.30391476063E+03  0.17283501136E+03 0.  0.
         24    2    3    3    0    0 -0.13706327355E+03 -0.46305885382E+02  0.20338462374E+03  0.26193996444E+03  0.79477442225E+02 0.  0.
         -6    2    1    2    0  501  0.12986684824E+03  0.64867320951E+01  0.30547659555E+03  0.37497939485E+03  0.17431615007E+03 0.  0.
        -24    2    5    5    0    0  0.55529961790E+02  0.16335419824E+02  0.27717412824E+03  0.29469185539E+03  0.81653963005E+02 0.  0.
          5    1    3    3  502    0  0.71964253108E+01  0.39819153287E+02  0.10121265205E+02  0.41974796189E+02  0.47000000000E+01 0. -1.
        -13    1    4    4    0    0 -0.11859053185E+03 -0.59512292053E+02  0.13253082758E+03  0.18753625625E+03  0.00000000000E+00 0.  1.
         14    1    4    4    0    0 -0.18472741701E+02  0.13206406671E+02  0.70853796152E+02  0.74403708189E+02  0.00000000000E+00 0. -1.
         -5    1    5    5    0  501  0.74336886449E+02 -0.98486877290E+01  0.28302467310E+02  0.80287539461E+02  0.47000000000E+01 0.  1.
         13    1    6    6    0    0  0.76012281415E+02  0.54223404512E+01  0.22596917326E+03  0.23847292502E+03  0.00000000000E+00 0. -1.
        -14    1    6    6    0    0 -0.20482319625E+02  0.10913079373E+02  0.51204954975E+02  0.56218930376E+02  0.00000000000E+00 0.  1.
<mgrwt>
<rscale>  2 0.21687739E+03</rscale>
<asrwt>0</asrwt>
<pdfrwt beam="1">  1        2 0.92144354E-01 0.21687739E+03</pdfrwt>
<pdfrwt beam="2">  1       -2 0.12300898E-01 0.21687739E+03</pdfrwt>
<totfact> 0.23841590E+03</totfact>
</mgrwt>
</event>
<event>
12    1  0.4404304E-002  0.1773158E+03  0.7546771E-02  0.1170426E+00
          1   -1    0    0  502    0  0.00000000000E+00  0.00000000000E+00  0.10779693123E+03  0.10779693123E+03  0.00000000000E+00 0. -1.
         -1   -1    0    0    0  501 -0.00000000000E+00 -0.00000000000E+00 -0.30569340374E+03  0.30569340374E+03  0.00000000000E+00 0.  1.
          6    2    1    2  502    0 -0.19092364086E+02 -0.12473885083E+02 -0.14171452472E+03  0.22494060068E+03  0.17319108274E+03 0.  0.
         24    2    3    3    0    0  0.43009655285E+02  0.16864881950E+02 -0.11531133316E+03  0.15120700870E+03  0.86212535259E+02 0.  0.
         -6    2    1    2    0  501  0.19092364086E+02  0.12473885083E+02 -0.56181947791E+02  0.18854973429E+03  0.17853424005E+03 0.  0.
        -24    2    5    5    0    0 -0.53033571194E+02 -0.20983378473E+02 -0.40411512364E+02  0.10735653471E+03  0.81482963670E+02 0.  0.
          5    1    3    3  502    0 -0.62102019370E+02 -0.29338767033E+02 -0.26403191565E+02  0.73733591976E+02  0.47000000000E+01 0. -1.
        -11    1    4    4    0    0  0.38931645934E+02  0.43465862645E+02 -0.38731961991E+02  0.70036555814E+02  0.00000000000E+00 0.  1.
         12    1    4    4    0    0  0.40780093510E+01 -0.26600980695E+02 -0.76579371166E+02  0.81170452890E+02  0.00000000000E+00 0. -1.
         -5    1    5    5    0  501  0.72125935279E+02  0.33457263556E+02 -0.15770435427E+02  0.81193199581E+02  0.47000000000E+01 0.  1.
         11    1    6    6    0    0 -0.34050524048E+02 -0.50426313688E+02 -0.11474233527E+02  0.61918570196E+02  0.00000000000E+00 0. -1.
        -12    1    6    6    0    0 -0.18983047146E+02  0.29442935215E+02 -0.28937278838E+02  0.45437964518E+02  0.00000000000E+00 0.  1.
<mgrwt>
<rscale>  2 0.17731579E+03</rscale>
<asrwt>0</asrwt>
<pdfrwt beam="1">  1        1 0.16584143E-01 0.17731579E+03</pdfrwt>
<pdfrwt beam="2">  1       -1 0.47029754E-01 0.17731579E+03</pdfrwt>
<totfact> 0.14836446E+03</totfact>
</mgrwt>
</event>
<event>
12    1  0.4404304E-002  0.2155461E+03  0.7546771E-02  0.1137248E+00
          4   -1    0    0  502    0  0.00000000000E+00  0.00000000000E+00  0.34534433217E+03  0.34534433217E+03  0.00000000000E+00 0. -1.
         -4   -1    0    0    0  501 -0.00000000000E+00 -0.00000000000E+00 -0.16663040336E+03  0.16663040336E+03  0.00000000000E+00 0.  1.
          6    2    1    2  502    0  0.13065537576E+03  0.21218773788E+02  0.20289783984E+03  0.29883469565E+03  0.17496736363E+03 0.  0.
         24    2    3    3    0    0  0.31267956908E+02 -0.47023119753E+02  0.10134887165E+03  0.14113530439E+03  0.80366171005E+02 0.  0.
         -6    2    1    2    0  501 -0.13065537576E+03 -0.21218773788E+02 -0.24183911027E+02  0.21314003988E+03  0.16529595117E+03 0.  0.
        -24    2    5    5    0    0 -0.39802367897E+02  0.28353212086E+02 -0.51659801496E+02  0.10595484791E+03  0.78546556758E+02 0.  0.
          5    1    3    3  502    0  0.99387418854E+02  0.68241893540E+02  0.10154896819E+03  0.15769939125E+03  0.47000000000E+01 0. -1.
        -11    1    4    4    0    0  0.41702066597E+02  0.77630409843E+01  0.41983749955E+02  0.59682178446E+02  0.00000000000E+00 0.  1.
         12    1    4    4    0    0 -0.10434109689E+02 -0.54786160737E+02  0.59365121692E+02  0.81453125949E+02  0.00000000000E+00 0. -1.
         -5    1    5    5    0  501 -0.90853007865E+02 -0.49571985874E+02  0.27475890469E+02  0.10718519197E+03  0.47000000000E+01 0.  1.
         13    1    6    6    0    0 -0.30528966369E+02 -0.16043283649E+02  0.33600818608E+01  0.34651044543E+02  0.00000000000E+00 0. -1.
        -14    1    6    6    0    0 -0.92734015281E+01  0.44396495736E+02 -0.55019883357E+02  0.71303803364E+02  0.00000000000E+00 0.  1.
<mgrwt>
<rscale>  2 0.21554605E+03</rscale>
<asrwt>0</asrwt>
<pdfrwt beam="1">  1        4 0.53129897E-01 0.21554605E+03</pdfrwt>
<pdfrwt beam="2">  1       -4 0.25635447E-01 0.21554605E+03</pdfrwt>
<totfact> 0.87781995E+01</totfact>
</mgrwt>
</event>
<event>
12    1  0.4404304E-002  0.1797878E+03  0.7546771E-02  0.1168009E+00
          1   -1    0    0  502    0  0.00000000000E+00  0.00000000000E+00  0.16385771797E+04  0.16385771797E+04  0.00000000000E+00 0.  1.
         -1   -1    0    0    0  501 -0.00000000000E+00 -0.00000000000E+00 -0.19832992597E+02  0.19832992597E+02  0.00000000000E+00 0. -1.
          6    2    1    2  502    0  0.38767493464E+02  0.49369248248E+02  0.75770270390E+03  0.77917934746E+03  0.17048996096E+03 0.  0.
         24    2    3    3    0    0  0.14589617310E+02  0.41704872395E+02  0.74468469134E+03  0.75028521305E+03  0.80127760971E+02 0.  0.
         -6    2    1    2    0  501 -0.38767493464E+02 -0.49369248248E+02  0.86104148321E+03  0.87923082484E+03  0.16647572294E+03 0.  0.
        -24    2    5    5    0    0 -0.43342359664E+02 -0.89476806365E+02  0.76015102099E+03  0.77046262643E+03  0.76801204416E+02 0.  0.
          5    1    3    3  502    0  0.24177876154E+02  0.76643758534E+01  0.13018012554E+02  0.28894134411E+02  0.47000000000E+01 0. -1.
        -11    1    4    4    0    0  0.61907875424E+01  0.34444542026E+00  0.58751099644E+03  0.58754371363E+03  0.00000000000E+00 0.  1.
         12    1    4    4    0    0  0.83988297678E+01  0.41360426974E+02  0.15717369491E+03  0.16274149941E+03  0.00000000000E+00 0. -1.
         -5    1    5    5    0  501  0.45748661996E+01  0.40107558117E+02  0.10089046222E+03  0.10876819841E+03  0.47000000000E+01 0.  1.
         11    1    6    6    0    0 -0.11868551571E+02 -0.50543230230E+02  0.15968189185E+03  0.16791005694E+03  0.00000000000E+00 0. -1.
        -12    1    6    6    0    0 -0.31473808093E+02 -0.38933576135E+02  0.60046912914E+03  0.60255256949E+03  0.00000000000E+00 0.  1.
<mgrwt>
<rscale>  2 0.17978783E+03</rscale>
<asrwt>0</asrwt>
<pdfrwt beam="1">  1        1 0.25208869E+00 0.17978783E+03</pdfrwt>
<pdfrwt beam="2">  1       -1 0.30512309E-02 0.17978783E+03</pdfrwt>
<totfact> 0.21335107E+03</totfact>
</mgrwt>
</event>
<event>
12    1  0.4404304E-002  0.1951186E+03  0.7546771E-02  0.1153924E+00
          1   -1    0    0  502    0  0.00000000000E+00  0.00000000000E+00  0.16892113361E+03  0.16892113361E+03  0.00000000000E+00 0. -1.
         -1   -1    0    0    0  501 -0.00000000000E+00 -0.00000000000E+00 -0.22797818801E+03  0.22797818801E+03  0.00000000000E+00 0.  1.
          6    2    1    2  502    0  0.88984834470E+02 -0.92777362704E+00 -0.83643644026E+01  0.19546509726E+03  0.17383175810E+03 0.  0.
         24    2    3    3    0    0  0.28518126606E+02 -0.25620917306E+02 -0.64181274945E+02  0.10942097133E+03  0.79899924677E+02 0.  0.
         -6    2    1    2    0  501 -0.88984834470E+02  0.92777362704E+00 -0.50692689993E+02  0.20143422437E+03  0.17345557471E+03 0.  0.
        -24    2    5    5    0    0 -0.78540073058E+02  0.51627143652E+02  0.67691745562E+01  0.12395212941E+03  0.80525794764E+02 0.  0.
          5    1    3    3  502    0  0.60466707864E+02  0.24693143679E+02  0.55816910542E+02  0.86044125931E+02  0.47000000000E+01 0. -1.
        -11    1    4    4    0    0 -0.20982484249E+02  0.13811511847E+02 -0.14872902297E+02  0.29192905431E+02  0.00000000000E+00 0.  1.
         12    1    4    4    0    0  0.49500610855E+02 -0.39432429153E+02 -0.49308372648E+02  0.80228065894E+02  0.00000000000E+00 0. -1.
         -5    1    5    5    0  501 -0.10444761412E+02 -0.50699370025E+02 -0.57461864550E+02  0.77482094960E+02  0.47000000000E+01 0.  1.
         11    1    6    6    0    0 -0.15532021136E+02  0.19098469986E+02  0.38954019108E+02  0.46080482214E+02  0.00000000000E+00 0. -1.
        -12    1    6    6    0    0 -0.63008051922E+02  0.32528673666E+02 -0.32184844552E+02  0.77871647192E+02  0.00000000000E+00 0.  1.
<mgrwt>
<rscale>  2 0.19511859E+03</rscale>
<asrwt>0</asrwt>
<pdfrwt beam="1">  1        1 0.25987867E-01 0.19511859E+03</pdfrwt>
<pdfrwt beam="2">  1       -1 0.35073567E-01 0.19511859E+03</pdfrwt>
<totfact> 0.14073593E+03</totfact>
</mgrwt>
</event>
<event>
12    1  0.4445480E-002  0.1796266E+03  0.7546771E-02  0.1168165E+00
          2   -1    0    0  502    0  0.00000000000E+00  0.00000000000E+00  0.14367790022E+04  0.14367790022E+04  0.00000000000E+00 0.  1.
         -2   -1    0    0    0  501 -0.00000000000E+00 -0.00000000000E+00 -0.24022878726E+02  0.24022878726E+02  0.00000000000E+00 0. -1.
          6    2    1    2  502    0 -0.56222676766E+02 -0.13732040487E+02  0.51798404328E+03  0.54807433827E+03  0.16949469863E+03 0.  0.
         24    2    3    3    0    0  0.30837241263E+02 -0.24880425274E+02  0.29626039817E+03  0.30956400178E+03  0.80558529458E+02 0.  0.
         -6    2    1    2    0  501  0.56222676766E+02  0.13732040487E+02  0.89477208019E+03  0.91272754265E+03  0.17060168023E+03 0.  0.
        -24    2    5    5    0    0  0.87057005847E+02  0.39683466197E+02  0.37137693774E+03  0.38776202236E+03  0.57313666302E+02 0.  0.
          5    1    3    3  502    0 -0.87059918030E+02  0.11148384787E+02  0.22172364511E+03  0.23851033649E+03  0.47000000000E+01 0. -1.
        -11    1    4    4    0    0 -0.20988180272E+02 -0.25917846832E+02  0.16699708819E+03  0.17029464454E+03  0.00000000000E+00 0.  1.
         12    1    4    4    0    0  0.51825421536E+02  0.10374215573E+01  0.12926330998E+03  0.13926935724E+03  0.00000000000E+00 0. -1.
         -5    1    5    5    0  501 -0.30834329081E+02 -0.25951425710E+02  0.52339514246E+03  0.52496552029E+03  0.47000000000E+01 0.  1.
         13    1    6    6    0    0  0.36881328427E+02 -0.98218849485E+01  0.91404817875E+02  0.99053230847E+02  0.00000000000E+00 0. -1.
        -14    1    6    6    0    0  0.50175677421E+02  0.49505351146E+02  0.27997211986E+03  0.28870879151E+03  0.00000000000E+00 0.  1.
<mgrwt>
<rscale>  2 0.17962656E+03</rscale>
<asrwt>0</asrwt>
<pdfrwt beam="1">  1        2 0.22104286E+00 0.17962656E+03</pdfrwt>
<pdfrwt beam="2">  1       -2 0.36958286E-02 0.17962656E+03</pdfrwt>
<totfact> 0.45379600E+03</totfact>
</mgrwt>
</event>
<event>
12    1  0.4404304E-002  0.1982423E+03  0.7546771E-02  0.1151231E+00
         -2   -1    0    0    0  501 -0.00000000000E+00  0.00000000000E+00  0.57795910120E+02  0.57795910120E+02  0.00000000000E+00 0. -1.
          2   -1    0    0  502    0  0.00000000000E+00 -0.00000000000E+00 -0.68982599224E+03  0.68982599224E+03  0.00000000000E+00 0.  1.
          6    2    1    2  502    0 -0.94430405139E+02  0.84149902954E+01 -0.35689490304E+03  0.40716345866E+03  0.17152316687E+03 0.  0.
         24    2    3    3    0    0 -0.44547652772E+02  0.55436995766E+01 -0.34295153689E+03  0.35507660087E+03  0.80301991620E+02 0.  0.
         -6    2    1    2    0  501  0.94430405139E+02 -0.84149902954E+01 -0.27513517908E+03  0.34045844370E+03  0.17670504136E+03 0.  0.
        -24    2    5    5    0    0  0.93605453703E+01  0.29282211684E+02 -0.59875593102E+02  0.10590196983E+03  0.81762294699E+02 0.  0.
          5    1    3    3  502    0 -0.49882752368E+02  0.28712907188E+01 -0.13943366144E+02  0.52086857782E+02  0.47000000000E+01 0. -1.
        -13    1    4    4    0    0  0.21869098038E+02  0.11154563315E+02 -0.72967697787E+02  0.76986795310E+02  0.00000000000E+00 0.  1.
         14    1    4    4    0    0 -0.66416750809E+02 -0.56108637386E+01 -0.26998383911E+03  0.27808980556E+03  0.00000000000E+00 0. -1.
         -5    1    5    5    0  501  0.85069859769E+02 -0.37697201979E+02 -0.21525958598E+03  0.23455647387E+03  0.47000000000E+01 0.  1.
         13    1    6    6    0    0  0.31678541114E+02 -0.16954713605E+02 -0.26874472241E+02  0.44869026497E+02  0.00000000000E+00 0. -1.
        -14    1    6    6    0    0 -0.22317995743E+02  0.46236925289E+02 -0.33001120861E+02  0.61032943336E+02  0.00000000000E+00 0.  1.
<mgrwt>
<rscale>  2 0.19824226E+03</rscale>
<asrwt>0</asrwt>
<pdfrwt beam="2">  1        2 0.10612708E+00 0.19824226E+03</pdfrwt>
<pdfrwt beam="1">  1       -2 0.88916779E-02 0.19824226E+03</pdfrwt>
<totfact> 0.33777970E+03</totfact>
</mgrwt>
</event>
<event>
12    1  0.4404304E-002  0.1914853E+03  0.7546771E-02  0.1157128E+00
         -1   -1    0    0    0  501 -0.00000000000E+00  0.00000000000E+00  0.25433330160E+02  0.25433330160E+02  0.00000000000E+00 0. -1.
          1   -1    0    0  502    0  0.00000000000E+00 -0.00000000000E+00 -0.14654750875E+04  0.14654750875E+04  0.00000000000E+00 0.  1.
          6    2    1    2  502    0  0.75109345214E+02 -0.28117661386E+02 -0.81394197509E+03  0.83609668221E+03  0.17356297578E+03 0.  0.
         24    2    3    3    0    0  0.52114150770E+02  0.50972307910E+02 -0.45165469338E+03  0.46453488829E+03  0.80539676553E+02 0.  0.
         -6    2    1    2    0  501 -0.75109345214E+02  0.28117661386E+02 -0.62609978228E+03  0.65481173549E+03  0.17419946882E+03 0.  0.
        -24    2    5    5    0    0  0.22964224045E+02  0.38581254335E+02 -0.28868213914E+03  0.30324286931E+03  0.81258793705E+02 0.  0.
          5    1    3    3  502    0  0.22995194444E+02 -0.79089969296E+02 -0.36228728171E+03  0.37156179392E+03  0.47000000000E+01 0. -1.
        -13    1    4    4    0    0  0.51137937728E+01  0.60367510015E+02 -0.26281277775E+03  0.26970528972E+03  0.00000000000E+00 0.  1.
         14    1    4    4    0    0  0.47000356997E+02 -0.93952021044E+01 -0.18884191563E+03  0.19482959857E+03  0.00000000000E+00 0. -1.
         -5    1    5    5    0  501 -0.98073569259E+02 -0.10463592949E+02 -0.33741764314E+03  0.35156886618E+03  0.47000000000E+01 0.  1.
         11    1    6    6    0    0  0.25772590305E+02  0.40474124067E+02 -0.71938106657E+02  0.86472378939E+02  0.00000000000E+00 0. -1.
        -12    1    6    6    0    0 -0.28083662599E+01 -0.18928697323E+01 -0.21674403248E+03  0.21677049037E+03  0.00000000000E+00 0.  1.
<mgrwt>
<rscale>  2 0.19148533E+03</rscale>
<asrwt>0</asrwt>
<pdfrwt beam="2">  1        1 0.22545765E+00 0.19148533E+03</pdfrwt>
<pdfrwt beam="1">  1       -1 0.39128209E-02 0.19148533E+03</pdfrwt>
<totfact> 0.19182025E+03</totfact>
</mgrwt>
</event>
<event>
12    1  0.4404304E-002  0.1818654E+03  0.7546771E-02  0.1166010E+00
          2   -1    0    0  502    0  0.00000000000E+00  0.00000000000E+00  0.43142817808E+03  0.43142817808E+03  0.00000000000E+00 0. -1.
         -2   -1    0    0    0  501 -0.00000000000E+00 -0.00000000000E+00 -0.77036873766E+02  0.77036873766E+02  0.00000000000E+00 0.  1.
          6    2    1    2  502    0 -0.53582658461E+02 -0.56901874475E+01  0.19566725828E+03  0.26771550926E+03  0.17459220605E+03 0.  0.
         24    2    3    3    0    0 -0.11295107939E+02  0.55594352238E+02  0.68436257428E+02  0.12022364741E+03  0.80943761963E+02 0.  0.
         -6    2    1    2    0  501  0.53582658461E+02  0.56901874475E+01  0.15872404603E+03  0.24074954259E+03  0.17281070553E+03 0.  0.
        -24    2    5    5    0    0  0.46742015174E+02 -0.54083163560E+02  0.14126328347E+03  0.17792744361E+03  0.81197631546E+02 0.  0.
          5    1    3    3  502    0 -0.42287550522E+02 -0.61284539686E+02  0.12723100086E+03  0.14749186185E+03  0.47000000000E+01 0. -1.
        -13    1    4    4    0    0 -0.80217212913E+00 -0.20682633843E+02  0.74382850633E+01  0.21994156213E+02  0.00000000000E+00 0.  1.
         14    1    4    4    0    0 -0.10492935810E+02  0.76276986082E+02  0.60997972364E+02  0.98229491194E+02  0.00000000000E+00 0. -1.
         -5    1    5    5    0  501  0.68406432862E+01  0.59773351007E+02  0.17460762562E+02  0.62822098982E+02  0.47000000000E+01 0.  1.
         11    1    6    6    0    0 -0.70503424873E+01 -0.51012258055E+02  0.89230413468E+02  0.10302438783E+03  0.00000000000E+00 0. -1.
        -12    1    6    6    0    0  0.53792357662E+02 -0.30709055053E+01  0.52032869999E+02  0.74903055770E+02  0.00000000000E+00 0.  1.
<mgrwt>
<rscale>  2 0.18186539E+03</rscale>
<asrwt>0</asrwt>
<pdfrwt beam="1">  1        2 0.66373564E-01 0.18186539E+03</pdfrwt>
<pdfrwt beam="2">  1       -2 0.11851827E-01 0.18186539E+03</pdfrwt>
<totfact> 0.36335014E+03</totfact>
</mgrwt>
</event>
<event>
12    1  0.4404304E-002  0.2219721E+03  0.7546771E-02  0.1132421E+00
          2   -1    0    0  502    0  0.00000000000E+00  0.00000000000E+00  0.65438831746E+03  0.65438831746E+03  0.00000000000E+00 0.  1.
         -2   -1    0    0    0  501 -0.00000000000E+00 -0.00000000000E+00 -0.77509021710E+02  0.77509021710E+02  0.00000000000E+00 0. -1.
          6    2    1    2  502    0  0.34623930194E+02  0.13461679406E+03  0.35050612501E+03  0.41496827593E+03  0.17327327714E+03 0.  0.
         24    2    3    3    0    0  0.32442980583E+02  0.93265708023E+02  0.10376316257E+03  0.16473069208E+03  0.81353351028E+02 0.  0.
         -6    2    1    2    0  501 -0.34623930194E+02 -0.13461679406E+03  0.22637317074E+03  0.31692906324E+03  0.17285462364E+03 0.  0.
        -24    2    5    5    0    0 -0.86299432721E+02 -0.12046643002E+03  0.17158508480E+03  0.24015397142E+03  0.79200604868E+02 0.  0.
          5    1    3    3  502    0  0.21809496110E+01  0.41351086034E+02  0.24674296244E+03  0.25023758385E+03  0.47000000000E+01 0. -1.
        -13    1    4    4    0    0  0.31553621791E+02  0.21914080642E+02  0.81302754642E+02  0.89922165737E+02  0.00000000000E+00 0.  1.
         14    1    4    4    0    0  0.88935879185E+00  0.71351627381E+02  0.22460407931E+02  0.74808526341E+02  0.00000000000E+00 0. -1.
         -5    1    5    5    0  501  0.51675502527E+02 -0.14150364032E+02  0.54788085939E+02  0.76775091823E+02  0.47000000000E+01 0.  1.
         13    1    6    6    0    0  0.11228111469E+02 -0.40127186841E+02  0.42657731478E+02  0.59631733714E+02  0.00000000000E+00 0. -1.
        -14    1    6    6    0    0 -0.97527544191E+02 -0.80339243184E+02  0.12892735332E+03  0.18052223770E+03  0.00000000000E+00 0.  1.
<mgrwt>
<rscale>  2 0.22197211E+03</rscale>
<asrwt>0</asrwt>
<pdfrwt beam="1">  1        2 0.10067512E+00 0.22197211E+03</pdfrwt>
<pdfrwt beam="2">  1       -2 0.11924465E-01 0.22197211E+03</pdfrwt>
<totfact> 0.22610018E+03</totfact>
</mgrwt>
</event>
<event>
12    1  0.4404304E-002  0.1835287E+03  0.7546771E-02  0.1164431E+00
         -1   -1    0    0    0  501 -0.00000000000E+00  0.00000000000E+00  0.81165402639E+02  0.81165402639E+02  0.00000000000E+00 0.  1.
          1   -1    0    0  502    0  0.00000000000E+00 -0.00000000000E+00 -0.50399195911E+03  0.50399195911E+03  0.00000000000E+00 0. -1.
          6    2    1    2  502    0  0.60732487505E+02  0.88656080672E+00 -0.33438305220E+03  0.38144733791E+03  0.17320746223E+03 0.  0.
         24    2    3    3    0    0 -0.25025097643E+02  0.16879761840E+02 -0.10359526812E+03  0.13467773450E+03  0.80591133009E+02 0.  0.
         -6    2    1    2    0  501 -0.60732487505E+02 -0.88656080672E+00 -0.88443504268E+02  0.20371002384E+03  0.17316552583E+03 0.  0.
        -24    2    5    5    0    0 -0.11625482730E+02 -0.33173638437E+02  0.11953298325E+02  0.87281671315E+02  0.78990927776E+02 0.  0.
          5    1    3    3  502    0  0.85757585148E+02 -0.15993201033E+02 -0.23078778408E+03  0.24676960342E+03  0.47000000000E+01 0. -1.
        -11    1    4    4    0    0 -0.11364659959E+02  0.54514255412E+00  0.12350706613E+02  0.16792636191E+02  0.00000000000E+00 0.  1.
         12    1    4    4    0    0 -0.13660437683E+02  0.16334619286E+02 -0.11594597474E+03  0.11788509831E+03  0.00000000000E+00 0. -1.
         -5    1    5    5    0  501 -0.49107004775E+02  0.32287077631E+02 -0.10039680259E+03  0.11642835252E+03  0.47000000000E+01 0.  1.
         11    1    6    6    0    0 -0.39969224472E+02  0.25525075366E+01 -0.33145045748E+00  0.40052016915E+02  0.00000000000E+00 0. -1.
        -12    1    6    6    0    0  0.28343741742E+02 -0.35726145974E+02  0.12284748783E+02  0.47229654400E+02  0.00000000000E+00 0.  1.
<mgrwt>
<rscale>  2 0.18352870E+03</rscale>
<asrwt>0</asrwt>
<pdfrwt beam="2">  1        1 0.77537225E-01 0.18352870E+03</pdfrwt>
<pdfrwt beam="1">  1       -1 0.12486985E-01 0.18352870E+03</pdfrwt>
<totfact> 0.19045613E+03</totfact>
</mgrwt>
</event>
<event>
12    1  0.4404304E-002  0.2705248E+03  0.7546771E-02  0.1100980E+00
          1   -1    0    0  502    0  0.00000000000E+00  0.00000000000E+00  0.17533677808E+04  0.17533677808E+04  0.00000000000E+00 0. -1.
         -1   -1    0    0    0  501 -0.00000000000E+00 -0.00000000000E+00 -0.42054938826E+02  0.42054938826E+02  0.00000000000E+00 0.  1.
          6    2    1    2  502    0 -0.20061703995E+03  0.56846910673E+02  0.77619518879E+03  0.82181317507E+03  0.17152013189E+03 0.  0.
         24    2    3    3    0    0 -0.22434188182E+03  0.48840609010E+02  0.72221372556E+03  0.76212182427E+03  0.80760910138E+02 0.  0.
         -6    2    1    2    0  501  0.20061703995E+03 -0.56846910673E+02  0.93511765314E+03  0.97360954451E+03  0.17318126915E+03 0.  0.
        -24    2    5    5    0    0  0.22281671894E+03 -0.66833618450E+02  0.84951859438E+03  0.88449249261E+03  0.80815249116E+02 0.  0.
          5    1    3    3  502    0  0.23724841872E+02  0.80063016637E+01  0.53981463227E+02  0.59691350800E+02  0.47000000000E+01 0. -1.
        -11    1    4    4    0    0 -0.76443239435E+02  0.66385193158E+01  0.13688792797E+03  0.15692655485E+03  0.00000000000E+00 0.  1.
         12    1    4    4    0    0 -0.14789864239E+03  0.42202089694E+02  0.58532579760E+03  0.60519526942E+03  0.00000000000E+00 0. -1.
         -5    1    5    5    0  501 -0.22199678993E+02  0.99867077763E+01  0.85599058759E+02  0.89117051904E+02  0.47000000000E+01 0.  1.
         13    1    6    6    0    0  0.56152672966E+02  0.51445190830E+00  0.33025453826E+03  0.33499469755E+03  0.00000000000E+00 0. -1.
        -14    1    6    6    0    0  0.16666404598E+03 -0.67348070358E+02  0.51926405612E+03  0.54949779506E+03  0.00000000000E+00 0.  1.
<mgrwt>
<rscale>  2 0.27052479E+03</rscale>
<asrwt>0</asrwt>
<pdfrwt beam="1">  1        1 0.26974883E+00 0.27052479E+03</pdfrwt>
<pdfrwt beam="2">  1       -1 0.64699919E-02 0.27052479E+03</pdfrwt>
<totfact> 0.58165240E+02</totfact>
</mgrwt>
</event>
<event>
12    1  0.4404304E-002  0.2479942E+03  0.7546771E-02  0.1114579E+00
         -2   -1    0    0    0  501 -0.00000000000E+00  0.00000000000E+00  0.74861524924E+02  0.74861524924E+02  0.00000000000E+00 0.  1.
          2   -1    0    0  502    0  0.00000000000E+00 -0.00000000000E+00 -0.99513086889E+03  0.99513086889E+03  0.00000000000E+00 0. -1.
          6    2    1    2  502    0 -0.17575806392E+03  0.27084743550E+02 -0.68312276393E+03  0.72664171036E+03  0.17241515089E+03 0.  0.
         24    2    3    3    0    0 -0.92816843796E+02  0.63310026138E+02 -0.53101854935E+03  0.54958437731E+03  0.86250577493E+02 0.  0.
         -6    2    1    2    0  501  0.17575806392E+03 -0.27084743550E+02 -0.23714658003E+03  0.34335068346E+03  0.17328217175E+03 0.  0.
        -24    2    5    5    0    0  0.10761713172E+03  0.30315436713E+02 -0.20894171660E+03  0.24977947177E+03  0.78947266202E+02 0.  0.
          5    1    3    3  502    0 -0.82941220121E+02 -0.36225282588E+02 -0.15210421458E+03  0.17705733305E+03  0.47000000000E+01 0. -1.
        -13    1    4    4    0    0 -0.40167383375E+01  0.59447307385E+00  0.27196032839E+01  0.48871082584E+01  0.00000000000E+00 0.  1.
         14    1    4    4    0    0 -0.88800105459E+02  0.62715553064E+02 -0.53373815264E+03  0.54469726905E+03  0.00000000000E+00 0. -1.
         -5    1    5    5    0  501  0.68140932203E+02 -0.57400180263E+02 -0.28204863435E+02  0.93571211690E+02  0.47000000000E+01 0.  1.
         11    1    6    6    0    0  0.58349597163E+02  0.32960785296E+02 -0.18115749546E+03  0.19315570667E+03  0.00000000000E+00 0. -1.
        -12    1    6    6    0    0  0.49267534552E+02 -0.26453485832E+01 -0.27784221132E+02  0.56623765098E+02  0.00000000000E+00 0.  1.
<mgrwt>
<rscale>  2 0.24799424E+03</rscale>
<asrwt>0</asrwt>
<pdfrwt beam="2">  1        2 0.15309705E+00 0.24799424E+03</pdfrwt>
<pdfrwt beam="1">  1       -2 0.11517158E-01 0.24799424E+03</pdfrwt>
<totfact> 0.13981124E+03</totfact>
</mgrwt>
</event>
<event>
12    1  0.4404304E-002  0.1954735E+03  0.7546771E-02  0.1153615E+00
          2   -1    0    0  502    0  0.00000000000E+00  0.00000000000E+00  0.11900945907E+04  0.11900945907E+04  0.00000000000E+00 0. -1.
         -2   -1    0    0    0  501 -0.00000000000E+00 -0.00000000000E+00 -0.47151081491E+02  0.47151081491E+02  0.00000000000E+00 0.  1.
          6    2    1    2  502    0 -0.67162613945E+02 -0.59588575055E+02  0.22184533690E+03  0.29561462495E+03  0.17352532378E+03 0.  0.
         24    2    3    3    0    0  0.68853526728E+01 -0.79057802424E+02  0.90802542194E+02  0.14377109951E+03  0.78278242059E+02 0.  0.
         -6    2    1    2    0  501  0.67162613945E+02  0.59588575055E+02  0.92109817227E+03  0.94163104720E+03  0.17373995252E+03 0.  0.
        -24    2    5    5    0    0  0.11174777937E+03  0.38891481870E+02  0.65713654233E+03  0.67309047536E+03  0.84983758444E+02 0.  0.
          5    1    3    3  502    0 -0.74047966618E+02  0.19469227368E+02  0.13104279471E+03  0.15184352544E+03  0.47000000000E+01 0. -1.
        -13    1    4    4    0    0 -0.80575486068E+01 -0.79279347806E+02  0.98711714154E+02  0.12686268793E+03  0.00000000000E+00 0.  1.
         14    1    4    4    0    0  0.14942901280E+02  0.22154538177E+00 -0.79091719597E+01  0.16908411578E+02  0.00000000000E+00 0. -1.
         -5    1    5    5    0  501 -0.44585165427E+02  0.20697093186E+02  0.26396162994E+03  0.26854057184E+03  0.47000000000E+01 0.  1.
         11    1    6    6    0    0  0.59204324865E+02  0.51941785857E+02  0.51508252410E+03  0.52106919678E+03  0.00000000000E+00 0. -1.
        -12    1    6    6    0    0  0.52543454507E+02 -0.13050303988E+02  0.14205401823E+03  0.15202127858E+03  0.00000000000E+00 0.  1.
<mgrwt>
<rscale>  2 0.19547353E+03</rscale>
<asrwt>0</asrwt>
<pdfrwt beam="1">  1        2 0.18309145E+00 0.19547353E+03</pdfrwt>
<pdfrwt beam="2">  1       -2 0.72540134E-02 0.19547353E+03</pdfrwt>
<totfact> 0.22270161E+03</totfact>
</mgrwt>
</event>
<event>
12    1  0.4404304E-002  0.2170478E+03  0.7546771E-02  0.1136103E+00
         -2   -1    0    0    0  501 -0.00000000000E+00  0.00000000000E+00  0.15056067886E+03  0.15056067886E+03  0.00000000000E+00 0. -1.
          2   -1    0    0  502    0  0.00000000000E+00 -0.00000000000E+00 -0.35196814649E+03  0.35196814649E+03  0.00000000000E+00 0.  1.
          6    2    1    2  502    0 -0.63930112460E+02 -0.10732152029E+03 -0.18411703519E+03  0.28406688189E+03  0.17660674603E+03 0.  0.
         24    2    3    3    0    0 -0.47806992712E+02 -0.14547596080E+03 -0.15505913157E+03  0.23325184392E+03  0.83152418386E+02 0.  0.
         -6    2    1    2    0  501  0.63930112460E+02  0.10732152029E+03 -0.17290432446E+02  0.21846194346E+03  0.17838636071E+03 0.  0.
        -24    2    5    5    0    0  0.10286187100E+03  0.10333620318E+03 -0.41601639636E+02  0.17215115238E+03  0.81525379190E+02 0.  0.
          5    1    3    3  502    0 -0.16123119748E+02  0.38154440513E+02 -0.29057903615E+02  0.50815037969E+02  0.47000000000E+01 0. -1.
        -13    1    4    4    0    0 -0.66975569837E+02 -0.74743136665E+02 -0.99129141932E+02  0.14106328443E+03  0.00000000000E+00 0.  1.
         14    1    4    4    0    0  0.19168577125E+02 -0.70732824139E+02 -0.55929989640E+02  0.92188559490E+02  0.00000000000E+00 0. -1.
         -5    1    5    5    0  501 -0.38931758539E+02  0.39853171145E+01  0.24311207191E+02  0.46310791081E+02  0.47000000000E+01 0.  1.
         13    1    6    6    0    0  0.20573974637E+02  0.67201039231E+02  0.58462373145E+01  0.70522667256E+02  0.00000000000E+00 0. -1.
        -14    1    6    6    0    0  0.82287896362E+02  0.36135163945E+02 -0.47447876951E+02  0.10162848512E+03  0.00000000000E+00 0.  1.
<mgrwt>
<rscale>  2 0.21704775E+03</rscale>
<asrwt>0</asrwt>
<pdfrwt beam="2">  1        2 0.54148945E-01 0.21704775E+03</pdfrwt>
<pdfrwt beam="1">  1       -2 0.23163182E-01 0.21704775E+03</pdfrwt>
<totfact> 0.14873163E+03</totfact>
</mgrwt>
</event>
<event>
12    1  0.4404304E-002  0.2235491E+03  0.7546771E-02  0.1131264E+00
         -1   -1    0    0    0  501 -0.00000000000E+00  0.00000000000E+00  0.38941823314E+02  0.38941823314E+02  0.00000000000E+00 0. -1.
          1   -1    0    0  502    0  0.00000000000E+00 -0.00000000000E+00 -0.14620613682E+04  0.14620613682E+04  0.00000000000E+00 0.  1.
          6    2    1    2  502    0  0.86065063546E+02 -0.11435741288E+03 -0.45197343080E+03  0.50468463020E+03  0.17303693470E+03 0.  0.
         24    2    3    3    0    0  0.21746484604E+02 -0.25478155198E+02 -0.84434085395E+02  0.12109153529E+03  0.80074959617E+02 0.  0.
         -6    2    1    2    0  501 -0.86065063546E+02  0.11435741288E+03 -0.97114611410E+03  0.99631856133E+03  0.17041445851E+03 0.  0.
        -24    2    5    5    0    0 -0.69792782001E+02  0.11854147622E+03 -0.96458544818E+03  0.97767919787E+03  0.80674736512E+02 0.  0.
          5    1    3    3  502    0  0.64318578942E+02 -0.88879257680E+02 -0.36753934540E+03  0.38359309491E+03  0.47000000000E+01 0. -1.
        -11    1    4    4    0    0  0.15694371710E+02  0.28466633151E+02 -0.32484751988E+02  0.45955648380E+02  0.00000000000E+00 0.  1.
         12    1    4    4    0    0  0.60521128943E+01 -0.53944788349E+02 -0.51949333407E+02  0.75135886911E+02  0.00000000000E+00 0. -1.
         -5    1    5    5    0  501 -0.16272281545E+02 -0.41840633449E+01 -0.65606659267E+01  0.18639363459E+02  0.47000000000E+01 0.  1.
         11    1    6    6    0    0  0.11571552047E+02 -0.56045821759E+00 -0.32587124560E+02  0.34585193613E+02  0.00000000000E+00 0. -1.
        -12    1    6    6    0    0 -0.81364334048E+02  0.11910193444E+03 -0.93199832362E+03  0.94309400426E+03  0.00000000000E+00 0.  1.
<mgrwt>
<rscale>  2 0.22354914E+03</rscale>
<asrwt>0</asrwt>
<pdfrwt beam="2">  1        1 0.22493254E+00 0.22354914E+03</pdfrwt>
<pdfrwt beam="1">  1       -1 0.59910492E-02 0.22354914E+03</pdfrwt>
<totfact> 0.10194329E+03</totfact>
</mgrwt>
</event>
<event>
12    1  0.4404304E-002  0.2370070E+03  0.7546771E-02  0.1121803E+00
         -2   -1    0    0    0  501 -0.00000000000E+00  0.00000000000E+00  0.77803728975E+02  0.77803728975E+02  0.00000000000E+00 0.  1.
          2   -1    0    0  502    0  0.00000000000E+00 -0.00000000000E+00 -0.13164888916E+04  0.13164888916E+04  0.00000000000E+00 0. -1.
          6    2    1    2  502    0 -0.95653291535E+01 -0.16122706872E+03 -0.10878626577E+04  0.11133861775E+04  0.17348762234E+03 0.  0.
         24    2    3    3    0    0 -0.32152710107E+02 -0.14419011508E+03 -0.56005066904E+03  0.58479556758E+03  0.80650591519E+02 0.  0.
         -6    2    1    2    0  501  0.95653291535E+01  0.16122706872E+03 -0.15082250500E+03  0.28090644311E+03  0.17342242806E+03 0.  0.
        -24    2    5    5    0    0  0.30704163195E+02  0.94807249003E+02 -0.16508807455E+03  0.20960399412E+03  0.82149874577E+02 0.  0.
          5    1    3    3  502    0  0.22587380954E+02 -0.17036953647E+02 -0.52781198861E+03  0.52859060992E+03  0.47000000000E+01 0. -1.
        -13    1    4    4    0    0  0.23395819602E+02 -0.78677254936E+02 -0.25519278947E+03  0.26806871249E+03  0.00000000000E+00 0.  1.
         14    1    4    4    0    0 -0.55548529709E+02 -0.65512860141E+02 -0.30485787958E+03  0.31672685509E+03  0.00000000000E+00 0. -1.
         -5    1    5    5    0  501 -0.21138834041E+02  0.66419819722E+02  0.14265569552E+02  0.71302448984E+02  0.47000000000E+01 0.  1.
         11    1    6    6    0    0 -0.25636420850E+02  0.13704728055E+02 -0.25840767234E+02  0.38894612690E+02  0.00000000000E+00 0. -1.
        -12    1    6    6    0    0  0.56340584045E+02  0.81102520947E+02 -0.13924730731E+03  0.17070938143E+03  0.00000000000E+00 0.  1.
<mgrwt>
<rscale>  2 0.23700698E+03</rscale>
<asrwt>0</asrwt>
<pdfrwt beam="2">  1        2 0.20253675E+00 0.23700698E+03</pdfrwt>
<pdfrwt beam="1">  1       -2 0.11969804E-01 0.23700698E+03</pdfrwt>
<totfact> 0.85725654E+02</totfact>
</mgrwt>
</event>
<event>
12    1  0.4404304E-002  0.2488295E+03  0.7546771E-02  0.1114047E+00
          3   -1    0    0  502    0  0.00000000000E+00  0.00000000000E+00  0.82180698608E+03  0.82180698608E+03  0.00000000000E+00 0.  1.
         -3   -1    0    0    0  501 -0.00000000000E+00 -0.00000000000E+00 -0.76409154004E+02  0.76409154004E+02  0.00000000000E+00 0. -1.
          6    2    1    2  502    0 -0.17944195727E+03 -0.14246835901E+02  0.42700943663E+03  0.49464489075E+03  0.17301479883E+03 0.  0.
         24    2    3    3    0    0 -0.10228277572E+03  0.54909942439E+02  0.28766361370E+03  0.32093378674E+03  0.82287744164E+02 0.  0.
         -6    2    1    2    0  501  0.17944195727E+03  0.14246835901E+02  0.31838839545E+03  0.40357124933E+03  0.17057606682E+03 0.  0.
        -24    2    5    5    0    0  0.14166933203E+03  0.50518317004E+02  0.30475409411E+03  0.34925388810E+03  0.80504164384E+02 0.  0.
          5    1    3    3  502    0 -0.77159181549E+02 -0.69156778339E+02  0.13934582293E+03  0.17371110401E+03  0.47000000000E+01 0. -1.
        -13    1    4    4    0    0 -0.52215169663E+02 -0.71195494778E+01  0.17611071869E+03  0.18382626898E+03  0.00000000000E+00 0.  1.
         14    1    4    4    0    0 -0.50067606055E+02  0.62029491917E+02  0.11155289501E+03  0.13710751776E+03  0.00000000000E+00 0. -1.
         -5    1    5    5    0  501  0.37772625241E+02 -0.36271481104E+02  0.13634301337E+02  0.54317361239E+02  0.47000000000E+01 0.  1.
         11    1    6    6    0    0  0.28963685753E+02  0.14901892425E+02  0.14115556148E+02  0.35499442469E+02  0.00000000000E+00 0. -1.
        -12    1    6    6    0    0  0.11270564627E+03  0.35616424579E+02  0.29063853796E+03  0.31375444563E+03  0.00000000000E+00 0.  1.
<mgrwt>
<rscale>  2 0.24882952E+03</rscale>
<asrwt>0</asrwt>
<pdfrwt beam="1">  1        3 0.12643184E+00 0.24882952E+03</pdfrwt>
<pdfrwt beam="2">  1       -3 0.11755255E-01 0.24882952E+03</pdfrwt>
<totfact> 0.73107641E+01</totfact>
</mgrwt>
</event>
<event>
12    1  0.4404304E-002  0.2955258E+03  0.7546771E-02  0.1087499E+00
          1   -1    0    0  502    0  0.00000000000E+00  0.00000000000E+00  0.12422236110E+04  0.12422236110E+04  0.00000000000E+00 0. -1.
         -1   -1    0    0    0  501 -0.00000000000E+00 -0.00000000000E+00 -0.81785263908E+02  0.81785263908E+02  0.00000000000E+00 0.  1.
          6    2    1    2  502    0 -0.23362904668E+03  0.48696507217E+02  0.82916281301E+03  0.88043848701E+03  0.17523435070E+03 0.  0.
         24    2    3    3    0    0 -0.48556355631E+02  0.58111406974E+02  0.29815817394E+03  0.31800755079E+03  0.80596838510E+02 0.  0.
         -6    2    1    2    0  501  0.23362904668E+03 -0.48696507217E+02  0.33127553411E+03  0.44357038792E+03  0.17337049425E+03 0.  0.
        -24    2    5    5    0    0  0.89909760088E+02 -0.68499276807E+02  0.10163599105E+03  0.17190185320E+03  0.80277372752E+02 0.  0.
          5    1    3    3  502    0 -0.18507269104E+03 -0.94148997563E+01  0.53100463907E+03  0.56243093622E+03  0.47000000000E+01 0. -1.
        -13    1    4    4    0    0 -0.59616385770E+01 -0.17480859957E+02  0.23026510357E+02  0.29518498921E+02  0.00000000000E+00 0.  1.
         14    1    4    4    0    0 -0.42594717054E+02  0.75592266930E+02  0.27513166358E+03  0.28848905187E+03  0.00000000000E+00 0. -1.
         -5    1    5    5    0  501  0.14371928659E+03  0.19802769590E+02  0.22963954305E+03  0.27166853472E+03  0.47000000000E+01 0.  1.
         11    1    6    6    0    0 -0.19487841746E+01 -0.37723133450E+02  0.11264556322E+02  0.39417290447E+02  0.00000000000E+00 0. -1.
        -12    1    6    6    0    0  0.91858544262E+02 -0.30776143357E+02  0.90371434730E+02  0.13248456276E+03  0.00000000000E+00 0.  1.
<mgrwt>
<rscale>  2 0.29552577E+03</rscale>
<asrwt>0</asrwt>
<pdfrwt beam="1">  1        1 0.19111131E+00 0.29552577E+03</pdfrwt>
<pdfrwt beam="2">  1       -1 0.12582349E-01 0.29552577E+03</pdfrwt>
<totfact> 0.45532196E+02</totfact>
</mgrwt>
</event>
<event>
12    1  0.4404304E-002  0.2355056E+03  0.7546771E-02  0.1122824E+00
          2   -1    0    0  502    0  0.00000000000E+00  0.00000000000E+00  0.30706551872E+03  0.30706551872E+03  0.00000000000E+00 0.  1.
         -2   -1    0    0    0  501 -0.00000000000E+00 -0.00000000000E+00 -0.20617686665E+03  0.20617686665E+03  0.00000000000E+00 0. -1.
          6    2    1    2  502    0 -0.11760853308E+03 -0.10783826394E+03  0.14080072039E+03  0.27443557075E+03  0.17328929975E+03 0.  0.
         24    2    3    3    0    0 -0.58072445566E+02 -0.12052087685E+03  0.47671294445E+02  0.16307770456E+03  0.80150450521E+02 0.  0.
         -6    2    1    2    0  501  0.11760853308E+03  0.10783826394E+03 -0.39912068320E+02  0.23880681462E+03  0.17313250212E+03 0.  0.
        -24    2    5    5    0    0  0.14471461335E+03  0.85551084304E+02  0.90273558782E+00  0.18477537764E+03  0.76679970711E+02 0.  0.
          5    1    3    3  502    0 -0.59536087509E+02  0.12682612911E+02  0.93129425945E+02  0.11135786619E+03  0.47000000000E+01 0. -1.
        -11    1    4    4    0    0  0.52582830353E+01 -0.80544518428E+02  0.19299567879E+02  0.82991218268E+02  0.00000000000E+00 0.  1.
         12    1    4    4    0    0 -0.63330728602E+02 -0.39976358425E+02  0.28371726566E+02  0.80086486291E+02  0.00000000000E+00 0. -1.
         -5    1    5    5    0  501 -0.27106080275E+02  0.22287179638E+02 -0.40814803908E+02  0.54031436980E+02  0.47000000000E+01 0.  1.
         11    1    6    6    0    0  0.70699252181E+02  0.75687521416E+02 -0.23529232853E+02  0.10621021587E+03  0.00000000000E+00 0. -1.
        -12    1    6    6    0    0  0.74015361169E+02  0.98635628878E+01  0.24431968441E+02  0.78565161768E+02  0.00000000000E+00 0.  1.
<mgrwt>
<rscale>  2 0.23550557E+03</rscale>
<asrwt>0</asrwt>
<pdfrwt beam="1">  1        2 0.47240849E-01 0.23550557E+03</pdfrwt>
<pdfrwt beam="2">  1       -2 0.31719518E-01 0.23550557E+03</pdfrwt>
<totfact> 0.98348870E+02</totfact>
</mgrwt>
</event>
<event>
12    1  0.4404304E-002  0.1846410E+03  0.7546771E-02  0.1163386E+00
         -2   -1    0    0    0  501 -0.00000000000E+00  0.00000000000E+00  0.17589286991E+02  0.17589286991E+02  0.00000000000E+00 0. -1.
          2   -1    0    0  502    0  0.00000000000E+00 -0.00000000000E+00 -0.19383518452E+04  0.19383518452E+04  0.00000000000E+00 0.  1.
          6    2    1    2  502    0 -0.64637597306E+02 -0.28509884036E+00 -0.96955443908E+03  0.98705539438E+03  0.17339100602E+03 0.  0.
         24    2    3    3    0    0 -0.14206690030E+02  0.42150428891E+02 -0.81331541976E+03  0.81741821809E+03  0.68644610465E+02 0.  0.
         -6    2    1    2    0  501  0.64637597306E+02  0.28509884036E+00 -0.95120811909E+03  0.96888573778E+03  0.17252416286E+03 0.  0.
        -24    2    5    5    0    0  0.15832692363E+02 -0.13835208904E+02 -0.22911627331E+03  0.24499346293E+03  0.84175073680E+02 0.  0.
          5    1    3    3  502    0 -0.50430907276E+02 -0.42435527731E+02 -0.15623901932E+03  0.16963717630E+03  0.47000000000E+01 0. -1.
        -13    1    4    4    0    0 -0.21275385621E+02  0.13919096855E+02 -0.69880772893E+03  0.69927006608E+03  0.00000000000E+00 0.  1.
         14    1    4    4    0    0  0.70686955908E+01  0.28231332035E+02 -0.11450769083E+03  0.11814815201E+03  0.00000000000E+00 0. -1.
         -5    1    5    5    0  501  0.48804904944E+02  0.14120307744E+02 -0.72209184578E+03  0.72389227485E+03  0.47000000000E+01 0.  1.
         11    1    6    6    0    0  0.50124957792E+02 -0.63200694745E+01 -0.11522524810E+03  0.12581459562E+03  0.00000000000E+00 0. -1.
        -12    1    6    6    0    0 -0.34292265429E+02 -0.75151394295E+01 -0.11389102521E+03  0.11917886731E+03  0.00000000000E+00 0.  1.
<mgrwt>
<rscale>  2 0.18464096E+03</rscale>
<asrwt>0</asrwt>
<pdfrwt beam="2">  1        2 0.29820806E+00 0.18464096E+03</pdfrwt>
<pdfrwt beam="1">  1       -2 0.27060434E-02 0.18464096E+03</pdfrwt>
<totfact> 0.39487996E+03</totfact>
</mgrwt>
</event>
<event>
12    1  0.4404304E-002  0.1806448E+03  0.7546771E-02  0.1167180E+00
         -2   -1    0    0    0  501 -0.00000000000E+00  0.00000000000E+00  0.47176532074E+03  0.47176532074E+03  0.00000000000E+00 0.  1.
          2   -1    0    0  502    0  0.00000000000E+00 -0.00000000000E+00 -0.80048094789E+02  0.80048094789E+02  0.00000000000E+00 0. -1.
          6    2    1    2  502    0 -0.61815782624E+01 -0.49008140542E+02  0.94596078200E+02  0.20433028596E+03  0.17424820803E+03 0.  0.
         24    2    3    3    0    0  0.34695476780E+02 -0.23253113373E+02  0.11920784736E+03  0.14990525280E+03  0.80725402166E+02 0.  0.
         -6    2    1    2    0  501  0.61815782624E+01  0.49008140542E+02  0.29712114775E+03  0.34748312957E+03  0.17327301909E+03 0.  0.
        -24    2    5    5    0    0 -0.50588461176E+02  0.15443793817E+02  0.24640977862E+03  0.26415764902E+03  0.79144054523E+02 0.  0.
          5    1    3    3  502    0 -0.40877055042E+02 -0.25755027170E+02 -0.24611769158E+02  0.54425033160E+02  0.47000000000E+01 0. -1.
        -11    1    4    4    0    0  0.47579126072E+02 -0.46871384714E+01  0.26871131598E+02  0.54843415450E+02  0.00000000000E+00 0.  1.
         12    1    4    4    0    0 -0.12883649293E+02 -0.18565974901E+02  0.92336715760E+02  0.95061837350E+02  0.00000000000E+00 0. -1.
         -5    1    5    5    0  501  0.56770039438E+02  0.33564346725E+02  0.50711369132E+02  0.83325480545E+02  0.47000000000E+01 0.  1.
         11    1    6    6    0    0 -0.11072478681E+02  0.60764275323E+01 -0.17018403498E+01  0.12744371945E+02  0.00000000000E+00 0. -1.
        -12    1    6    6    0    0 -0.39515982495E+02  0.93673662846E+01  0.24811161897E+03  0.25141327707E+03  0.00000000000E+00 0.  1.
<mgrwt>
<rscale>  2 0.18064484E+03</rscale>
<asrwt>0</asrwt>
<pdfrwt beam="2">  1        2 0.12315092E-01 0.18064484E+03</pdfrwt>
<pdfrwt beam="1">  1       -2 0.72579278E-01 0.18064484E+03</pdfrwt>
<totfact> 0.86361287E+02</totfact>
</mgrwt>
</event>
<event>
12    1  0.4404304E-002  0.3445656E+03  0.7546771E-02  0.1064868E+00
         -2   -1    0    0    0  501 -0.00000000000E+00  0.00000000000E+00  0.19633388048E+03  0.19633388048E+03  0.00000000000E+00 0. -1.
          2   -1    0    0  502    0  0.00000000000E+00 -0.00000000000E+00 -0.64669269747E+03  0.64669269747E+03  0.00000000000E+00 0.  1.
          6    2    1    2  502    0 -0.50236430165E+02  0.29804262888E+03 -0.11558617833E+03  0.35989654756E+03  0.15751905529E+03 0.  0.
         24    2    3    3    0    0  0.10421211920E+02  0.15314849244E+03 -0.15164746587E+02  0.17340200535E+03  0.79216308471E+02 0.  0.
         -6    2    1    2    0  501  0.50236430165E+02 -0.29804262888E+03 -0.33477263866E+03  0.48313003039E+03  0.17317274360E+03 0.  0.
        -24    2    5    5    0    0  0.70551000065E-01 -0.16133818289E+03 -0.26694390563E+03  0.32242051602E+03  0.81645123318E+02 0.  0.
          5    1    3    3  502    0 -0.60657642085E+02  0.14489413644E+03 -0.10042143175E+03  0.18649454220E+03  0.47000000000E+01 0. -1.
        -11    1    4    4    0    0  0.93521129624E+01  0.74233668413E+02 -0.46937310970E+02  0.88324462659E+02  0.00000000000E+00 0.  1.
         12    1    4    4    0    0  0.10690989572E+01  0.78914824024E+02  0.31772564383E+02  0.85077542694E+02  0.00000000000E+00 0. -1.
         -5    1    5    5    0  501  0.50165879165E+02 -0.13670444598E+03 -0.67828733032E+02  0.16070951437E+03  0.47000000000E+01 0.  1.
         13    1    6    6    0    0  0.87860477274E+01  0.30073336438E+00  0.15286700826E+01  0.89231108615E+01  0.00000000000E+00 0. -1.
        -14    1    6    6    0    0 -0.87154967274E+01 -0.16163891626E+03 -0.26847257571E+03  0.31349740516E+03  0.00000000000E+00 0.  1.
<mgrwt>
<rscale>  2 0.34456556E+03</rscale>
<asrwt>0</asrwt>
<pdfrwt beam="2">  1        2 0.99491182E-01 0.34456556E+03</pdfrwt>
<pdfrwt beam="1">  1       -2 0.30205213E-01 0.34456556E+03</pdfrwt>
<totfact> 0.46724768E+02</totfact>
</mgrwt>
</event>
<event>
12    1  0.4404304E-002  0.2365026E+03  0.7546771E-02  0.1122145E+00
          2   -1    0    0  502    0  0.00000000000E+00  0.00000000000E+00  0.93092655765E+02  0.93092655765E+02  0.00000000000E+00 0.  1.
         -2   -1    0    0    0  501 -0.00000000000E+00 -0.00000000000E+00 -0.60789704620E+03  0.60789704620E+03  0.00000000000E+00 0. -1.
          6    2    1    2  502    0 -0.98509153981E+02  0.12647573932E+03 -0.22060466537E+03  0.32406812807E+03  0.17508160151E+03 0.  0.
         24    2    3    3    0    0 -0.31279134678E+02  0.55768606978E+02 -0.20055456354E+03  0.22435117543E+03  0.77606669613E+02 0.  0.
         -6    2    1    2    0  501  0.98509153981E+02 -0.12647573932E+03 -0.29419972507E+03  0.37692157390E+03  0.17267376347E+03 0.  0.
        -24    2    5    5    0    0  0.11246403813E+03 -0.14534632250E+03 -0.29003774900E+03  0.35262651791E+03  0.80310970284E+02 0.  0.
          5    1    3    3  502    0 -0.67230019304E+02  0.70707132342E+02 -0.20050101830E+02  0.99716952636E+02  0.47000000000E+01 0. -1.
        -11    1    4    4    0    0 -0.68967228289E+01 -0.16586432046E+02 -0.13993402951E+02  0.22770371976E+02  0.00000000000E+00 0.  1.
         12    1    4    4    0    0 -0.24382411849E+02  0.72355039024E+02 -0.18656116059E+03  0.20158080345E+03  0.00000000000E+00 0. -1.
         -5    1    5    5    0  501 -0.13954884153E+02  0.18870583178E+02 -0.41619760672E+01  0.24295055999E+02  0.47000000000E+01 0.  1.
         13    1    6    6    0    0  0.11963373628E+02 -0.65735262227E+02 -0.14099614347E+03  0.15602615000E+03  0.00000000000E+00 0. -1.
        -14    1    6    6    0    0  0.10050066451E+03 -0.79611060271E+02 -0.14904160553E+03  0.19660036791E+03  0.00000000000E+00 0.  1.
<mgrwt>
<rscale>  2 0.23650264E+03</rscale>
<asrwt>0</asrwt>
<pdfrwt beam="1">  1        2 0.14321947E-01 0.23650264E+03</pdfrwt>
<pdfrwt beam="2">  1       -2 0.93522624E-01 0.23650264E+03</pdfrwt>
<totfact> 0.41267274E+02</totfact>
</mgrwt>
</event>
<event>
12    1  0.4404304E-002  0.2337562E+03  0.7546771E-02  0.1124024E+00
          2   -1    0    0  502    0  0.00000000000E+00  0.00000000000E+00  0.15504343376E+03  0.15504343376E+03  0.00000000000E+00 0. -1.
         -2   -1    0    0    0  501 -0.00000000000E+00 -0.00000000000E+00 -0.43159869775E+03  0.43159869775E+03  0.00000000000E+00 0.  1.
          6    2    1    2  502    0  0.15751956833E+03  0.34112356774E+02 -0.14439550513E+02  0.23776581134E+03  0.17420681138E+03 0.  0.
         24    2    3    3    0    0  0.41409233290E+02 -0.39771005111E+02  0.37290468959E+01  0.98868190778E+02  0.80402462076E+02 0.  0.
         -6    2    1    2    0  501 -0.15751956833E+03 -0.34112356774E+02 -0.26211571348E+03  0.34887632017E+03  0.16442010895E+03 0.  0.
        -24    2    5    5    0    0 -0.13019777759E+03  0.24067604356E+02 -0.13096061016E+03  0.20274234310E+03  0.80144029117E+02 0.  0.
          5    1    3    3  502    0  0.11611033504E+03  0.73883361884E+02 -0.18168597409E+02  0.13889762057E+03  0.47000000000E+01 0. -1.
        -11    1    4    4    0    0  0.45291513242E+02 -0.28064893781E+02 -0.31255985776E+02  0.61772939719E+02  0.00000000000E+00 0.  1.
         12    1    4    4    0    0 -0.38822799529E+01 -0.11706111330E+02  0.34985032672E+02  0.37095251059E+02  0.00000000000E+00 0. -1.
         -5    1    5    5    0  501 -0.27321790742E+02 -0.58179961129E+02 -0.13115510332E+03  0.14613397707E+03  0.47000000000E+01 0.  1.
         11    1    6    6    0    0 -0.89331588682E+02 -0.57972409830E+01 -0.38735802247E+02  0.97540776679E+02  0.00000000000E+00 0. -1.
        -12    1    6    6    0    0 -0.40866188909E+02  0.29864845339E+02 -0.92224807909E+02  0.10520156642E+03  0.00000000000E+00 0.  1.
<mgrwt>
<rscale>  2 0.23375616E+03</rscale>
<asrwt>0</asrwt>
<pdfrwt beam="1">  1        2 0.23852836E-01 0.23375616E+03</pdfrwt>
<pdfrwt beam="2">  1       -2 0.66399800E-01 0.23375616E+03</pdfrwt>
<totfact> 0.48546886E+02</totfact>
</mgrwt>
</event>
<event>
12    1  0.4404304E-002  0.2142765E+03  0.7546771E-02  0.1138224E+00
          2   -1    0    0  502    0  0.00000000000E+00  0.00000000000E+00  0.80964028885E+03  0.80964028885E+03  0.00000000000E+00 0.  1.
         -2   -1    0    0    0  501 -0.00000000000E+00 -0.00000000000E+00 -0.58347360015E+02  0.58347360015E+02  0.00000000000E+00 0. -1.
          6    2    1    2  502    0 -0.10227982816E+03 -0.73395046559E+02  0.44627401609E+03  0.49453443617E+03  0.17191804737E+03 0.  0.
         24    2    3    3    0    0 -0.59497782125E+02 -0.15774580472E+02  0.10751743316E+03  0.14822744223E+03  0.81379068126E+02 0.  0.
         -6    2    1    2    0  501  0.10227982816E+03  0.73395046559E+02  0.30501891274E+03  0.37345321269E+03  0.17487929790E+03 0.  0.
        -24    2    5    5    0    0 -0.55688584326E+01 -0.48806304870E+01  0.12639154371E+03  0.15054460410E+03  0.81449510524E+02 0.  0.
          5    1    3    3  502    0 -0.42782046035E+02 -0.57620466088E+02  0.33875658293E+03  0.34630699394E+03  0.47000000000E+01 0. -1.
        -11    1    4    4    0    0 -0.20684446155E+02 -0.42255064394E+02  0.25013831159E+02  0.53282534933E+02  0.00000000000E+00 0.  1.
         12    1    4    4    0    0 -0.38813335970E+02  0.26480483922E+02  0.82503602001E+02  0.94944907294E+02  0.00000000000E+00 0. -1.
         -5    1    5    5    0  501  0.10784868659E+03  0.78275677046E+02  0.17862736904E+03  0.22290860859E+03  0.47000000000E+01 0.  1.
         11    1    6    6    0    0  0.12538989760E+02 -0.18398351380E+02  0.12599193627E+03  0.12794410343E+03  0.00000000000E+00 0. -1.
        -12    1    6    6    0    0 -0.18107848192E+02  0.13517720893E+02  0.39960743626E+00  0.22600500667E+02  0.00000000000E+00 0.  1.
<mgrwt>
<rscale>  2 0.21427650E+03</rscale>
<asrwt>0</asrwt>
<pdfrwt beam="1">  1        2 0.12456004E+00 0.21427650E+03</pdfrwt>
<pdfrwt beam="2">  1       -2 0.89765175E-02 0.21427650E+03</pdfrwt>
<totfact> 0.27358943E+03</totfact>
</mgrwt>
</event>
<event>
12    1  0.4404304E-002  0.1735307E+03  0.7546771E-02  0.1174215E+00
          1   -1    0    0  502    0  0.00000000000E+00  0.00000000000E+00  0.71580568838E+03  0.71580568838E+03  0.00000000000E+00 0. -1.
         -1   -1    0    0    0  501 -0.00000000000E+00 -0.00000000000E+00 -0.48608224879E+02  0.48608224879E+02  0.00000000000E+00 0.  1.
          6    2    1    2  502    0  0.17567714891E+02 -0.19089746378E+01  0.47340783886E+03  0.50413139516E+03  0.17239841328E+03 0.  0.
         24    2    3    3    0    0  0.11205275753E+02  0.61666906338E+02  0.21587994952E+03  0.23875415977E+03  0.80442716651E+02 0.  0.
         -6    2    1    2    0  501 -0.17567714891E+02  0.19089746378E+01  0.19378962464E+03  0.26028251810E+03  0.17285919651E+03 0.  0.
        -24    2    5    5    0    0  0.38281313515E+02 -0.45712179688E+02  0.11083156462E+03  0.14941765425E+03  0.80541525626E+02 0.  0.
          5    1    3    3  502    0  0.63624391379E+01 -0.63575880976E+02  0.25752788934E+03  0.26537723539E+03  0.47000000000E+01 0. -1.
        -11    1    4    4    0    0  0.16537646457E+02 -0.15433413539E+02  0.71469750387E+02  0.74964052880E+02  0.00000000000E+00 0.  1.
         12    1    4    4    0    0 -0.53323707037E+01  0.77100319877E+02  0.14441019913E+03  0.16379010689E+03  0.00000000000E+00 0. -1.
         -5    1    5    5    0  501 -0.55849028406E+02  0.47621154326E+02  0.82958060021E+02  0.11086486385E+03  0.47000000000E+01 0.  1.
         11    1    6    6    0    0  0.49975023639E+02 -0.10416655637E+02  0.97246893093E+02  0.10983154337E+03  0.00000000000E+00 0. -1.
        -12    1    6    6    0    0 -0.11693710124E+02 -0.35295524051E+02  0.13584671527E+02  0.39586110885E+02  0.00000000000E+00 0.  1.
<mgrwt>
<rscale>  2 0.17353075E+03</rscale>
<asrwt>0</asrwt>
<pdfrwt beam="1">  1        1 0.11012394E+00 0.17353075E+03</pdfrwt>
<pdfrwt beam="2">  1       -1 0.74781890E-02 0.17353075E+03</pdfrwt>
<totfact> 0.25745679E+03</totfact>
</mgrwt>
</event>
<event>
12    1  0.4404304E-002  0.2042486E+03  0.7546771E-02  0.1146203E+00
          2   -1    0    0  502    0  0.00000000000E+00  0.00000000000E+00  0.40784875157E+03  0.40784875157E+03  0.00000000000E+00 0.  1.
         -2   -1    0    0    0  501 -0.00000000000E+00 -0.00000000000E+00 -0.13495665168E+03  0.13495665168E+03  0.00000000000E+00 0. -1.
          6    2    1    2  502    0 -0.36614438508E+02 -0.10294526758E+03  0.27043952879E+03  0.33945800977E+03  0.17365441670E+03 0.  0.
         24    2    3    3    0    0 -0.86784491214E+02 -0.10299465279E+03  0.21052874262E+03  0.26117372702E+03  0.75828212388E+02 0.  0.
         -6    2    1    2    0  501  0.36614438508E+02  0.10294526758E+03  0.24525711088E+01  0.20334739348E+03  0.17148120044E+03 0.  0.
        -24    2    5    5    0    0  0.74311069706E+02  0.11901125803E+03  0.68118880871E+00  0.16206325793E+03  0.81106232403E+02 0.  0.
          5    1    3    3  502    0  0.50170052706E+02  0.49385203276E-01  0.59910786164E+02  0.78284282753E+02  0.47000000000E+01 0. -1.
        -13    1    4    4    0    0 -0.61816334327E+02 -0.10574590485E+03  0.13851632357E+03  0.18490599632E+03  0.00000000000E+00 0.  1.
         14    1    4    4    0    0 -0.24968156887E+02  0.27512520634E+01  0.72012419057E+02  0.76267730690E+02  0.00000000000E+00 0. -1.
         -5    1    5    5    0  501 -0.37696631198E+02 -0.16065990448E+02  0.17713823001E+01  0.41284135549E+02  0.47000000000E+01 0.  1.
         13    1    6    6    0    0  0.19571008613E+02  0.66345516992E+02 -0.35697472480E+02  0.77839973950E+02  0.00000000000E+00 0. -1.
        -14    1    6    6    0    0  0.54740061093E+02  0.52665741039E+02  0.36378661289E+02  0.84223283983E+02  0.00000000000E+00 0.  1.
<mgrwt>
<rscale>  2 0.20424860E+03</rscale>
<asrwt>0</asrwt>
<pdfrwt beam="1">  1        2 0.62745961E-01 0.20424860E+03</pdfrwt>
<pdfrwt beam="2">  1       -2 0.20762562E-01 0.20424860E+03</pdfrwt>
<totfact> 0.15305957E+03</totfact>
</mgrwt>
</event>
<event>
12    1  0.4404304E-002  0.1787087E+03  0.7546771E-02  0.1169059E+00
         -4   -1    0    0    0  501 -0.00000000000E+00  0.00000000000E+00  0.26542777656E+03  0.26542777656E+03  0.00000000000E+00 0.  1.
          4   -1    0    0  502    0  0.00000000000E+00 -0.00000000000E+00 -0.12469441416E+03  0.12469441416E+03  0.00000000000E+00 0. -1.
          6    2    1    2  502    0 -0.41121421538E+02 -0.20700359995E+02  0.33709739288E+02  0.18151766928E+03  0.17231610930E+03 0.  0.
         24    2    3    3    0    0 -0.15664548891E+02  0.54250222620E+02  0.26400634234E+02  0.10188629848E+03  0.80593793699E+02 0.  0.
         -6    2    1    2    0  501  0.41121421538E+02  0.20700359995E+02  0.10702362311E+03  0.20860452143E+03  0.17303847620E+03 0.  0.
        -24    2    5    5    0    0  0.83117046325E+01 -0.15424840888E+02 -0.54362719985E+01  0.85922714832E+02  0.83941346907E+02 0.  0.
          5    1    3    3  502    0 -0.25456872647E+02 -0.74950582615E+02  0.73091050539E+01  0.79631370803E+02  0.47000000000E+01 0. -1.
        -11    1    4    4    0    0 -0.13773573511E+02  0.16123273390E+01  0.44171630334E+02  0.46297341750E+02  0.00000000000E+00 0.  1.
         12    1    4    4    0    0 -0.18909753796E+01  0.52637895281E+02 -0.17770996100E+02  0.55588956726E+02  0.00000000000E+00 0. -1.
         -5    1    5    5    0  501  0.32809716906E+02  0.36125200884E+02  0.11245989511E+03  0.12268180660E+03  0.47000000000E+01 0.  1.
         13    1    6    6    0    0  0.39724461543E+02 -0.40112904570E+01 -0.25085103158E+02  0.47152790972E+02  0.00000000000E+00 0. -1.
        -14    1    6    6    0    0 -0.31412756911E+02 -0.11413550431E+02  0.19648831159E+02  0.38769923860E+02  0.00000000000E+00 0.  1.
<mgrwt>
<rscale>  2 0.17870873E+03</rscale>
<asrwt>0</asrwt>
<pdfrwt beam="2">  1        4 0.19183756E-01 0.17870873E+03</pdfrwt>
<pdfrwt beam="1">  1       -4 0.40835042E-01 0.17870873E+03</pdfrwt>
<totfact> 0.24810911E+02</totfact>
</mgrwt>
</event>
<event>
12    1  0.4404304E-002  0.1861509E+03  0.7546771E-02  0.1161980E+00
         -1   -1    0    0    0  501 -0.00000000000E+00  0.00000000000E+00  0.82287201900E+02  0.82287201900E+02  0.00000000000E+00 0.  1.
          1   -1    0    0  502    0  0.00000000000E+00 -0.00000000000E+00 -0.90926681274E+03  0.90926681274E+03  0.00000000000E+00 0. -1.
          6    2    1    2  502    0 -0.53248398605E+02 -0.38900148992E+02 -0.51756969666E+02  0.19463569154E+03  0.17565777798E+03 0.  0.
         24    2    3    3    0    0  0.38429853968E+02  0.19482445863E+00 -0.24704604554E+02  0.91256586291E+02  0.78997186169E+02 0.  0.
         -6    2    1    2    0  501  0.53248398605E+02  0.38900148992E+02 -0.77522264118E+03  0.79691832310E+03  0.17251103373E+03 0.  0.
        -24    2    5    5    0    0  0.83279082238E+01  0.44986815163E+02 -0.20706590633E+03  0.22693668891E+03  0.80813387609E+02 0.  0.
          5    1    3    3  502    0 -0.91678252573E+02 -0.39094973451E+02 -0.27052365112E+02  0.10337910525E+03  0.47000000000E+01 0. -1.
        -11    1    4    4    0    0 -0.70457825897E+01  0.27183013568E+02  0.78505233223E+01  0.29158017686E+02  0.00000000000E+00 0.  1.
         12    1    4    4    0    0  0.45475636558E+02 -0.26988189109E+02 -0.32555127877E+02  0.62098568605E+02  0.00000000000E+00 0. -1.
         -5    1    5    5    0  501  0.44920490381E+02 -0.60866661708E+01 -0.56815673485E+03  0.56998163419E+03  0.47000000000E+01 0.  1.
         11    1    6    6    0    0  0.13084271484E+01  0.40200793983E+02 -0.21287701693E+03  0.21664357861E+03  0.00000000000E+00 0. -1.
        -12    1    6    6    0    0  0.70194810754E+01  0.47860211805E+01  0.58111105964E+01  0.10293110301E+02  0.00000000000E+00 0.  1.
<mgrwt>
<rscale>  2 0.18615085E+03</rscale>
<asrwt>0</asrwt>
<pdfrwt beam="2">  1        1 0.13988720E+00 0.18615085E+03</pdfrwt>
<pdfrwt beam="1">  1       -1 0.12659570E-01 0.18615085E+03</pdfrwt>
<totfact> 0.79593262E+02</totfact>
</mgrwt>
</event>
<event>
12    1  0.4404304E-002  0.2904482E+03  0.7546771E-02  0.1090115E+00
         -1   -1    0    0    0  501 -0.00000000000E+00  0.00000000000E+00  0.34904543715E+02  0.34904543715E+02  0.00000000000E+00 0. -1.
          1   -1    0    0  502    0  0.00000000000E+00 -0.00000000000E+00 -0.25043783183E+04  0.25043783183E+04  0.00000000000E+00 0.  1.
          6    2    1    2  502    0 -0.14324745261E+03  0.18337613201E+03 -0.99843365103E+03  0.10398909432E+04  0.17423197117E+03 0.  0.
         24    2    3    3    0    0 -0.12218919980E+03  0.16648730596E+03 -0.58405538238E+03  0.62460776032E+03  0.79786847102E+02 0.  0.
         -6    2    1    2    0  501  0.14324745261E+03 -0.18337613201E+03 -0.14710401236E+04  0.14993919189E+04  0.17340831185E+03 0.  0.
        -24    2    5    5    0    0  0.10951496019E+03 -0.15255938655E+03 -0.13999616077E+04  0.14147645104E+04  0.79988897991E+02 0.  0.
          5    1    3    3  502    0 -0.21058252806E+02  0.16888826054E+02 -0.41437826866E+03  0.41528318289E+03  0.47000000000E+01 0. -1.
        -11    1    4    4    0    0 -0.13421337760E+02  0.53248851180E+02 -0.24326114320E+03  0.24938234952E+03  0.00000000000E+00 0.  1.
         12    1    4    4    0    0 -0.10876786204E+03  0.11323845478E+03 -0.34079423917E+03  0.37522541080E+03  0.00000000000E+00 0. -1.
         -5    1    5    5    0  501  0.33732492419E+02 -0.30816745466E+02 -0.71078515868E+02  0.84627408468E+02  0.47000000000E+01 0.  1.
         11    1    6    6    0    0 -0.96572491361E+01 -0.11138919483E+02 -0.48009757846E+02  0.50222254396E+02  0.00000000000E+00 0. -1.
        -12    1    6    6    0    0  0.11917220932E+03 -0.14142046706E+03 -0.13519518499E+04  0.13645422560E+04  0.00000000000E+00 0.  1.
<mgrwt>
<rscale>  2 0.29044815E+03</rscale>
<asrwt>0</asrwt>
<pdfrwt beam="2">  1        1 0.38528902E+00 0.29044815E+03</pdfrwt>
<pdfrwt beam="1">  1       -1 0.53699291E-02 0.29044815E+03</pdfrwt>
<totfact> 0.24782271E+02</totfact>
</mgrwt>
</event>
<event>
12    1  0.4404304E-002  0.1907526E+03  0.7546771E-02  0.1157784E+00
         -1   -1    0    0    0  501 -0.00000000000E+00  0.00000000000E+00  0.42010830164E+02  0.42010830164E+02  0.00000000000E+00 0. -1.
          1   -1    0    0  502    0  0.00000000000E+00 -0.00000000000E+00 -0.11065937783E+04  0.11065937783E+04  0.00000000000E+00 0.  1.
          6    2    1    2  502    0 -0.42654040811E+02  0.68274970169E+02 -0.26344238820E+03  0.32494716546E+03  0.17235988423E+03 0.  0.
         24    2    3    3    0    0 -0.77227635243E+02 -0.63356411625E+01 -0.12093965748E+03  0.16035313453E+03  0.71291507264E+02 0.  0.
         -6    2    1    2    0  501  0.42654040811E+02 -0.68274970169E+02 -0.80114055996E+03  0.82365744303E+03  0.17350662204E+03 0.  0.
        -24    2    5    5    0    0  0.42378854252E+02 -0.76898088880E+02 -0.80316103825E+03  0.81362717701E+03  0.95980448184E+02 0.  0.
          5    1    3    3  502    0  0.34573594432E+02  0.74610611332E+02 -0.14250273072E+03  0.16459403093E+03  0.47000000000E+01 0. -1.
        -11    1    4    4    0    0 -0.77312397939E+01  0.25787866925E+02 -0.45506493630E+02  0.52873690166E+02  0.00000000000E+00 0.  1.
         12    1    4    4    0    0 -0.69496395449E+02 -0.32123508087E+02 -0.75433163849E+02  0.10747944436E+03  0.00000000000E+00 0. -1.
         -5    1    5    5    0  501  0.27518655875E+00  0.86231187105E+01  0.20204782932E+01  0.10030266022E+02  0.47000000000E+01 0.  1.
         11    1    6    6    0    0 -0.21904165196E+02 -0.15466827927E+02 -0.39423510212E+03  0.39514596159E+03  0.00000000000E+00 0. -1.
        -12    1    6    6    0    0  0.64283019449E+02 -0.61431260953E+02 -0.40892593613E+03  0.41848121541E+03  0.00000000000E+00 0.  1.
<mgrwt>
<rscale>  2 0.19075255E+03</rscale>
<asrwt>0</asrwt>
<pdfrwt beam="2">  1        1 0.17024515E+00 0.19075255E+03</pdfrwt>
<pdfrwt beam="1">  1       -1 0.64632063E-02 0.19075255E+03</pdfrwt>
<totfact> 0.15920787E+03</totfact>
</mgrwt>
</event>
<event>
12    1  0.4404304E-002  0.1858194E+03  0.7546771E-02  0.1162287E+00
         -2   -1    0    0    0  501 -0.00000000000E+00  0.00000000000E+00  0.29528604545E+02  0.29528604545E+02  0.00000000000E+00 0. -1.
          2   -1    0    0  502    0  0.00000000000E+00 -0.00000000000E+00 -0.13620569612E+04  0.13620569612E+04  0.00000000000E+00 0.  1.
          6    2    1    2  502    0  0.45938200109E+02 -0.50140079932E+02 -0.40311427586E+03  0.44368664573E+03  0.17243078134E+03 0.  0.
         24    2    3    3    0    0  0.79993125743E+02 -0.59535098802E+02 -0.38051071740E+03  0.40148457002E+03  0.80362464814E+02 0.  0.
         -6    2    1    2    0  501 -0.45938200109E+02  0.50140079932E+02 -0.92941408077E+03  0.94789891999E+03  0.17342861107E+03 0.  0.
        -24    2    5    5    0    0 -0.28031610728E+01  0.39778249402E+02 -0.86332554850E+03  0.86816321141E+03  0.82378347396E+02 0.  0.
          5    1    3    3  502    0 -0.34054925634E+02  0.93950188707E+01 -0.22603558461E+02  0.42202075714E+02  0.47000000000E+01 0. -1.
        -11    1    4    4    0    0  0.10667043826E+02 -0.51701336427E+02 -0.22385767528E+03  0.22999798433E+03  0.00000000000E+00 0.  1.
         12    1    4    4    0    0  0.69326081917E+02 -0.78337623751E+01 -0.15665304212E+03  0.17148658569E+03  0.00000000000E+00 0. -1.
         -5    1    5    5    0  501 -0.43135039036E+02  0.10361830530E+02 -0.66088532269E+02  0.79735708575E+02  0.47000000000E+01 0.  1.
         11    1    6    6    0    0  0.63141699693E+01  0.33545818031E+02 -0.12012914342E+03  0.12488475387E+03  0.00000000000E+00 0. -1.
        -12    1    6    6    0    0 -0.91173310420E+01  0.62324313709E+01 -0.74319640508E+03  0.74327845754E+03  0.00000000000E+00 0.  1.
<mgrwt>
<rscale>  2 0.18581938E+03</rscale>
<asrwt>0</asrwt>
<pdfrwt beam="2">  1        2 0.20954725E+00 0.18581938E+03</pdfrwt>
<pdfrwt beam="1">  1       -2 0.45428617E-02 0.18581938E+03</pdfrwt>
<totfact> 0.36545556E+03</totfact>
</mgrwt>
</event>
<event>
12    1  0.4404304E-002  0.1868269E+03  0.7546771E-02  0.1161355E+00
          2   -1    0    0  502    0  0.00000000000E+00  0.00000000000E+00  0.12320368271E+04  0.12320368271E+04  0.00000000000E+00 0. -1.
         -2   -1    0    0    0  501 -0.00000000000E+00 -0.00000000000E+00 -0.45303112601E+02  0.45303112601E+02  0.00000000000E+00 0.  1.
          6    2    1    2  502    0  0.39591387000E+02 -0.58028533981E+02  0.20166691859E+03  0.27463928336E+03  0.17269163625E+03 0.  0.
         24    2    3    3    0    0  0.20818879924E+02 -0.10397878540E+03  0.16926033850E+03  0.21517409135E+03  0.80036328165E+02 0.  0.
         -6    2    1    2    0  501 -0.39591387000E+02  0.58028533981E+02  0.98506679590E+03  0.10027006563E+04  0.17354315067E+03 0.  0.
        -24    2    5    5    0    0  0.35904869310E+02  0.36751007520E+02  0.35505386689E+03  0.36780633554E+03  0.81107680765E+02 0.  0.
          5    1    3    3  502    0  0.18772507076E+02  0.45950251417E+02  0.32406580093E+02  0.59465192008E+02  0.47000000000E+01 0. -1.
        -11    1    4    4    0    0 -0.17715163520E+02 -0.31788435282E+02  0.12746748945E+02  0.38559191445E+02  0.00000000000E+00 0.  1.
         12    1    4    4    0    0  0.38534043444E+02 -0.72190350116E+02  0.15651358955E+03  0.17661489990E+03  0.00000000000E+00 0. -1.
         -5    1    5    5    0  501 -0.75496256311E+02  0.21277526461E+02  0.63001292901E+03  0.63489432079E+03  0.47000000000E+01 0.  1.
         11    1    6    6    0    0  0.98331179529E+01 -0.25853036811E+02  0.12131688281E+03  0.12443012406E+03  0.00000000000E+00 0. -1.
        -12    1    6    6    0    0  0.26071751358E+02  0.62604044331E+02  0.23373698408E+03  0.24337621148E+03  0.00000000000E+00 0.  1.
<mgrwt>
<rscale>  2 0.18682690E+03</rscale>
<asrwt>0</asrwt>
<pdfrwt beam="1">  1        2 0.18954410E+00 0.18682690E+03</pdfrwt>
<pdfrwt beam="2">  1       -2 0.69697106E-02 0.18682690E+03</pdfrwt>
<totfact> 0.22434669E+03</totfact>
</mgrwt>
</event>
<event>
12    1  0.4404304E-002  0.1850391E+03  0.7546771E-02  0.1163013E+00
          3   -1    0    0  502    0  0.00000000000E+00  0.00000000000E+00  0.44864964606E+03  0.44864964606E+03  0.00000000000E+00 0.  1.
         -3   -1    0    0    0  501 -0.00000000000E+00 -0.00000000000E+00 -0.11310266107E+03  0.11310266107E+03  0.00000000000E+00 0. -1.
          6    2    1    2  502    0  0.29938193424E+02  0.55152385045E+02  0.77432168393E+01  0.18545181446E+03  0.17433971744E+03 0.  0.
         24    2    3    3    0    0 -0.18186117209E+01  0.62189854535E+02  0.62656694076E+02  0.12145493459E+03  0.83393971418E+02 0.  0.
         -6    2    1    2    0  501 -0.29938193424E+02 -0.55152385045E+02  0.32780376816E+03  0.37630049268E+03  0.17380641349E+03 0.  0.
        -24    2    5    5    0    0 -0.49423809023E+02 -0.93187942628E+02  0.29024360944E+03  0.31921066540E+03  0.80792267777E+02 0.  0.
          5    1    3    3  502    0  0.31756805145E+02 -0.70374694902E+01 -0.54913477237E+02  0.63996879862E+02  0.47000000000E+01 0. -1.
        -13    1    4    4    0    0  0.16045834743E+02  0.46558961495E+02  0.78676147177E+02  0.92817788396E+02  0.00000000000E+00 0.  1.
         14    1    4    4    0    0 -0.17864446464E+02  0.15630893040E+02 -0.16019453101E+02  0.28637146197E+02  0.00000000000E+00 0. -1.
         -5    1    5    5    0  501  0.19485615599E+02  0.38035557583E+02  0.37560158717E+02  0.57089827279E+02  0.47000000000E+01 0.  1.
         13    1    6    6    0    0 -0.21860408281E+02 -0.41753427850E+02  0.38687842839E+02  0.60975202919E+02  0.00000000000E+00 0. -1.
        -14    1    6    6    0    0 -0.27563400742E+02 -0.51434514778E+02  0.25155576660E+03  0.25823546248E+03  0.00000000000E+00 0.  1.
<mgrwt>
<rscale>  2 0.18503907E+03</rscale>
<asrwt>0</asrwt>
<pdfrwt beam="1">  1        3 0.69023021E-01 0.18503907E+03</pdfrwt>
<pdfrwt beam="2">  1       -3 0.17400410E-01 0.18503907E+03</pdfrwt>
<totfact> 0.14266894E+02</totfact>
</mgrwt>
</event>
<event>
12    1  0.4404304E-002  0.2106705E+03  0.7546771E-02  0.1141036E+00
         -2   -1    0    0    0  501 -0.00000000000E+00  0.00000000000E+00  0.63392773558E+02  0.63392773558E+02  0.00000000000E+00 0.  1.
          2   -1    0    0  502    0  0.00000000000E+00 -0.00000000000E+00 -0.70019954913E+03  0.70019954913E+03  0.00000000000E+00 0. -1.
          6    2    1    2  502    0 -0.78659589796E+02 -0.93701669541E+02 -0.31996321120E+03  0.38237322655E+03  0.16989848121E+03 0.  0.
         24    2    3    3    0    0 -0.62769725956E+02 -0.77003367762E+02 -0.33176750008E+03  0.35605303865E+03  0.82671247011E+02 0.  0.
         -6    2    1    2    0  501  0.78659589796E+02  0.93701669541E+02 -0.31684356437E+03  0.38121909614E+03  0.17312082786E+03 0.  0.
        -24    2    5    5    0    0 -0.37102066426E+01  0.60368928425E+02 -0.25028940964E+03  0.27010023857E+03  0.81554749380E+02 0.  0.
          5    1    3    3  502    0 -0.15889863840E+02 -0.16698301779E+02  0.11804288873E+02  0.26320187897E+02  0.47000000000E+01 0. -1.
        -11    1    4    4    0    0 -0.80872565503E+02 -0.74377173607E+02 -0.26625880558E+03  0.28803834355E+03  0.00000000000E+00 0.  1.
         12    1    4    4    0    0  0.18102839546E+02 -0.26261941551E+01 -0.65508694495E+02  0.68014695102E+02  0.00000000000E+00 0. -1.
         -5    1    5    5    0  501  0.82369796439E+02  0.33332741116E+02 -0.66554154735E+02  0.11111885757E+03  0.47000000000E+01 0.  1.
         13    1    6    6    0    0 -0.68339651589E+01  0.66863917699E+02 -0.25346458235E+03  0.26222467671E+03  0.00000000000E+00 0. -1.
        -14    1    6    6    0    0  0.31237585163E+01 -0.64949892745E+01  0.31751727084E+01  0.78755618639E+01  0.00000000000E+00 0.  1.
<mgrwt>
<rscale>  2 0.21067048E+03</rscale>
<asrwt>0</asrwt>
<pdfrwt beam="2">  1        2 0.10772301E+00 0.21067048E+03</pdfrwt>
<pdfrwt beam="1">  1       -2 0.97527340E-02 0.21067048E+03</pdfrwt>
<totfact> 0.28721360E+03</totfact>
</mgrwt>
</event>
<event>
12    1  0.4404304E-002  0.1768484E+03  0.7546771E-02  0.1170889E+00
          1   -1    0    0  502    0  0.00000000000E+00  0.00000000000E+00  0.75173957255E+03  0.75173957255E+03  0.00000000000E+00 0. -1.
         -1   -1    0    0    0  501 -0.00000000000E+00 -0.00000000000E+00 -0.42119390830E+02  0.42119390830E+02  0.00000000000E+00 0.  1.
          6    2    1    2  502    0 -0.31437889771E+02 -0.12677885374E+02  0.39759883599E+03  0.43492977709E+03  0.17300291016E+03 0.  0.
         24    2    3    3    0    0  0.53476072199E+01 -0.42026591762E+02  0.37104212946E+03  0.38069078726E+03  0.73880865941E+02 0.  0.
         -6    2    1    2    0  501  0.31437889771E+02  0.12677885374E+02  0.31202134573E+03  0.35892918629E+03  0.17413721857E+03 0.  0.
        -24    2    5    5    0    0 -0.10873103165E+02  0.38493447782E+02  0.29112795531E+03  0.30493578717E+03  0.81427133320E+02 0.  0.
          5    1    3    3  502    0 -0.36785496991E+02  0.29348706388E+02  0.26556706527E+02  0.54238989824E+02  0.47000000000E+01 0. -1.
        -13    1    4    4    0    0 -0.10929559019E+02 -0.29438681624E+02  0.50354129894E+02  0.59343320041E+02  0.00000000000E+00 0.  1.
         14    1    4    4    0    0  0.16277166239E+02 -0.12587910138E+02  0.32068799957E+03  0.32134746722E+03  0.00000000000E+00 0. -1.
         -5    1    5    5    0  501  0.42310992935E+02 -0.25815562409E+02  0.20893390422E+02  0.53993399124E+02  0.47000000000E+01 0.  1.
         11    1    6    6    0    0 -0.22330447100E+02 -0.20410664680E+02  0.83574031863E+02  0.88881172935E+02  0.00000000000E+00 0. -1.
        -12    1    6    6    0    0  0.11457343936E+02  0.58904112462E+02  0.20755392344E+03  0.21605461423E+03  0.00000000000E+00 0.  1.
<mgrwt>
<rscale>  2 0.17684835E+03</rscale>
<asrwt>0</asrwt>
<pdfrwt beam="1">  1        1 0.11565223E+00 0.17684835E+03</pdfrwt>
<pdfrwt beam="2">  1       -1 0.64799069E-02 0.17684835E+03</pdfrwt>
<totfact> 0.29756095E+03</totfact>
</mgrwt>
</event>
<event>
12    1  0.4404304E-002  0.1764422E+03  0.7546771E-02  0.1171291E+00
          1   -1    0    0  502    0  0.00000000000E+00  0.00000000000E+00  0.34388525130E+02  0.34388525130E+02  0.00000000000E+00 0. -1.
         -1   -1    0    0    0  501 -0.00000000000E+00 -0.00000000000E+00 -0.96791966110E+03  0.96791966110E+03  0.00000000000E+00 0.  1.
          6    2    1    2  502    0 -0.10649680713E+02  0.30158234159E+02 -0.59496629840E+03  0.62066194240E+03  0.17382006711E+03 0.  0.
         24    2    3    3    0    0 -0.74736867247E+02  0.95453015149E+01 -0.37182223261E+03  0.38753660151E+03  0.79095718837E+02 0.  0.
         -6    2    1    2    0  501  0.10649680713E+02 -0.30158234159E+02 -0.33856483757E+03  0.38164624383E+03  0.17321885406E+03 0.  0.
        -24    2    5    5    0    0  0.70189566111E+02 -0.26513143828E+01 -0.17440192690E+03  0.20480399823E+03  0.81209857314E+02 0.  0.
          5    1    3    3  502    0  0.64087186534E+02  0.20612932644E+02 -0.22314406579E+03  0.23312534089E+03  0.47000000000E+01 0. -1.
        -13    1    4    4    0    0 -0.17131672590E+02  0.39050006153E+02 -0.18397288631E+03  0.18885025837E+03  0.00000000000E+00 0.  1.
         14    1    4    4    0    0 -0.57605194657E+02 -0.29504704638E+02 -0.18784934630E+03  0.19868634314E+03  0.00000000000E+00 0. -1.
         -5    1    5    5    0  501 -0.59539885399E+02 -0.27506919776E+02 -0.16416291068E+03  0.17684224561E+03  0.47000000000E+01 0.  1.
         11    1    6    6    0    0  0.45107307076E+02 -0.40182401881E+02 -0.11798062058E+03  0.13254705355E+03  0.00000000000E+00 0. -1.
        -12    1    6    6    0    0  0.25082259036E+02  0.37531087499E+02 -0.56421306313E+02  0.72256944671E+02  0.00000000000E+00 0.  1.
<mgrwt>
<rscale>  2 0.17644221E+03</rscale>
<asrwt>0</asrwt>
<pdfrwt beam="1">  1        1 0.52905423E-02 0.17644221E+03</pdfrwt>
<pdfrwt beam="2">  1       -1 0.14891072E+00 0.17644221E+03</pdfrwt>
<totfact> 0.59049922E+02</totfact>
</mgrwt>
</event>
<event>
12    1  0.4404304E-002  0.1956309E+03  0.7546771E-02  0.1153478E+00
          1   -1    0    0  502    0  0.00000000000E+00  0.00000000000E+00  0.10540595295E+04  0.10540595295E+04  0.00000000000E+00 0.  1.
         -1   -1    0    0    0  501 -0.00000000000E+00 -0.00000000000E+00 -0.37463875719E+02  0.37463875719E+02  0.00000000000E+00 0. -1.
          6    2    1    2  502    0 -0.91099042701E+02 -0.75653017321E+01  0.60369157356E+03  0.63454408386E+03  0.17276113277E+03 0.  0.
         24    2    3    3    0    0 -0.59170438465E+02  0.68763144999E+02  0.32088112112E+03  0.33984201471E+03  0.65562109278E+02 0.  0.
         -6    2    1    2    0  501  0.91099042701E+02  0.75653017321E+01  0.41290408021E+03  0.45697932135E+03  0.17315903476E+03 0.  0.
        -24    2    5    5    0    0  0.66008617357E+02 -0.53344501161E+02  0.33732679586E+03  0.35661224785E+03  0.78613960252E+02 0.  0.
          5    1    3    3  502    0 -0.31928604236E+02 -0.76328446732E+02  0.28281045244E+03  0.29470206915E+03  0.47000000000E+01 0. -1.
        -11    1    4    4    0    0 -0.37590764019E+02  0.24573053666E+02  0.24726795846E+03  0.25131323838E+03  0.00000000000E+00 0.  1.
         12    1    4    4    0    0 -0.21579674445E+02  0.44190091333E+02  0.73613162664E+02  0.88528776331E+02  0.00000000000E+00 0. -1.
         -5    1    5    5    0  501  0.25090425343E+02  0.60909802893E+02  0.75577284351E+02  0.10036707350E+03  0.47000000000E+01 0.  1.
         13    1    6    6    0    0  0.23463158513E+02 -0.37041201053E+02  0.53596848601E+02  0.69247328922E+02  0.00000000000E+00 0. -1.
        -14    1    6    6    0    0  0.42545458844E+02 -0.16303300108E+02  0.28372994726E+03  0.28736491893E+03  0.00000000000E+00 0.  1.
<mgrwt>
<rscale>  2 0.19563087E+03</rscale>
<asrwt>0</asrwt>
<pdfrwt beam="1">  1        1 0.16216298E+00 0.19563087E+03</pdfrwt>
<pdfrwt beam="2">  1       -1 0.57636740E-02 0.19563087E+03</pdfrwt>
<totfact> 0.20635670E+03</totfact>
</mgrwt>
</event>
<event>
12    1  0.5268979E-002  0.1855782E+03  0.7546771E-02  0.1162511E+00
         -2   -1    0    0    0  501 -0.00000000000E+00  0.00000000000E+00  0.24200083755E+02  0.24200083755E+02  0.00000000000E+00 0. -1.
          2   -1    0    0  502    0  0.00000000000E+00 -0.00000000000E+00 -0.17082382149E+04  0.17082382149E+04  0.00000000000E+00 0.  1.
          6    2    1    2  502    0  0.20859124174E+02 -0.61952579941E+02 -0.48813596208E+03  0.52222348545E+03  0.17368772569E+03 0.  0.
         24    2    3    3    0    0 -0.29487539046E+02 -0.72550485322E+02 -0.42962365250E+03  0.44416656731E+03  0.81082481804E+02 0.  0.
         -6    2    1    2    0  501 -0.20859124174E+02  0.61952579941E+02 -0.11959021691E+04  0.12102148132E+04  0.17367979419E+03 0.  0.
        -24    2    5    5    0    0  0.25240173077E+02 -0.15146402389E+02 -0.58963953110E+03  0.59731525009E+03  0.90797860696E+02 0.  0.
          5    1    3    3  502    0  0.50346663220E+02  0.10597905382E+02 -0.58512309587E+02  0.78056918137E+02  0.47000000000E+01 0. -1.
        -13    1    4    4    0    0  0.16989245576E+02  0.46073484902E+01 -0.13324081493E+03  0.13439857473E+03  0.00000000000E+00 0.  1.
         14    1    4    4    0    0 -0.46476784622E+02 -0.77157833812E+02 -0.29638283756E+03  0.30976799258E+03  0.00000000000E+00 0. -1.
         -5    1    5    5    0  501 -0.46099297251E+02  0.77098982329E+02 -0.60626263795E+03  0.61289956311E+03  0.47000000000E+01 0.  1.
         13    1    6    6    0    0 -0.21542362253E+01  0.14262962478E+01  0.29156857175E+01  0.38956742554E+01  0.00000000000E+00 0. -1.
        -14    1    6    6    0    0  0.27394409302E+02 -0.16572698636E+02 -0.59255521682E+03  0.59341957583E+03  0.00000000000E+00 0.  1.
<mgrwt>
<rscale>  2 0.18557821E+03</rscale>
<asrwt>0</asrwt>
<pdfrwt beam="2">  1        2 0.26280594E+00 0.18557821E+03</pdfrwt>
<pdfrwt beam="1">  1       -2 0.37230889E-02 0.18557821E+03</pdfrwt>
<totfact> 0.32356607E+03</totfact>
</mgrwt>
</event>
<event>
12    1  0.4404304E-002  0.1791323E+03  0.7546771E-02  0.1168645E+00
         -1   -1    0    0    0  501 -0.00000000000E+00  0.00000000000E+00  0.97786421875E+02  0.97786421875E+02  0.00000000000E+00 0. -1.
          1   -1    0    0  502    0  0.00000000000E+00 -0.00000000000E+00 -0.53775859032E+03  0.53775859032E+03  0.00000000000E+00 0.  1.
          6    2    1    2  502    0 -0.26400805131E+02  0.56216122606E+01 -0.18756440614E+02  0.17625577560E+03  0.17316376448E+03 0.  0.
         24    2    3    3    0    0  0.37205472992E+02 -0.36503481217E+02 -0.26981833431E+02  0.99379061278E+02  0.80196178984E+02 0.  0.
         -6    2    1    2    0  501  0.26400805131E+02 -0.56216122606E+01 -0.42121572783E+03  0.45928923660E+03  0.18109474992E+03 0.  0.
        -24    2    5    5    0    0  0.44939350322E+02 -0.54915036830E+02 -0.37210812513E+03  0.38712854088E+03  0.79805036794E+02 0.  0.
          5    1    3    3  502    0 -0.63606278123E+02  0.42125093478E+02  0.82253928172E+01  0.76876714317E+02  0.47000000000E+01 0. -1.
        -13    1    4    4    0    0 -0.21293077414E+02 -0.27765619289E+02 -0.16328039073E+01  0.35028428581E+02  0.00000000000E+00 0.  1.
         14    1    4    4    0    0  0.58498550406E+02 -0.87378619282E+01 -0.25349029524E+02  0.64350632697E+02  0.00000000000E+00 0. -1.
         -5    1    5    5    0  501 -0.18538545190E+02  0.49293424570E+02 -0.49107602692E+02  0.72160695713E+02  0.47000000000E+01 0.  1.
         13    1    6    6    0    0 -0.32874434107E+01 -0.47358068484E+02 -0.10024178041E+03  0.11091441960E+03  0.00000000000E+00 0. -1.
        -14    1    6    6    0    0  0.48226793732E+02 -0.75569683464E+01 -0.27186634472E+03  0.27621412128E+03  0.00000000000E+00 0.  1.
<mgrwt>
<rscale>  2 0.17913226E+03</rscale>
<asrwt>0</asrwt>
<pdfrwt beam="2">  1        1 0.82732091E-01 0.17913226E+03</pdfrwt>
<pdfrwt beam="1">  1       -1 0.15044065E-01 0.17913226E+03</pdfrwt>
<totfact> 0.13041169E+03</totfact>
</mgrwt>
</event>
<event>
12    1  0.4404304E-002  0.1727760E+03  0.7546771E-02  0.1174983E+00
          1   -1    0    0  502    0  0.00000000000E+00  0.00000000000E+00  0.78550553165E+03  0.78550553165E+03  0.00000000000E+00 0.  1.
         -1   -1    0    0    0  501 -0.00000000000E+00 -0.00000000000E+00 -0.38381702051E+02  0.38381702051E+02  0.00000000000E+00 0. -1.
          6    2    1    2  502    0 -0.23860478535E+01  0.17261558053E+02  0.33109767392E+03  0.37312603901E+03  0.17115407298E+03 0.  0.
         24    2    3    3    0    0  0.61706701849E+02 -0.84080815166E+00  0.16271869030E+03  0.19199308134E+03  0.81089747190E+02 0.  0.
         -6    2    1    2    0  501  0.23860478535E+01 -0.17261558053E+02  0.41602615568E+03  0.45076119469E+03  0.17263903910E+03 0.  0.
        -24    2    5    5    0    0 -0.15154439565E+02  0.33630895479E+01  0.69509106148E+02  0.10315624593E+03  0.74623909224E+02 0.  0.
          5    1    3    3  502    0 -0.64092749702E+02  0.18102366205E+02  0.16837898363E+03  0.18113295767E+03  0.47000000000E+01 0. -1.
        -13    1    4    4    0    0 -0.12730440601E+02 -0.13560793673E+02  0.69915217466E+02  0.72347058519E+02  0.00000000000E+00 0.  1.
         14    1    4    4    0    0  0.74437142449E+02  0.12719985521E+02  0.92803472829E+02  0.11964602282E+03  0.00000000000E+00 0. -1.
         -5    1    5    5    0  501  0.17540487418E+02 -0.20624647601E+02  0.34651704953E+03  0.34760494876E+03  0.47000000000E+01 0.  1.
         11    1    6    6    0    0  0.19932177093E+02 -0.24362213321E+02  0.30033257734E+02  0.43506386792E+02  0.00000000000E+00 0. -1.
        -12    1    6    6    0    0 -0.35086616658E+02  0.27725302869E+02  0.39475848414E+02  0.59649859142E+02  0.00000000000E+00 0.  1.
<mgrwt>
<rscale>  2 0.17277598E+03</rscale>
<asrwt>0</asrwt>
<pdfrwt beam="1">  1        1 0.12084699E+00 0.17277598E+03</pdfrwt>
<pdfrwt beam="2">  1       -1 0.59048778E-02 0.17277598E+03</pdfrwt>
<totfact> 0.32013617E+03</totfact>
</mgrwt>
</event>
<event>
12    1  0.4404304E-002  0.2067506E+03  0.7546771E-02  0.1144165E+00
          1   -1    0    0  502    0  0.00000000000E+00  0.00000000000E+00  0.14007685716E+04  0.14007685716E+04  0.00000000000E+00 0.  1.
         -1   -1    0    0    0  501 -0.00000000000E+00 -0.00000000000E+00 -0.36490351753E+02  0.36490351753E+02  0.00000000000E+00 0. -1.
          6    2    1    2  502    0 -0.10711583074E+03  0.42163431230E+02  0.39151638431E+03  0.44278015416E+03  0.17180695449E+03 0.  0.
         24    2    3    3    0    0  0.45226507275E+00 -0.21321859759E+02  0.15404062417E+03  0.17441826405E+03  0.78983483682E+02 0.  0.
         -6    2    1    2    0  501  0.10711583074E+03 -0.42163431230E+02  0.97276183550E+03  0.99447876915E+03  0.17167084073E+03 0.  0.
        -24    2    5    5    0    0  0.12050418650E+03 -0.29253524692E+01  0.52580918752E+03  0.54558275176E+03  0.81580761723E+02 0.  0.
          5    1    3    3  502    0 -0.10756809582E+03  0.63485290989E+02  0.23747576014E+03  0.26836189011E+03  0.47000000000E+01 0. -1.
        -11    1    4    4    0    0 -0.15539015821E+02 -0.27878783920E+02  0.16752059446E+02  0.36046069151E+02  0.00000000000E+00 0.  1.
         12    1    4    4    0    0  0.15991280894E+02  0.65569241613E+01  0.13728856472E+03  0.13837219490E+03  0.00000000000E+00 0. -1.
         -5    1    5    5    0  501 -0.13388355758E+02 -0.39238078761E+02  0.44695264798E+03  0.44889601740E+03  0.47000000000E+01 0.  1.
         13    1    6    6    0    0  0.10395116892E+03 -0.47516340841E+01  0.27196753003E+03  0.29119539993E+03  0.00000000000E+00 0. -1.
        -14    1    6    6    0    0  0.16553017581E+02  0.18262816149E+01  0.25384165748E+03  0.25438735183E+03  0.00000000000E+00 0.  1.
<mgrwt>
<rscale>  2 0.20675058E+03</rscale>
<asrwt>0</asrwt>
<pdfrwt beam="1">  1        1 0.21550281E+00 0.20675058E+03</pdfrwt>
<pdfrwt beam="2">  1       -1 0.56139014E-02 0.20675058E+03</pdfrwt>
<totfact> 0.12359655E+03</totfact>
</mgrwt>
</event>
<event>
12    1  0.4404304E-002  0.1818759E+03  0.7546771E-02  0.1166000E+00
         -2   -1    0    0    0  501 -0.00000000000E+00  0.00000000000E+00  0.40241865486E+03  0.40241865486E+03  0.00000000000E+00 0. -1.
          2   -1    0    0  502    0  0.00000000000E+00 -0.00000000000E+00 -0.14579756935E+03  0.14579756935E+03  0.00000000000E+00 0.  1.
          6    2    1    2  502    0  0.50243048717E+02  0.20601037254E+02  0.30899699022E+03  0.35810989930E+03  0.17266960742E+03 0.  0.
         24    2    3    3    0    0 -0.23173786232E+02  0.55285305577E+01  0.74906664883E+02  0.11226933607E+03  0.80161127476E+02 0.  0.
         -6    2    1    2    0  501 -0.50243048717E+02 -0.20601037254E+02 -0.52375904715E+02  0.19010632492E+03  0.17449473545E+03 0.  0.
        -24    2    5    5    0    0 -0.17037239855E+01  0.20027352062E+02  0.28148483370E+02  0.87573407572E+02  0.80453508884E+02 0.  0.
          5    1    3    3  502    0  0.73416834949E+02  0.15072506696E+02  0.23409032534E+03  0.24584056323E+03  0.47000000000E+01 0. -1.
        -13    1    4    4    0    0  0.17239208040E+02 -0.25143942915E+02  0.15676141753E+02  0.34280454773E+02  0.00000000000E+00 0.  1.
         14    1    4    4    0    0 -0.40412994272E+02  0.30672473473E+02  0.59230523130E+02  0.77988881293E+02  0.00000000000E+00 0. -1.
         -5    1    5    5    0  501 -0.48539324731E+02 -0.40628389315E+02 -0.80524388085E+02  0.10253291735E+03  0.47000000000E+01 0.  1.
         11    1    6    6    0    0  0.10716369773E+02 -0.29126820870E+02  0.35997178615E+01  0.31243723270E+02  0.00000000000E+00 0. -1.
        -12    1    6    6    0    0 -0.12420093758E+02  0.49154172932E+02  0.24548765508E+02  0.56329684302E+02  0.00000000000E+00 0.  1.
<mgrwt>
<rscale>  2 0.18187593E+03</rscale>
<asrwt>0</asrwt>
<pdfrwt beam="2">  1        2 0.22430395E-01 0.18187593E+03</pdfrwt>
<pdfrwt beam="1">  1       -2 0.61910562E-01 0.18187593E+03</pdfrwt>
<totfact> 0.60085786E+02</totfact>
</mgrwt>
</event>
<event>
12    1  0.4404304E-002  0.1899768E+03  0.7546771E-02  0.1158482E+00
          1   -1    0    0  502    0  0.00000000000E+00  0.00000000000E+00  0.74543514661E+03  0.74543514661E+03  0.00000000000E+00 0.  1.
         -1   -1    0    0    0  501 -0.00000000000E+00 -0.00000000000E+00 -0.49710957203E+02  0.49710957203E+02  0.00000000000E+00 0. -1.
          6    2    1    2  502    0  0.76160093073E+02  0.16858620764E+02  0.41280072875E+03  0.45460188900E+03  0.17370625478E+03 0.  0.
         24    2    3    3    0    0  0.15623122168E+02  0.10272968295E+02  0.37202880861E+03  0.38116800624E+03  0.80833153586E+02 0.  0.
         -6    2    1    2    0  501 -0.76160093073E+02 -0.16858620764E+02  0.28292346065E+03  0.34054421481E+03  0.17274288635E+03 0.  0.
        -24    2    5    5    0    0 -0.77758110123E+02  0.49395342122E+02  0.16262059491E+03  0.20311419349E+03  0.79521658643E+02 0.  0.
          5    1    3    3  502    0  0.60536970905E+02  0.65856524692E+01  0.40771920140E+02  0.73433882757E+02  0.47000000000E+01 0. -1.
        -13    1    4    4    0    0  0.23150622181E+02  0.25734848917E+02  0.35593740440E+03  0.35761665175E+03  0.00000000000E+00 0.  1.
         14    1    4    4    0    0 -0.75275000131E+01 -0.15461880622E+02  0.16091404211E+02  0.23551354490E+02  0.00000000000E+00 0. -1.
         -5    1    5    5    0  501  0.15980170494E+01 -0.66253962887E+02  0.12030286574E+03  0.13743002132E+03  0.47000000000E+01 0.  1.
         13    1    6    6    0    0 -0.48575685708E+01  0.60317308074E+01 -0.88806216273E+01  0.11783173997E+02  0.00000000000E+00 0. -1.
        -14    1    6    6    0    0 -0.72900541552E+02  0.43363611315E+02  0.17150121654E+03  0.19133101949E+03  0.00000000000E+00 0.  1.
<mgrwt>
<rscale>  2 0.18997676E+03</rscale>
<asrwt>0</asrwt>
<pdfrwt beam="1">  1        1 0.11468232E+00 0.18997676E+03</pdfrwt>
<pdfrwt beam="2">  1       -1 0.76478401E-02 0.18997676E+03</pdfrwt>
<totfact> 0.23496459E+03</totfact>
</mgrwt>
</event>
<event>
12    1  0.4404304E-002  0.1801275E+03  0.7546771E-02  0.1167680E+00
         -2   -1    0    0    0  501 -0.00000000000E+00  0.00000000000E+00  0.30172622783E+02  0.30172622783E+02  0.00000000000E+00 0.  1.
          2   -1    0    0  502    0  0.00000000000E+00 -0.00000000000E+00 -0.10798127966E+04  0.10798127966E+04  0.00000000000E+00 0. -1.
          6    2    1    2  502    0 -0.39097820725E+02  0.12634198221E+02 -0.48399279783E+03  0.51575600979E+03  0.17339830085E+03 0.  0.
         24    2    3    3    0    0 -0.24108686622E+02  0.60177356544E+02 -0.17355908797E+03  0.20131014122E+03  0.78743081796E+02 0.  0.
         -6    2    1    2    0  501  0.39097820725E+02 -0.12634198221E+02 -0.56564737599E+03  0.59422940959E+03  0.17737918341E+03 0.  0.
        -24    2    5    5    0    0  0.47090721181E+02 -0.25778030110E+02 -0.56960016864E+03  0.57766555303E+03  0.79819146744E+02 0.  0.
          5    1    3    3  502    0 -0.14989134103E+02 -0.47543158323E+02 -0.31043370986E+03  0.31444586857E+03  0.47000000000E+01 0. -1.
        -11    1    4    4    0    0 -0.13205701154E+02  0.13637318255E+02  0.22523897560E+01  0.19116491618E+02  0.00000000000E+00 0.  1.
         12    1    4    4    0    0 -0.10902985468E+02  0.46540038289E+02 -0.17581147772E+03  0.18219364960E+03  0.00000000000E+00 0. -1.
         -5    1    5    5    0  501 -0.79929004559E+01  0.13143831889E+02  0.39527926493E+01  0.16563856561E+02  0.47000000000E+01 0.  1.
         11    1    6    6    0    0  0.62443012663E+02  0.38529767646E+01 -0.39119036191E+03  0.39616142482E+03  0.00000000000E+00 0. -1.
        -12    1    6    6    0    0 -0.15352291482E+02 -0.29631006875E+02 -0.17840980672E+03  0.18150412821E+03  0.00000000000E+00 0.  1.
<mgrwt>
<rscale>  2 0.18012752E+03</rscale>
<asrwt>0</asrwt>
<pdfrwt beam="2">  1        2 0.16612504E+00 0.18012752E+03</pdfrwt>
<pdfrwt beam="1">  1       -2 0.46419421E-02 0.18012752E+03</pdfrwt>
<totfact> 0.50832745E+03</totfact>
</mgrwt>
</event>
<event>
12    1  0.4404304E-002  0.3658265E+03  0.7546771E-02  0.1056300E+00
          2   -1    0    0  502    0  0.00000000000E+00  0.00000000000E+00  0.47555740619E+03  0.47555740619E+03  0.00000000000E+00 0. -1.
         -2   -1    0    0    0  501 -0.00000000000E+00 -0.00000000000E+00 -0.30570851644E+03  0.30570851644E+03  0.00000000000E+00 0.  1.
          6    2    1    2  502    0  0.29666266461E+03  0.12591414493E+03 -0.25277302309E+02  0.36630500046E+03  0.17227101579E+03 0.  0.
         24    2    3    3    0    0  0.26893970094E+03  0.14427552786E+03  0.12392539912E+02  0.31583907026E+03  0.80353920724E+02 0.  0.
         -6    2    1    2    0  501 -0.29666266461E+03 -0.12591414493E+03  0.19512619205E+03  0.41496092217E+03  0.17394029905E+03 0.  0.
        -24    2    5    5    0    0 -0.20127623865E+03 -0.10725183453E+03  0.20483764842E+03  0.31716902848E+03  0.81379666753E+02 0.  0.
          5    1    3    3  502    0  0.27722963669E+02 -0.18361382932E+02 -0.37669842222E+02  0.50465930198E+02  0.47000000000E+01 0. -1.
        -13    1    4    4    0    0  0.18462821531E+03  0.11683190386E+03 -0.24391977191E+02  0.21984594652E+03  0.00000000000E+00 0.  1.
         14    1    4    4    0    0  0.84311485628E+02  0.27443623999E+02  0.36784517104E+02  0.95993123741E+02  0.00000000000E+00 0. -1.
         -5    1    5    5    0  501 -0.95386425961E+02 -0.18662310396E+02 -0.97114563649E+01  0.97791893691E+02  0.47000000000E+01 0.  1.
         13    1    6    6    0    0 -0.17345300367E+03 -0.68165575255E+02  0.12628362566E+03  0.22512228730E+03  0.00000000000E+00 0. -1.
        -14    1    6    6    0    0 -0.27823234981E+02 -0.39086259279E+02  0.78554022760E+02  0.92046741175E+02  0.00000000000E+00 0.  1.
<mgrwt>
<rscale>  2 0.36582655E+03</rscale>
<asrwt>0</asrwt>
<pdfrwt beam="1">  1        2 0.73162678E-01 0.36582655E+03</pdfrwt>
<pdfrwt beam="2">  1       -2 0.47032079E-01 0.36582655E+03</pdfrwt>
<totfact> 0.28648512E+02</totfact>
</mgrwt>
</event>
<event>
12    1  0.4404304E-002  0.1843357E+03  0.7546771E-02  0.1163672E+00
          2   -1    0    0  502    0  0.00000000000E+00  0.00000000000E+00  0.25346154273E+04  0.25346154273E+04  0.00000000000E+00 0. -1.
         -2   -1    0    0    0  501 -0.00000000000E+00 -0.00000000000E+00 -0.13413972974E+02  0.13413972974E+02  0.00000000000E+00 0.  1.
          6    2    1    2  502    0  0.57427368474E+02  0.34956446360E+02  0.12220331899E+04  0.12356515756E+04  0.17014653447E+03 0.  0.
         24    2    3    3    0    0 -0.19658636567E+02 -0.17260030069E+02  0.77269557392E+03  0.77674505380E+03  0.74766690579E+02 0.  0.
         -6    2    1    2    0  501 -0.57427368474E+02 -0.34956446360E+02  0.12991682644E+04  0.13123778247E+04  0.17314017357E+03 0.  0.
        -24    2    5    5    0    0  0.28221013403E+02 -0.37659017659E+02  0.49288812887E+03  0.50154325700E+03  0.79951884567E+02 0.  0.
          5    1    3    3  502    0  0.77086005041E+02  0.52216476429E+02  0.44933761601E+03  0.45890652179E+03  0.47000000000E+01 0. -1.
        -13    1    4    4    0    0 -0.27954166511E+02 -0.53917310822E+01  0.10214719279E+03  0.10604034696E+03  0.00000000000E+00 0.  1.
         14    1    4    4    0    0  0.82955299442E+01 -0.11868298987E+02  0.67054838113E+03  0.67070470684E+03  0.00000000000E+00 0. -1.
         -5    1    5    5    0  501 -0.85648381877E+02  0.27025712985E+01  0.80628013555E+03  0.81083456771E+03  0.47000000000E+01 0.  1.
         13    1    6    6    0    0  0.44724450104E+02 -0.13201255538E+02  0.42460813338E+03  0.42716111307E+03  0.00000000000E+00 0. -1.
        -14    1    6    6    0    0 -0.16503436700E+02 -0.24457762121E+02  0.68279995495E+02  0.74382143930E+02  0.00000000000E+00 0.  1.
<mgrwt>
<rscale>  2 0.18433571E+03</rscale>
<asrwt>0</asrwt>
<pdfrwt beam="1">  1        2 0.38994045E+00 0.18433571E+03</pdfrwt>
<pdfrwt beam="2">  1       -2 0.20636902E-02 0.18433571E+03</pdfrwt>
<totfact> 0.28512853E+03</totfact>
</mgrwt>
</event>
<event>
12    1  0.4404304E-002  0.1850121E+03  0.7546771E-02  0.1163039E+00
          2   -1    0    0  502    0  0.00000000000E+00  0.00000000000E+00  0.41551032392E+03  0.41551032392E+03  0.00000000000E+00 0. -1.
         -2   -1    0    0    0  501 -0.00000000000E+00 -0.00000000000E+00 -0.92275518848E+02  0.92275518848E+02  0.00000000000E+00 0.  1.
          6    2    1    2  502    0  0.18768910767E+02 -0.65531819798E+02  0.79626240471E+02  0.20275771330E+03  0.17356169138E+03 0.  0.
         24    2    3    3    0    0  0.76436914225E+02 -0.32711690208E+02  0.24245445778E+02  0.11620205520E+03  0.77475282887E+02 0.  0.
         -6    2    1    2    0  501 -0.18768910767E+02  0.65531819798E+02  0.24360856460E+03  0.30502812946E+03  0.17044159000E+03 0.  0.
        -24    2    5    5    0    0 -0.58549068681E+02  0.74520816533E+02  0.11286294158E+03  0.16798882502E+03  0.80627887279E+02 0.  0.
          5    1    3    3  502    0 -0.57668003459E+02 -0.32820129589E+02  0.55380794693E+02  0.86555658105E+02  0.47000000000E+01 0. -1.
        -11    1    4    4    0    0  0.81765255611E+02 -0.24050435016E+02 -0.48638536031E+01  0.85367660864E+02  0.00000000000E+00 0.  1.
         12    1    4    4    0    0 -0.53283413854E+01 -0.86612551927E+01  0.29109299381E+02  0.30834394333E+02  0.00000000000E+00 0. -1.
         -5    1    5    5    0  501  0.39780157914E+02 -0.89889967352E+01  0.13074562301E+03  0.13703930445E+03  0.47000000000E+01 0.  1.
         13    1    6    6    0    0 -0.35621952207E+02 -0.70288185763E+01  0.17096122494E+02  0.40132345732E+02  0.00000000000E+00 0. -1.
        -14    1    6    6    0    0 -0.22927116474E+02  0.81549635109E+02  0.95766819091E+02  0.12785647928E+03  0.00000000000E+00 0.  1.
<mgrwt>
<rscale>  2 0.18501212E+03</rscale>
<asrwt>0</asrwt>
<pdfrwt beam="1">  1        2 0.63924664E-01 0.18501212E+03</pdfrwt>
<pdfrwt beam="2">  1       -2 0.14196234E-01 0.18501212E+03</pdfrwt>
<totfact> 0.28268740E+03</totfact>
</mgrwt>
</event>
<event>
12    1  0.4404304E-002  0.1965031E+03  0.7546771E-02  0.1152723E+00
         -1   -1    0    0    0  501 -0.00000000000E+00  0.00000000000E+00  0.72012250103E+03  0.72012250103E+03  0.00000000000E+00 0. -1.
          1   -1    0    0  502    0  0.00000000000E+00 -0.00000000000E+00 -0.75846887806E+02  0.75846887806E+02  0.00000000000E+00 0.  1.
          6    2    1    2  502    0 -0.96747293294E+02 -0.11453023301E+02  0.53493408428E+03  0.56911845355E+03  0.16807774732E+03 0.  0.
         24    2    3    3    0    0 -0.10975391842E+03  0.70718793125E+01  0.26304633780E+03  0.29624965541E+03  0.80464578625E+02 0.  0.
         -6    2    1    2    0  501  0.96747293294E+02  0.11453023301E+02  0.10934152895E+03  0.22685093529E+03  0.17324712519E+03 0.  0.
        -24    2    5    5    0    0  0.71678235098E+01  0.52338963523E+02  0.44555244932E+02  0.10888698270E+03  0.84145471378E+02 0.  0.
          5    1    3    3  502    0  0.13006625126E+02 -0.18524902614E+02  0.27188774647E+03  0.27286879814E+03  0.47000000000E+01 0. -1.
        -13    1    4    4    0    0 -0.10935801868E+03 -0.11567216910E+02  0.25105426541E+03  0.27408250754E+03  0.00000000000E+00 0.  1.
         14    1    4    4    0    0 -0.39589974041E+00  0.18639096223E+02  0.11992072394E+02  0.22167147875E+02  0.00000000000E+00 0. -1.
         -5    1    5    5    0  501  0.89579469784E+02 -0.40885940222E+02  0.64786284014E+02  0.11796395259E+03  0.47000000000E+01 0.  1.
         13    1    6    6    0    0  0.43362453212E+02  0.44818592833E+02  0.29136026483E+02  0.68832526114E+02  0.00000000000E+00 0. -1.
        -14    1    6    6    0    0 -0.36194629702E+02  0.75203706904E+01  0.15419218449E+02  0.40054456583E+02  0.00000000000E+00 0.  1.
<mgrwt>
<rscale>  2 0.19650313E+03</rscale>
<asrwt>0</asrwt>
<pdfrwt beam="2">  1        1 0.11668752E-01 0.19650313E+03</pdfrwt>
<pdfrwt beam="1">  1       -1 0.11078807E+00 0.19650313E+03</pdfrwt>
<totfact> 0.41672940E+02</totfact>
</mgrwt>
</event>
<event>
12    1  0.4404304E-002  0.1850547E+03  0.7546771E-02  0.1162999E+00
          2   -1    0    0  502    0  0.00000000000E+00  0.00000000000E+00  0.79497716085E+03  0.79497716085E+03  0.00000000000E+00 0. -1.
         -2   -1    0    0    0  501 -0.00000000000E+00 -0.00000000000E+00 -0.47471476078E+02  0.47471476078E+02  0.00000000000E+00 0.  1.
          6    2    1    2  502    0  0.47778815261E+02 -0.45070509723E+02  0.50193789402E+03  0.53496920388E+03  0.17302090515E+03 0.  0.
         24    2    3    3    0    0  0.48746762253E+02 -0.84464774665E+02  0.25081925966E+03  0.28073406951E+03  0.79942302781E+02 0.  0.
         -6    2    1    2    0  501 -0.47778815261E+02  0.45070509723E+02  0.24556779076E+03  0.30747943305E+03  0.17299102825E+03 0.  0.
        -24    2    5    5    0    0 -0.86057850537E+01  0.19061000314E+02  0.24541899337E+03  0.26022339623E+03  0.83954466037E+02 0.  0.
          5    1    3    3  502    0 -0.96794699200E+00  0.39394264942E+02  0.25111863436E+03  0.25423513438E+03  0.47000000000E+01 0. -1.
        -13    1    4    4    0    0 -0.92292360755E+01 -0.51994571343E+02  0.15792413163E+03  0.16651920489E+03  0.00000000000E+00 0.  1.
         14    1    4    4    0    0  0.57975998328E+02 -0.32470203322E+02  0.92895128037E+02  0.11421486461E+03  0.00000000000E+00 0. -1.
         -5    1    5    5    0  501 -0.39173030207E+02  0.26009509410E+02  0.14879738736E+00  0.47256036821E+02  0.47000000000E+01 0.  1.
         11    1    6    6    0    0 -0.44106855080E+02  0.20794477107E+02  0.16988015565E+03  0.17674018283E+03  0.00000000000E+00 0. -1.
        -12    1    6    6    0    0  0.35501070027E+02 -0.17334767935E+01  0.75538837718E+02  0.83483213394E+02  0.00000000000E+00 0.  1.
<mgrwt>
<rscale>  2 0.18505467E+03</rscale>
<asrwt>0</asrwt>
<pdfrwt beam="1">  1        2 0.12230417E+00 0.18505467E+03</pdfrwt>
<pdfrwt beam="2">  1       -2 0.73033046E-02 0.18505467E+03</pdfrwt>
<totfact> 0.38483744E+03</totfact>
</mgrwt>
</event>
<event>
12    1  0.4404304E-002  0.1933287E+03  0.7546771E-02  0.1155493E+00
          1   -1    0    0  502    0  0.00000000000E+00  0.00000000000E+00  0.53536183458E+02  0.53536183458E+02  0.00000000000E+00 0.  1.
         -1   -1    0    0    0  501 -0.00000000000E+00 -0.00000000000E+00 -0.72114087943E+03  0.72114087943E+03  0.00000000000E+00 0. -1.
          6    2    1    2  502    0  0.84282541828E+02  0.12006988966E+01 -0.26379042913E+03  0.32674940187E+03  0.17342085395E+03 0.  0.
         24    2    3    3    0    0  0.29650802801E+02 -0.60375608738E+02 -0.18452030481E+03  0.21237234481E+03  0.80807708277E+02 0.  0.
         -6    2    1    2    0  501 -0.84282541828E+02 -0.12006988966E+01 -0.40381426684E+03  0.44792766101E+03  0.17455153642E+03 0.  0.
        -24    2    5    5    0    0  0.13364680143E+01  0.46686494219E+02 -0.23380211992E+03  0.25158607548E+03  0.80316294779E+02 0.  0.
          5    1    3    3  502    0  0.54631739027E+02  0.61576307635E+02 -0.79270124318E+02  0.11437705705E+03  0.47000000000E+01 0. -1.
        -13    1    4    4    0    0  0.57012998182E+02 -0.42475525790E+02 -0.10975682608E+03  0.13077160672E+03  0.00000000000E+00 0.  1.
         14    1    4    4    0    0 -0.27362195381E+02 -0.17900082948E+02 -0.74763478730E+02  0.81600738093E+02  0.00000000000E+00 0. -1.
         -5    1    5    5    0  501 -0.85619009842E+02 -0.47887193116E+02 -0.17001214692E+03  0.19634158553E+03  0.47000000000E+01 0.  1.
         13    1    6    6    0    0  0.15933898588E+02 -0.17161391232E+02 -0.98772582337E+02  0.10151071616E+03  0.00000000000E+00 0. -1.
        -14    1    6    6    0    0 -0.14597430574E+02  0.63847885451E+02 -0.13502953758E+03  0.15007535932E+03  0.00000000000E+00 0.  1.
<mgrwt>
<rscale>  2 0.19332870E+03</rscale>
<asrwt>0</asrwt>
<pdfrwt beam="1">  1        1 0.82363372E-02 0.19332870E+03</pdfrwt>
<pdfrwt beam="2">  1       -1 0.11094473E+00 0.19332870E+03</pdfrwt>
<totfact> 0.66253649E+02</totfact>
</mgrwt>
</event>
<event>
12    1  0.4404304E-002  0.1782298E+03  0.7546771E-02  0.1169527E+00
          1   -1    0    0  502    0  0.00000000000E+00  0.00000000000E+00  0.68279075569E+03  0.68279075569E+03  0.00000000000E+00 0.  1.
         -1   -1    0    0    0  501 -0.00000000000E+00 -0.00000000000E+00 -0.47298987868E+02  0.47298987868E+02  0.00000000000E+00 0. -1.
          6    2    1    2  502    0 -0.35376948216E+02 -0.30093943758E+02  0.36230734922E+03  0.40324403697E+03  0.17082729331E+03 0.  0.
         24    2    3    3    0    0 -0.48980107288E+02  0.42279219336E+02  0.22472441025E+03  0.24712204695E+03  0.79885306722E+02 0.  0.
         -6    2    1    2    0  501  0.35376948216E+02  0.30093943758E+02  0.27318441861E+03  0.32684570659E+03  0.17332401861E+03 0.  0.
        -24    2    5    5    0    0 -0.29835961913E+02 -0.69774489769E+01  0.21492411356E+03  0.23174909807E+03  0.81095008782E+02 0.  0.
          5    1    3    3  502    0  0.13603159072E+02 -0.72373163094E+02  0.13758293897E+03  0.15612199002E+03  0.47000000000E+01 0. -1.
        -13    1    4    4    0    0 -0.32342251473E+02 -0.17311989726E+02  0.12005059525E+03  0.12553036142E+03  0.00000000000E+00 0.  1.
         14    1    4    4    0    0 -0.16637855815E+02  0.59591209062E+02  0.10467381500E+03  0.12159168553E+03  0.00000000000E+00 0. -1.
         -5    1    5    5    0  501  0.65212910130E+02  0.37071392735E+02  0.58260305041E+02  0.95096608511E+02  0.47000000000E+01 0.  1.
         13    1    6    6    0    0 -0.34617446871E+02 -0.75905697170E+01  0.29082937837E+02  0.45845410345E+02  0.00000000000E+00 0. -1.
        -14    1    6    6    0    0  0.47814849580E+01  0.61312074008E+00  0.18584117573E+03  0.18590368773E+03  0.00000000000E+00 0.  1.
<mgrwt>
<rscale>  2 0.17822979E+03</rscale>
<asrwt>0</asrwt>
<pdfrwt beam="1">  1        1 0.10504472E+00 0.17822979E+03</pdfrwt>
<pdfrwt beam="2">  1       -1 0.72767679E-02 0.17822979E+03</pdfrwt>
<totfact> 0.28743048E+03</totfact>
</mgrwt>
</event>
<event>
12    1  0.4404304E-002  0.1795573E+03  0.7546771E-02  0.1168232E+00
          2   -1    0    0  502    0  0.00000000000E+00  0.00000000000E+00  0.50832471398E+03  0.50832471398E+03  0.00000000000E+00 0. -1.
         -2   -1    0    0    0  501 -0.00000000000E+00 -0.00000000000E+00 -0.67318519208E+02  0.67318519208E+02  0.00000000000E+00 0.  1.
          6    2    1    2  502    0 -0.44999932286E+02  0.67463002019E+01  0.14907141940E+03  0.23186196441E+03  0.17166005937E+03 0.  0.
         24    2    3    3    0    0  0.11573310316E+02  0.55536954692E+02  0.11639706505E+03  0.15018722427E+03  0.76089623038E+02 0.  0.
         -6    2    1    2    0  501  0.44999932286E+02 -0.67463002019E+01  0.29193477536E+03  0.34378126878E+03  0.17575306888E+03 0.  0.
        -24    2    5    5    0    0  0.21841159670E+02 -0.73226291669E+02  0.18746333195E+03  0.21771664050E+03  0.80118092060E+02 0.  0.
          5    1    3    3  502    0 -0.56573242602E+02 -0.48790654490E+02  0.32674354359E+02  0.81674740140E+02  0.47000000000E+01 0. -1.
        -11    1    4    4    0    0 -0.25567728601E+02  0.30082042458E+01  0.14126927248E+02  0.29365423750E+02  0.00000000000E+00 0.  1.
         12    1    4    4    0    0  0.37141038917E+02  0.52528750446E+02  0.10227013780E+03  0.12082180052E+03  0.00000000000E+00 0. -1.
         -5    1    5    5    0  501  0.23158772616E+02  0.66479991468E+02  0.10447144341E+03  0.12606462828E+03  0.47000000000E+01 0.  1.
         13    1    6    6    0    0 -0.11710947383E+02 -0.22555873875E+02  0.13518328816E+03  0.13755157263E+03  0.00000000000E+00 0. -1.
        -14    1    6    6    0    0  0.33552107053E+02 -0.50670417794E+02  0.52280043786E+02  0.80165067862E+02  0.00000000000E+00 0.  1.
<mgrwt>
<rscale>  2 0.17955731E+03</rscale>
<asrwt>0</asrwt>
<pdfrwt beam="1">  1        2 0.78203800E-01 0.17955731E+03</pdfrwt>
<pdfrwt beam="2">  1       -2 0.10356696E-01 0.17955731E+03</pdfrwt>
<totfact> 0.37606976E+03</totfact>
</mgrwt>
</event>
<event>
12    1  0.4404304E-002  0.1931349E+03  0.7546771E-02  0.1155664E+00
         -1   -1    0    0    0  501 -0.00000000000E+00  0.00000000000E+00  0.14387509897E+04  0.14387509897E+04  0.00000000000E+00 0.  1.
          1   -1    0    0  502    0  0.00000000000E+00 -0.00000000000E+00 -0.25940602063E+02  0.25940602063E+02  0.00000000000E+00 0. -1.
          6    2    1    2  502    0 -0.86274759732E+02  0.39883961234E+01  0.68909522604E+03  0.71565247337E+03  0.17276281605E+03 0.  0.
         24    2    3    3    0    0 -0.86331533905E+02 -0.53527712901E+02  0.55886781261E+03  0.57321169539E+03  0.76941964931E+02 0.  0.
         -6    2    1    2    0  501  0.86274759732E+02 -0.39883961234E+01  0.72371516156E+03  0.74903911836E+03  0.17273310133E+03 0.  0.
        -24    2    5    5    0    0  0.39495959307E+01 -0.51998638365E+02  0.30605078157E+03  0.32061404876E+03  0.80042673996E+02 0.  0.
          5    1    3    3  502    0  0.56774172922E-01  0.57516109025E+02  0.13022741343E+03  0.14244077797E+03  0.47000000000E+01 0. -1.
        -13    1    4    4    0    0 -0.38959479026E+02  0.69672922872E+01  0.31627286989E+03  0.31873956830E+03  0.00000000000E+00 0.  1.
         14    1    4    4    0    0 -0.47372054878E+02 -0.60495005189E+02  0.24259494272E+03  0.25447212709E+03  0.00000000000E+00 0. -1.
         -5    1    5    5    0  501  0.82325163801E+02  0.48010242242E+02  0.41766437999E+03  0.42842506961E+03  0.47000000000E+01 0.  1.
         11    1    6    6    0    0 -0.48968997685E+01 -0.19483223772E+02  0.96193685752E+01  0.22273479469E+02  0.00000000000E+00 0. -1.
        -12    1    6    6    0    0  0.88464956992E+01 -0.32515414593E+02  0.29643141299E+03  0.29834056929E+03  0.00000000000E+00 0.  1.
<mgrwt>
<rscale>  2 0.19313492E+03</rscale>
<asrwt>0</asrwt>
<pdfrwt beam="2">  1        1 0.39908630E-02 0.19313492E+03</pdfrwt>
<pdfrwt beam="1">  1       -1 0.22134624E+00 0.19313492E+03</pdfrwt>
<totfact> 0.27644849E+02</totfact>
</mgrwt>
</event>
<event>
12    1  0.4404304E-002  0.1959856E+03  0.7546771E-02  0.1153171E+00
         -1   -1    0    0    0  501 -0.00000000000E+00  0.00000000000E+00  0.20958734682E+02  0.20958734682E+02  0.00000000000E+00 0.  1.
          1   -1    0    0  502    0  0.00000000000E+00 -0.00000000000E+00 -0.18611287144E+04  0.18611287144E+04  0.00000000000E+00 0. -1.
          6    2    1    2  502    0 -0.29422510931E+02  0.81993176889E+02 -0.81266686056E+03  0.83640594980E+03  0.17764830819E+03 0.  0.
         24    2    3    3    0    0  0.13869374919E+02  0.11603831614E+03 -0.59080188279E+03  0.60775902275E+03  0.81651176707E+02 0.  0.
         -6    2    1    2    0  501  0.29422510931E+02 -0.81993176889E+02 -0.10275031192E+04  0.10456814993E+04  0.17348940271E+03 0.  0.
        -24    2    5    5    0    0  0.23951899582E+02 -0.57092597643E+02 -0.10085076649E+04  0.10135429910E+04  0.79677011572E+02 0.  0.
          5    1    3    3  502    0 -0.43291885850E+02 -0.34045139252E+02 -0.22186497777E+03  0.22864692705E+03  0.47000000000E+01 0. -1.
        -13    1    4    4    0    0  0.26989722629E+02  0.70186757528E+02 -0.19338387768E+03  0.20748963879E+03  0.00000000000E+00 0.  1.
         14    1    4    4    0    0 -0.13120347710E+02  0.45851558613E+02 -0.39741800511E+03  0.40026938396E+03  0.00000000000E+00 0. -1.
         -5    1    5    5    0  501  0.54706113492E+01 -0.24900579246E+02 -0.18995454297E+02  0.32138508355E+02  0.47000000000E+01 0.  1.
         13    1    6    6    0    0 -0.10981622863E+02 -0.23444984974E+02 -0.75461346658E+03  0.75505744636E+03  0.00000000000E+00 0. -1.
        -14    1    6    6    0    0  0.34933522445E+02 -0.33647612670E+02 -0.25389419832E+03  0.25848554461E+03  0.00000000000E+00 0.  1.
<mgrwt>
<rscale>  2 0.19598564E+03</rscale>
<asrwt>0</asrwt>
<pdfrwt beam="2">  1        1 0.28632747E+00 0.19598564E+03</pdfrwt>
<pdfrwt beam="1">  1       -1 0.32244210E-02 0.19598564E+03</pdfrwt>
<totfact> 0.14132543E+03</totfact>
</mgrwt>
</event>
<event>
12    1  0.4404304E-002  0.2208990E+03  0.7546771E-02  0.1133215E+00
          4   -1    0    0  502    0  0.00000000000E+00  0.00000000000E+00  0.48080345892E+03  0.48080345892E+03  0.00000000000E+00 0.  1.
         -4   -1    0    0    0  501 -0.00000000000E+00 -0.00000000000E+00 -0.10641994763E+03  0.10641994763E+03  0.00000000000E+00 0. -1.
          6    2    1    2  502    0  0.11329737069E+03  0.73037045421E+02  0.24977631877E+03  0.33294679931E+03  0.17405360537E+03 0.  0.
         24    2    3    3    0    0  0.94182789987E+02 -0.17449570098E+02  0.11732000848E+03  0.17133009560E+03  0.80094518169E+02 0.  0.
         -6    2    1    2    0  501 -0.11329737069E+03 -0.73037045421E+02  0.12460719252E+03  0.25427660725E+03  0.17595151706E+03 0.  0.
        -24    2    5    5    0    0 -0.99486396741E+02 -0.47711389311E+02  0.15857292310E+03  0.20946709138E+03  0.80976358439E+02 0.  0.
          5    1    3    3  502    0  0.19114580708E+02  0.90486615519E+02  0.13245631028E+03  0.16161670371E+03  0.47000000000E+01 0. -1.
        -13    1    4    4    0    0  0.39718505128E+02  0.30238376977E+02  0.65259928384E+02  0.82163114257E+02  0.00000000000E+00 0.  1.
         14    1    4    4    0    0  0.54464284859E+02 -0.47687947075E+02  0.52060080098E+02  0.89166981339E+02  0.00000000000E+00 0. -1.
         -5    1    5    5    0  501 -0.13810973954E+02 -0.25325656110E+02 -0.33965730571E+02  0.44809515866E+02  0.47000000000E+01 0.  1.
         13    1    6    6    0    0 -0.32934826251E+02 -0.54574291977E+02  0.46343231329E+02  0.78808319453E+02  0.00000000000E+00 0. -1.
        -14    1    6    6    0    0 -0.66551570490E+02  0.68629026663E+01  0.11222969177E+03  0.13065877193E+03  0.00000000000E+00 0.  1.
<mgrwt>
<rscale>  2 0.22089901E+03</rscale>
<asrwt>0</asrwt>
<pdfrwt beam="1">  1        4 0.73969762E-01 0.22089901E+03</pdfrwt>
<pdfrwt beam="2">  1       -4 0.16372300E-01 0.22089901E+03</pdfrwt>
<totfact> 0.98257355E+01</totfact>
</mgrwt>
</event>
<event>
12    1  0.4404304E-002  0.2951011E+03  0.7546771E-02  0.1087715E+00
         -3   -1    0    0    0  501 -0.00000000000E+00  0.00000000000E+00  0.56110632752E+03  0.56110632752E+03  0.00000000000E+00 0. -1.
          3   -1    0    0  502    0  0.00000000000E+00 -0.00000000000E+00 -0.17932805843E+03  0.17932805843E+03  0.00000000000E+00 0.  1.
          6    2    1    2  502    0 -0.23591430499E+03 -0.48998544974E+02  0.32755680073E+03  0.44195034882E+03  0.17311913935E+03 0.  0.
         24    2    3    3    0    0 -0.13660917249E+03 -0.72277262046E+02  0.26875895188E+03  0.32412554227E+03  0.94551173003E+02 0.  0.
         -6    2    1    2    0  501  0.23591430499E+03  0.48998544974E+02  0.54221468361E+02  0.29848403712E+03  0.16761961722E+03 0.  0.
        -24    2    5    5    0    0  0.12951995234E+03 -0.86033500614E+01  0.82690613523E+02  0.17410430078E+03  0.81394927958E+02 0.  0.
          5    1    3    3  502    0 -0.99305132505E+02  0.23278717073E+02  0.58797848852E+02  0.11782480656E+03  0.47000000000E+01 0. -1.
        -11    1    4    4    0    0 -0.66787067347E+02 -0.31813197697E+02  0.21445530753E+03  0.22685605754E+03  0.00000000000E+00 0.  1.
         12    1    4    4    0    0 -0.69822105139E+02 -0.40464064349E+02  0.54303644349E+02  0.97269484729E+02  0.00000000000E+00 0. -1.
         -5    1    5    5    0  501  0.10639435265E+03  0.57601895035E+02 -0.28469145162E+02  0.12437973635E+03  0.47000000000E+01 0.  1.
         13    1    6    6    0    0  0.12911655905E+03 -0.19105581350E+02  0.50009891487E+02  0.13977517057E+03  0.00000000000E+00 0. -1.
        -14    1    6    6    0    0  0.40339328910E+00  0.10502231289E+02  0.32680722036E+02  0.34329130210E+02  0.00000000000E+00 0.  1.
<mgrwt>
<rscale>  2 0.29510111E+03</rscale>
<asrwt>0</asrwt>
<pdfrwt beam="2">  1        3 0.27588932E-01 0.29510111E+03</pdfrwt>
<pdfrwt beam="1">  1       -3 0.86324050E-01 0.29510111E+03</pdfrwt>
<totfact> 0.39570489E+01</totfact>
</mgrwt>
</event>
<event>
12    1  0.4404304E-002  0.2219260E+03  0.7546771E-02  0.1132455E+00
          2   -1    0    0  502    0  0.00000000000E+00  0.00000000000E+00  0.69925986056E+03  0.69925986056E+03  0.00000000000E+00 0.  1.
         -2   -1    0    0    0  501 -0.00000000000E+00 -0.00000000000E+00 -0.78873600459E+02  0.78873600459E+02  0.00000000000E+00 0. -1.
          6    2    1    2  502    0  0.74931508433E+02  0.11092576910E+03  0.44172616848E+03  0.49594926850E+03  0.18145085232E+03 0.  0.
         24    2    3    3    0    0  0.10081257551E+03  0.12155737037E+03  0.43096042232E+03  0.46560372734E+03  0.78234107838E+02 0.  0.
         -6    2    1    2    0  501 -0.74931508433E+02 -0.11092576910E+03  0.17866009163E+03  0.28218419252E+03  0.17259557630E+03 0.  0.
        -24    2    5    5    0    0 -0.66295882613E+02  0.32077498076E+01  0.80117481317E+02  0.13107572082E+03  0.79728288989E+02 0.  0.
          5    1    3    3  502    0 -0.25881067078E+02 -0.10631601265E+02  0.10765746155E+02  0.30345541169E+02  0.47000000000E+01 0. -1.
        -13    1    4    4    0    0  0.43106313381E+02  0.91580301511E+02  0.33284781273E+03  0.34789764633E+03  0.00000000000E+00 0.  1.
         14    1    4    4    0    0  0.57706262130E+02  0.29977068857E+02  0.98112609588E+02  0.11770608101E+03  0.00000000000E+00 0. -1.
         -5    1    5    5    0  501 -0.86356258198E+01 -0.11413351891E+03  0.98542610310E+02  0.15110847170E+03  0.47000000000E+01 0.  1.
         11    1    6    6    0    0 -0.53535598915E+02 -0.10615782397E+02  0.93309202063E+02  0.10809885465E+03  0.00000000000E+00 0. -1.
        -12    1    6    6    0    0 -0.12760283698E+02  0.13823532204E+02 -0.13191720746E+02  0.22976866168E+02  0.00000000000E+00 0.  1.
<mgrwt>
<rscale>  2 0.22192598E+03</rscale>
<asrwt>0</asrwt>
<pdfrwt beam="1">  1        2 0.10757844E+00 0.22192598E+03</pdfrwt>
<pdfrwt beam="2">  1       -2 0.12134401E-01 0.22192598E+03</pdfrwt>
<totfact> 0.20302411E+03</totfact>
</mgrwt>
</event>
<event>
11    1  0.4404304E-002  0.2088669E+03  0.7546771E-02  0.1142466E+00
         -1   -1    0    0    0  501 -0.00000000000E+00  0.00000000000E+00  0.40661232636E+02  0.40661232636E+02  0.00000000000E+00 0. -1.
          1   -1    0    0  502    0  0.00000000000E+00 -0.00000000000E+00 -0.13404078936E+04  0.13404078936E+04  0.00000000000E+00 0.  1.
          6    2    1    2  502    0  0.11586960245E+03 -0.18516128968E+02 -0.95984418018E+03  0.98243420520E+03  0.17351514492E+03 0.  0.
         -6    2    1    2    0  501 -0.11586960245E+03  0.18516128968E+02 -0.33990248079E+03  0.39863492105E+03  0.17206827722E+03 0.  0.
        -24    2    4    4    0    0 -0.10106718018E+03 -0.11622177996E+02 -0.34106818559E+03  0.36471032643E+03  0.79601916173E+02 0.  0.
          5    1    3    3  502    0  0.90913529200E+01 -0.20360849497E+02 -0.76318353240E+01  0.24032307434E+02  0.47000000000E+01 0. -1.
        -11    1    3    3    0    0  0.96942490468E+02  0.72642920624E+01 -0.82964536287E+03  0.83532152165E+03  0.00000000000E+00 0.  1.
         12    1    3    3    0    0  0.98357590653E+01 -0.54195715328E+01 -0.12256698199E+03  0.12308037612E+03  0.00000000000E+00 0. -1.
         -5    1    4    4    0  501 -0.14802422274E+02  0.30138306964E+02  0.11657047940E+01  0.33924594611E+02  0.47000000000E+01 0.  1.
         11    1    5    5    0    0 -0.31998935524E+02  0.33174669646E+02 -0.10403734736E+03  0.11379042239E+03  0.00000000000E+00 0. -1.
        -12    1    5    5    0    0 -0.69068244655E+02 -0.44796847642E+02 -0.23703083822E+03  0.25091990405E+03  0.00000000000E+00 0.  1.
<mgrwt>
<rscale>  2 0.20886693E+03</rscale>
<asrwt>0</asrwt>
<pdfrwt beam="2">  1        1 0.20621663E+00 0.20886693E+03</pdfrwt>
<pdfrwt beam="1">  1       -1 0.62555732E-02 0.20886693E+03</pdfrwt>
<totfact> 0.11526388E+03</totfact>
</mgrwt>
</event>
<event>
12    1  0.4404304E-002  0.2938402E+03  0.7546771E-02  0.1088361E+00
         -2   -1    0    0    0  501 -0.00000000000E+00  0.00000000000E+00  0.23405699726E+03  0.23405699726E+03  0.00000000000E+00 0. -1.
          2   -1    0    0  502    0  0.00000000000E+00 -0.00000000000E+00 -0.41156570671E+03  0.41156570671E+03  0.00000000000E+00 0.  1.
          6    2    1    2  502    0  0.12287395422E+03 -0.20318101830E+03 -0.19272380430E+03  0.35148053511E+03  0.17325001297E+03 0.  0.
         24    2    3    3    0    0  0.35352500201E+02 -0.68841063628E+02 -0.16071002290E+03  0.18791342187E+03  0.59117267733E+02 0.  0.
         -6    2    1    2    0  501 -0.12287395422E+03  0.20318101830E+03  0.15215094850E+02  0.29414216886E+03  0.17293808594E+03 0.  0.
        -24    2    5    5    0    0 -0.14960246591E+02  0.10531511656E+03  0.49441704949E+02  0.14442024710E+03  0.84247509337E+02 0.  0.
          5    1    3    3  502    0  0.87521454018E+02 -0.13433995467E+03 -0.32013781396E+02  0.16356711324E+03  0.47000000000E+01 0. -1.
        -11    1    4    4    0    0 -0.14154751759E+02 -0.23015608510E+02 -0.27264073287E+02  0.38384957010E+02  0.00000000000E+00 0.  1.
         12    1    4    4    0    0  0.49507251960E+02 -0.45825455118E+02 -0.13344594962E+03  0.14952846486E+03  0.00000000000E+00 0. -1.
         -5    1    5    5    0  501 -0.10791370763E+03  0.97865901741E+02 -0.34226610099E+02  0.14972192176E+03  0.47000000000E+01 0.  1.
         11    1    6    6    0    0 -0.49001850509E+02  0.47471483953E+02  0.30110926158E+02  0.74574734435E+02  0.00000000000E+00 0. -1.
        -12    1    6    6    0    0  0.34041603918E+02  0.57843632607E+02  0.19330778791E+02  0.69845512663E+02  0.00000000000E+00 0.  1.
<mgrwt>
<rscale>  2 0.29384025E+03</rscale>
<asrwt>0</asrwt>
<pdfrwt beam="2">  1        2 0.63317800E-01 0.29384025E+03</pdfrwt>
<pdfrwt beam="1">  1       -2 0.36008769E-01 0.29384025E+03</pdfrwt>
<totfact> 0.56559125E+02</totfact>
</mgrwt>
</event>
<event>
12    1  0.4404304E-002  0.2297952E+03  0.7546771E-02  0.1126784E+00
         -2   -1    0    0    0  501 -0.00000000000E+00  0.00000000000E+00  0.55029029560E+03  0.55029029560E+03  0.00000000000E+00 0.  1.
          2   -1    0    0  502    0  0.00000000000E+00 -0.00000000000E+00 -0.95965295068E+02  0.95965295068E+02  0.00000000000E+00 0. -1.
          6    2    1    2  502    0 -0.78479024787E+01  0.15086999500E+03  0.22949220140E+03  0.32470976804E+03  0.17305033370E+03 0.  0.
         24    2    3    3    0    0 -0.52395427382E+02  0.90925554479E+02  0.79268495406E+02  0.15687928878E+03  0.85527069504E+02 0.  0.
         -6    2    1    2    0  501  0.78479024787E+01 -0.15086999500E+03  0.22483279914E+03  0.32154582263E+03  0.17325871846E+03 0.  0.
        -24    2    5    5    0    0  0.57607489701E+02 -0.13438035692E+03  0.20799887484E+03  0.26628828295E+03  0.79178371458E+02 0.  0.
          5    1    3    3  502    0  0.44547524903E+02  0.59944440519E+02  0.15022370599E+03  0.16783047925E+03  0.47000000000E+01 0. -1.
        -11    1    4    4    0    0 -0.69879590604E+02  0.63356289482E+02  0.80795252281E+02  0.12419762232E+03  0.00000000000E+00 0.  1.
         12    1    4    4    0    0  0.17484163222E+02  0.27569264998E+02 -0.15267568748E+01  0.32681666461E+02  0.00000000000E+00 0. -1.
         -5    1    5    5    0  501 -0.49759587223E+02 -0.16489638079E+02  0.16833924296E+02  0.55257539682E+02  0.47000000000E+01 0.  1.
         13    1    6    6    0    0  0.37446950459E+02 -0.16586591307E+02  0.25838311707E+02  0.48425277095E+02  0.00000000000E+00 0. -1.
        -14    1    6    6    0    0  0.20160539243E+02 -0.11779376561E+03  0.18216056313E+03  0.21786300586E+03  0.00000000000E+00 0.  1.
<mgrwt>
<rscale>  2 0.22979520E+03</rscale>
<asrwt>0</asrwt>
<pdfrwt beam="2">  1        2 0.14763892E-01 0.22979520E+03</pdfrwt>
<pdfrwt beam="1">  1       -2 0.84660044E-01 0.22979520E+03</pdfrwt>
<totfact> 0.49822572E+02</totfact>
</mgrwt>
</event>
<event>
12    1  0.4404304E-002  0.1801611E+03  0.7546771E-02  0.1167647E+00
         -2   -1    0    0    0  501 -0.00000000000E+00  0.00000000000E+00  0.23361188968E+02  0.23361188968E+02  0.00000000000E+00 0. -1.
          2   -1    0    0  502    0  0.00000000000E+00 -0.00000000000E+00 -0.15999486785E+04  0.15999486785E+04  0.00000000000E+00 0.  1.
          6    2    1    2  502    0 -0.19064053955E+01  0.49939433497E+02 -0.10816934137E+04  0.10965493819E+04  0.17280718819E+03 0.  0.
         24    2    3    3    0    0  0.30465521658E+02  0.50398664745E+02 -0.10338271042E+04  0.10385715746E+04  0.79776317034E+02 0.  0.
         -6    2    1    2    0  501  0.19064053955E+01 -0.49939433497E+02 -0.49489407582E+03  0.52676048556E+03  0.17337497359E+03 0.  0.
        -24    2    5    5    0    0 -0.64569362708E+01 -0.55404040379E+01 -0.11629180906E+03  0.14544305126E+03  0.86933930110E+02 0.  0.
          5    1    3    3  502    0 -0.32371927053E+02 -0.45923124824E+00 -0.47866309520E+02  0.57977807319E+02  0.47000000000E+01 0. -1.
        -13    1    4    4    0    0 -0.16372858427E+02 -0.84853168617E+01 -0.97666556416E+02  0.99392290130E+02  0.00000000000E+00 0.  1.
         14    1    4    4    0    0  0.46838380084E+02  0.58883981607E+02 -0.93616054776E+03  0.93917928444E+03  0.00000000000E+00 0. -1.
         -5    1    5    5    0  501  0.83633416664E+01 -0.44399029459E+02 -0.37860226676E+03  0.38131743429E+03  0.47000000000E+01 0.  1.
         11    1    6    6    0    0  0.16456326080E+02 -0.41436025616E+02 -0.64134423978E+02  0.78108765359E+02  0.00000000000E+00 0. -1.
        -12    1    6    6    0    0 -0.22913262351E+02  0.35895621578E+02 -0.52157385078E+02  0.67334285904E+02  0.00000000000E+00 0.  1.
<mgrwt>
<rscale>  2 0.18016114E+03</rscale>
<asrwt>0</asrwt>
<pdfrwt beam="2">  1        2 0.24614600E+00 0.18016114E+03</pdfrwt>
<pdfrwt beam="1">  1       -2 0.35940284E-02 0.18016114E+03</pdfrwt>
<totfact> 0.38820790E+03</totfact>
</mgrwt>
</event>
<event>
12    1  0.4404304E-002  0.2100777E+03  0.7546771E-02  0.1141504E+00
         -1   -1    0    0    0  501 -0.00000000000E+00  0.00000000000E+00  0.25278827214E+03  0.25278827214E+03  0.00000000000E+00 0.  1.
          1   -1    0    0  502    0  0.00000000000E+00 -0.00000000000E+00 -0.17723228187E+03  0.17723228187E+03  0.00000000000E+00 0. -1.
          6    2    1    2  502    0  0.94368961168E+02 -0.78006475876E+02  0.11213318074E+02  0.20834166613E+03  0.16819631456E+03 0.  0.
         24    2    3    3    0    0 -0.71747562697E+01 -0.32022251941E+02 -0.26678592130E+02  0.90513137068E+02  0.80024864616E+02 0.  0.
         -6    2    1    2    0  501 -0.94368961168E+02  0.78006475876E+02  0.64342672189E+02  0.22167888788E+03  0.17323694398E+03 0.  0.
        -24    2    5    5    0    0 -0.67733027709E+02  0.88013543067E+02 -0.14625845629E+02  0.13760908860E+03  0.79926210338E+02 0.  0.
          5    1    3    3  502    0  0.10154371744E+03 -0.45984223934E+02  0.37891910203E+02  0.11782852906E+03  0.47000000000E+01 0. -1.
        -11    1    4    4    0    0 -0.58946532140E+01 -0.45952391740E+02  0.13265223381E+02  0.48190615212E+02  0.00000000000E+00 0.  1.
         12    1    4    4    0    0 -0.12801030556E+01  0.13930139799E+02 -0.39943815511E+02  0.42322521856E+02  0.00000000000E+00 0. -1.
         -5    1    5    5    0  501 -0.26635933459E+02 -0.10007067192E+02  0.78968517818E+02  0.84069799283E+02  0.47000000000E+01 0.  1.
         13    1    6    6    0    0 -0.80784010192E+02  0.53024932450E+02  0.21844667794E+01  0.96656462066E+02  0.00000000000E+00 0. -1.
        -14    1    6    6    0    0  0.13050982483E+02  0.34988610618E+02 -0.16810312409E+02  0.40952626534E+02  0.00000000000E+00 0.  1.
<mgrwt>
<rscale>  2 0.21007770E+03</rscale>
<asrwt>0</asrwt>
<pdfrwt beam="2">  1        1 0.27266505E-01 0.21007770E+03</pdfrwt>
<pdfrwt beam="1">  1       -1 0.38890503E-01 0.21007770E+03</pdfrwt>
<totfact> 0.11072224E+03</totfact>
</mgrwt>
</event>
<event>
12    1  0.4404304E-002  0.2210776E+03  0.7546771E-02  0.1133082E+00
          2   -1    0    0  502    0  0.00000000000E+00  0.00000000000E+00  0.74472617161E+03  0.74472617161E+03  0.00000000000E+00 0. -1.
         -2   -1    0    0    0  501 -0.00000000000E+00 -0.00000000000E+00 -0.65641523018E+02  0.65641523018E+02  0.00000000000E+00 0.  1.
          6    2    1    2  502    0  0.10786837370E+03 -0.90829525336E+02  0.33271911480E+03  0.39794863677E+03  0.16665989152E+03 0.  0.
         24    2    3    3    0    0  0.12514428057E+03 -0.28318539123E+02  0.20964830972E+03  0.25875598820E+03  0.80865425514E+02 0.  0.
         -6    2    1    2    0  501 -0.10786837370E+03  0.90829525336E+02  0.34636553379E+03  0.41241905785E+03  0.17388159064E+03 0.  0.
        -24    2    5    5    0    0 -0.13032806154E+03  0.10907146232E+03  0.30977781008E+03  0.36553667982E+03  0.93663147303E+02 0.  0.
          5    1    3    3  502    0 -0.17275906864E+02 -0.62510986213E+02  0.12307080508E+03  0.13919264858E+03  0.47000000000E+01 0. -1.
        -11    1    4    4    0    0 -0.74507782916E+01 -0.10438247434E+02  0.40358346883E+01  0.13444666908E+02  0.00000000000E+00 0.  1.
         12    1    4    4    0    0  0.13259505886E+03 -0.17880291689E+02  0.20561247503E+03  0.24531132129E+03  0.00000000000E+00 0. -1.
         -5    1    5    5    0  501  0.22459687838E+02 -0.18241936988E+02  0.36587723718E+02  0.46882378030E+02  0.47000000000E+01 0.  1.
         11    1    6    6    0    0 -0.76687573923E+02  0.10007310193E+03  0.27052494538E+03  0.29846164879E+03  0.00000000000E+00 0. -1.
        -12    1    6    6    0    0 -0.53640487617E+02  0.89983603936E+01  0.39252864694E+02  0.67075031034E+02  0.00000000000E+00 0.  1.
<mgrwt>
<rscale>  2 0.22107756E+03</rscale>
<asrwt>0</asrwt>
<pdfrwt beam="1">  1        2 0.11457325E+00 0.22107756E+03</pdfrwt>
<pdfrwt beam="2">  1       -2 0.10098696E-01 0.22107756E+03</pdfrwt>
<totfact> 0.25230687E+03</totfact>
</mgrwt>
</event>
<event>
12    1  0.4404304E-002  0.2635961E+03  0.7546771E-02  0.1105002E+00
          1   -1    0    0  502    0  0.00000000000E+00  0.00000000000E+00  0.36314241170E+03  0.36314241170E+03  0.00000000000E+00 0.  1.
         -1   -1    0    0    0  501 -0.00000000000E+00 -0.00000000000E+00 -0.20489431306E+03  0.20489431306E+03  0.00000000000E+00 0. -1.
          6    2    1    2  502    0  0.19832299598E+03 -0.14763626160E+02  0.15225936414E+03  0.30465853506E+03  0.17344720702E+03 0.  0.
         24    2    3    3    0    0  0.15009891118E+03 -0.27424832349E+02  0.33243607457E+02  0.17553569109E+03  0.80161317611E+02 0.  0.
         -6    2    1    2    0  501 -0.19832299598E+03  0.14763626160E+02  0.59887344984E+01  0.26337818970E+03  0.17257528931E+03 0.  0.
        -24    2    5    5    0    0 -0.83359786085E+02 -0.61072823999E+01  0.65435003850E+02  0.13219860519E+03  0.78794534401E+02 0.  0.
          5    1    3    3  502    0  0.48224084798E+02  0.12661206189E+02  0.11901575668E+03  0.12912284397E+03  0.47000000000E+01 0. -1.
        -11    1    4    4    0    0  0.72773601744E+02 -0.24973288629E+02  0.55692172168E+02  0.94980420596E+02  0.00000000000E+00 0.  1.
         12    1    4    4    0    0  0.77325309436E+02 -0.24515437206E+01 -0.22448564711E+02  0.80555270490E+02  0.00000000000E+00 0. -1.
         -5    1    5    5    0  501 -0.11496320989E+03  0.20870908560E+02 -0.59446269352E+02  0.13117958451E+03  0.47000000000E+01 0.  1.
         11    1    6    6    0    0  0.38334990890E+01 -0.15358394267E+02 -0.80824757374E+01  0.17773643514E+02  0.00000000000E+00 0. -1.
        -12    1    6    6    0    0 -0.87193285174E+02  0.92511118667E+01  0.73517479588E+02  0.11442496168E+03  0.00000000000E+00 0.  1.
<mgrwt>
<rscale>  2 0.26359608E+03</rscale>
<asrwt>0</asrwt>
<pdfrwt beam="1">  1        1 0.55868063E-01 0.26359608E+03</pdfrwt>
<pdfrwt beam="2">  1       -1 0.31522202E-01 0.26359608E+03</pdfrwt>
<totfact> 0.64658953E+02</totfact>
</mgrwt>
</event>
<event>
12    1  0.4404304E-002  0.1814136E+03  0.7546771E-02  0.1166442E+00
          1   -1    0    0  502    0  0.00000000000E+00  0.00000000000E+00  0.11155345125E+03  0.11155345125E+03  0.00000000000E+00 0.  1.
         -1   -1    0    0    0  501 -0.00000000000E+00 -0.00000000000E+00 -0.30462256664E+03  0.30462256664E+03  0.00000000000E+00 0. -1.
          6    2    1    2  502    0 -0.13336943316E+02 -0.54431130873E+02 -0.13384238165E+03  0.22603656484E+03  0.17331509875E+03 0.  0.
         24    2    3    3    0    0  0.40740756471E+02  0.51942456517E+01 -0.33287877871E+02  0.97145597862E+02  0.81500889228E+02 0.  0.
         -6    2    1    2    0  501  0.13336943316E+02  0.54431130873E+02 -0.59226733739E+02  0.19013945304E+03  0.17176898308E+03 0.  0.
        -24    2    5    5    0    0  0.66485988339E+02  0.69274414392E+02 -0.50463634194E+02  0.13406783842E+03  0.78792612528E+02 0.  0.
          5    1    3    3  502    0 -0.54077699787E+02 -0.59625376525E+02 -0.10055450377E+03  0.12889096698E+03  0.47000000000E+01 0. -1.
        -13    1    4    4    0    0  0.53762110936E+02 -0.23336619156E+02 -0.13763892651E+02  0.60203048983E+02  0.00000000000E+00 0.  1.
         14    1    4    4    0    0 -0.13021354465E+02  0.28530864808E+02 -0.19523985220E+02  0.36942548879E+02  0.00000000000E+00 0. -1.
         -5    1    5    5    0  501 -0.53149045023E+02 -0.14843283519E+02 -0.87630995454E+01  0.56071614620E+02  0.47000000000E+01 0.  1.
         11    1    6    6    0    0 -0.17514773163E+02  0.80085379982E+01 -0.20140867764E+01  0.19363896957E+02  0.00000000000E+00 0. -1.
        -12    1    6    6    0    0  0.84000761502E+02  0.61265876394E+02 -0.48449547417E+02  0.11470394147E+03  0.00000000000E+00 0.  1.
<mgrwt>
<rscale>  2 0.18141360E+03</rscale>
<asrwt>0</asrwt>
<pdfrwt beam="1">  1        1 0.17162069E-01 0.18141360E+03</pdfrwt>
<pdfrwt beam="2">  1       -1 0.46865010E-01 0.18141360E+03</pdfrwt>
<totfact> 0.14292325E+03</totfact>
</mgrwt>
</event>
<event>
12    1  0.4404304E-002  0.2097884E+03  0.7546771E-02  0.1141734E+00
          2   -1    0    0  502    0  0.00000000000E+00  0.00000000000E+00  0.30688781805E+04  0.30688781805E+04  0.00000000000E+00 0.  1.
         -2   -1    0    0    0  501 -0.00000000000E+00 -0.00000000000E+00 -0.15261453803E+02  0.15261453803E+02  0.00000000000E+00 0. -1.
          6    2    1    2  502    0 -0.11364401051E+03  0.36783851558E+02  0.11480485361E+04  0.11670569558E+04  0.17244849645E+03 0.  0.
         24    2    3    3    0    0 -0.41863536261E+02  0.69775405149E+02  0.87714605282E+03  0.88483164766E+03  0.83190647920E+02 0.  0.
         -6    2    1    2    0  501  0.11364401051E+03 -0.36783851558E+02  0.19055681905E+04  0.19170826784E+04  0.17247566328E+03 0.  0.
        -24    2    5    5    0    0 -0.94346934032E+01 -0.21339235079E+01  0.61415574916E+03  0.61934727838E+03  0.79436766993E+02 0.  0.
          5    1    3    3  502    0 -0.71780474253E+02 -0.32991553591E+02  0.27090248333E+03  0.28222530816E+03  0.47000000000E+01 0. -1.
        -11    1    4    4    0    0 -0.52540013813E+02  0.93317405716E+01  0.48234581766E+03  0.48528859687E+03  0.00000000000E+00 0.  1.
         12    1    4    4    0    0  0.10676477552E+02  0.60443664577E+02  0.39480023515E+03  0.39954305079E+03  0.00000000000E+00 0. -1.
         -5    1    5    5    0  501  0.12307870392E+03 -0.34649928050E+02  0.12914124414E+04  0.12977354001E+04  0.47000000000E+01 0.  1.
         13    1    6    6    0    0  0.11741832618E+02 -0.32180023852E+02  0.15587198391E+03  0.15959166625E+03  0.00000000000E+00 0. -1.
        -14    1    6    6    0    0 -0.21176526021E+02  0.30046100344E+02  0.45828376524E+03  0.45975561213E+03  0.00000000000E+00 0.  1.
<mgrwt>
<rscale>  2 0.20978842E+03</rscale>
<asrwt>0</asrwt>
<pdfrwt beam="1">  1        2 0.47213461E+00 0.20978842E+03</pdfrwt>
<pdfrwt beam="2">  1       -2 0.23479184E-02 0.20978842E+03</pdfrwt>
<totfact> 0.11697301E+03</totfact>
</mgrwt>
</event>
<event>
12    1  0.4404304E-002  0.1786037E+03  0.7546771E-02  0.1169161E+00
         -2   -1    0    0    0  501 -0.00000000000E+00  0.00000000000E+00  0.22619979442E+03  0.22619979442E+03  0.00000000000E+00 0. -1.
          2   -1    0    0  502    0  0.00000000000E+00 -0.00000000000E+00 -0.15235449945E+03  0.15235449945E+03  0.00000000000E+00 0.  1.
          6    2    1    2  502    0 -0.22051929996E+02  0.24013953128E+02 -0.14188263118E+02  0.18152480333E+03  0.17800839826E+03 0.  0.
         24    2    3    3    0    0 -0.70083271269E+02  0.93187876408E+01 -0.50142151199E+02  0.11957539089E+03  0.82374353197E+02 0.  0.
         -6    2    1    2    0  501  0.22051929996E+02 -0.24013953128E+02  0.88033558086E+02  0.19702949054E+03  0.17322746673E+03 0.  0.
        -24    2    5    5    0    0 -0.49131784490E+01 -0.67925859515E+02  0.14015569863E+02  0.10671822227E+03  0.80958514389E+02 0.  0.
          5    1    3    3  502    0  0.48031341274E+02  0.14695165487E+02  0.35953888081E+02  0.61949412438E+02  0.47000000000E+01 0. -1.
        -11    1    4    4    0    0 -0.44551673230E+02 -0.35451045847E+02 -0.28618315107E+02  0.63723121383E+02  0.00000000000E+00 0.  1.
         12    1    4    4    0    0 -0.25531598039E+02  0.44769833487E+02 -0.21523836092E+02  0.55852269507E+02  0.00000000000E+00 0. -1.
         -5    1    5    5    0  501  0.26965108445E+02  0.43911906387E+02  0.74017988223E+02  0.90311268270E+02  0.47000000000E+01 0.  1.
         11    1    6    6    0    0 -0.31784176564E+02 -0.74731088301E+01  0.23023491757E+02  0.39952001303E+02  0.00000000000E+00 0. -1.
        -12    1    6    6    0    0  0.26870998115E+02 -0.60452750685E+02 -0.90079218942E+01  0.66766220965E+02  0.00000000000E+00 0.  1.
<mgrwt>
<rscale>  2 0.17860370E+03</rscale>
<asrwt>0</asrwt>
<pdfrwt beam="2">  1        2 0.23439154E-01 0.17860370E+03</pdfrwt>
<pdfrwt beam="1">  1       -2 0.34799968E-01 0.17860370E+03</pdfrwt>
<totfact> 0.17693428E+03</totfact>
</mgrwt>
</event>
<event>
12    1  0.4404304E-002  0.3786296E+03  0.7546771E-02  0.1051441E+00
          1   -1    0    0  502    0  0.00000000000E+00  0.00000000000E+00  0.87230211283E+03  0.87230211283E+03  0.00000000000E+00 0.  1.
         -1   -1    0    0    0  501 -0.00000000000E+00 -0.00000000000E+00 -0.16565983600E+03  0.16565983600E+03  0.00000000000E+00 0. -1.
          6    2    1    2  502    0 -0.11441873317E+03 -0.31683507129E+03  0.30727306318E+03  0.48774893372E+03  0.17322291446E+03 0.  0.
         24    2    3    3    0    0 -0.92237146321E+02 -0.21834854464E+03  0.12613972374E+03  0.28032908081E+03  0.80556722457E+02 0.  0.
         -6    2    1    2    0  501  0.11441873317E+03  0.31683507129E+03  0.39936921364E+03  0.55021301511E+03  0.17251806947E+03 0.  0.
        -24    2    5    5    0    0  0.13102185901E+03  0.22987267733E+03  0.35833521552E+03  0.45251961333E+03  0.79760256018E+02 0.  0.
          5    1    3    3  502    0 -0.22181586846E+02 -0.98486526641E+02  0.18113333944E+03  0.20741985291E+03  0.47000000000E+01 0. -1.
        -11    1    4    4    0    0  0.67649688470E+01 -0.78459529908E+02  0.45183103223E+02  0.90791934960E+02  0.00000000000E+00 0.  1.
         12    1    4    4    0    0 -0.99002115168E+02 -0.13988901474E+03  0.80956620521E+02  0.18953714585E+03  0.00000000000E+00 0. -1.
         -5    1    5    5    0  501 -0.16603125845E+02  0.86962393951E+02  0.41033998117E+02  0.97693401778E+02  0.47000000000E+01 0.  1.
         13    1    6    6    0    0  0.21394820163E+02  0.43790002761E+01  0.53706009819E+02  0.57976283633E+02  0.00000000000E+00 0. -1.
        -14    1    6    6    0    0  0.10962703885E+03  0.22549367706E+03  0.30462920570E+03  0.39454332970E+03  0.00000000000E+00 0.  1.
<mgrwt>
<rscale>  2 0.37862962E+03</rscale>
<asrwt>0</asrwt>
<pdfrwt beam="1">  1        1 0.13420032E+00 0.37862962E+03</pdfrwt>
<pdfrwt beam="2">  1       -1 0.25486129E-01 0.37862962E+03</pdfrwt>
<totfact> 0.26982941E+02</totfact>
</mgrwt>
</event>
<event>
12    1  0.4404304E-002  0.2465117E+03  0.7546771E-02  0.1115529E+00
          2   -1    0    0  502    0  0.00000000000E+00  0.00000000000E+00  0.15496334876E+04  0.15496334876E+04  0.00000000000E+00 0. -1.
         -2   -1    0    0    0  501 -0.00000000000E+00 -0.00000000000E+00 -0.99769165632E+02  0.99769165632E+02  0.00000000000E+00 0.  1.
          6    2    1    2  502    0 -0.22615351247E+02  0.17506401709E+03  0.13660804794E+04  0.13879386266E+04  0.17040801293E+03 0.  0.
         24    2    3    3    0    0  0.24577892377E+02  0.32531487282E+02  0.65409448906E+03  0.66027877151E+03  0.80411970682E+02 0.  0.
         -6    2    1    2    0  501  0.22615351247E+02 -0.17506401709E+03  0.83783842529E+02  0.26146402657E+03  0.17373785060E+03 0.  0.
        -24    2    5    5    0    0  0.50538161650E+02 -0.44702116128E+02  0.28912173345E+01  0.10545243926E+03  0.80990572537E+02 0.  0.
          5    1    3    3  502    0 -0.47193243623E+02  0.14253252981E+03  0.71198599034E+03  0.72765985511E+03  0.47000000000E+01 0. -1.
        -13    1    4    4    0    0  0.27021158841E+02  0.28770541356E+02  0.12325974389E+03  0.12942508079E+03  0.00000000000E+00 0.  1.
         14    1    4    4    0    0 -0.24432664642E+01  0.37609459264E+01  0.53083474517E+03  0.53085369072E+03  0.00000000000E+00 0. -1.
         -5    1    5    5    0  501 -0.27922810403E+02 -0.13036190097E+03  0.80892625195E+02  0.15601158731E+03  0.47000000000E+01 0.  1.
         11    1    6    6    0    0  0.82254164874E+01 -0.62329745715E+01  0.37307571328E+02  0.38708685418E+02  0.00000000000E+00 0. -1.
        -12    1    6    6    0    0  0.42312745162E+02 -0.38469141557E+02 -0.34416353993E+02  0.66743753846E+02  0.00000000000E+00 0.  1.
<mgrwt>
<rscale>  2 0.24651172E+03</rscale>
<asrwt>0</asrwt>
<pdfrwt beam="1">  1        2 0.23840513E+00 0.24651172E+03</pdfrwt>
<pdfrwt beam="2">  1       -2 0.15349104E-01 0.24651172E+03</pdfrwt>
<totfact> 0.42649993E+02</totfact>
</mgrwt>
</event>
<event>
12    1  0.4404304E-002  0.1923860E+03  0.7546771E-02  0.1156327E+00
         -2   -1    0    0    0  501 -0.00000000000E+00  0.00000000000E+00  0.45785720385E+03  0.45785720385E+03  0.00000000000E+00 0.  1.
          2   -1    0    0  502    0  0.00000000000E+00 -0.00000000000E+00 -0.99969963657E+02  0.99969963657E+02  0.00000000000E+00 0. -1.
          6    2    1    2  502    0  0.60193902628E+02  0.50973753324E+02  0.29999342067E+03  0.35570326578E+03  0.17408943506E+03 0.  0.
         24    2    3    3    0    0  0.32530667816E+02  0.94215999500E+02  0.26452495515E+03  0.29313131950E+03  0.77573318000E+02 0.  0.
         -6    2    1    2    0  501 -0.60193902628E+02 -0.50973753324E+02  0.57893819522E+02  0.20212390173E+03  0.17686364202E+03 0.  0.
        -24    2    5    5    0    0 -0.46608396513E+02 -0.10170301167E+03  0.27341544815E+02  0.14118495590E+03  0.81668760811E+02 0.  0.
          5    1    3    3  502    0  0.27663234812E+02 -0.43242246175E+02  0.35468465517E+02  0.62571946276E+02  0.47000000000E+01 0. -1.
        -13    1    4    4    0    0  0.43041065984E+02  0.84389252273E+02  0.26189869900E+03  0.27850495112E+03  0.00000000000E+00 0.  1.
         14    1    4    4    0    0 -0.10510398167E+02  0.98267472267E+01  0.26262561502E+01  0.14626368382E+02  0.00000000000E+00 0. -1.
         -5    1    5    5    0  501 -0.13585506116E+02  0.50729258343E+02  0.30552274707E+02  0.60938945824E+02  0.47000000000E+01 0.  1.
         13    1    6    6    0    0 -0.32891141083E+02 -0.78529030912E+02 -0.19326117136E+02  0.87304837559E+02  0.00000000000E+00 0. -1.
        -14    1    6    6    0    0 -0.13717255430E+02 -0.23173980756E+02  0.46667661952E+02  0.53880118343E+02  0.00000000000E+00 0.  1.
<mgrwt>
<rscale>  2 0.19238599E+03</rscale>
<asrwt>0</asrwt>
<pdfrwt beam="2">  1        2 0.15379995E-01 0.19238599E+03</pdfrwt>
<pdfrwt beam="1">  1       -2 0.70439568E-01 0.19238599E+03</pdfrwt>
<totfact> 0.70751924E+02</totfact>
</mgrwt>
</event>
<event>
12    1  0.4404304E-002  0.2625558E+03  0.7546771E-02  0.1105617E+00
         -2   -1    0    0    0  501 -0.00000000000E+00  0.00000000000E+00  0.65426761964E+02  0.65426761964E+02  0.00000000000E+00 0.  1.
          2   -1    0    0  502    0  0.00000000000E+00 -0.00000000000E+00 -0.12311478242E+04  0.12311478242E+04  0.00000000000E+00 0. -1.
          6    2    1    2  502    0 -0.14584970595E+03  0.13374918308E+03 -0.33410751823E+03  0.42408345727E+03  0.17046396773E+03 0.  0.
         24    2    3    3    0    0 -0.21781672116E+02  0.51486798225E+02 -0.20657306424E+03  0.22800412655E+03  0.78664599558E+02 0.  0.
         -6    2    1    2    0  501  0.14584970595E+03 -0.13374918308E+03 -0.83161354396E+03  0.87249112885E+03  0.17463877781E+03 0.  0.
        -24    2    5    5    0    0  0.15238180770E+03 -0.91417433471E+02 -0.47769746363E+03  0.51596156865E+03  0.80275220968E+02 0.  0.
          5    1    3    3  502    0 -0.12406803383E+03  0.82262384855E+02 -0.12753445399E+03  0.19607933072E+03  0.47000000000E+01 0. -1.
        -11    1    4    4    0    0 -0.22788739467E+02  0.27966162280E+02 -0.22684667270E+02  0.42614868395E+02  0.00000000000E+00 0.  1.
         12    1    4    4    0    0  0.10070673513E+01  0.23520635945E+02 -0.18388839696E+03  0.18538925815E+03  0.00000000000E+00 0. -1.
         -5    1    5    5    0  501 -0.65321017518E+01 -0.42331749609E+02 -0.35391608034E+03  0.35652956020E+03  0.47000000000E+01 0.  1.
         11    1    6    6    0    0  0.37003799776E+02 -0.56043480088E+02 -0.24227593840E+03  0.25141158125E+03  0.00000000000E+00 0. -1.
        -12    1    6    6    0    0  0.11537800793E+03 -0.35373953383E+02 -0.23542152523E+03  0.26454998740E+03  0.00000000000E+00 0.  1.
<mgrwt>
<rscale>  2 0.26255580E+03</rscale>
<asrwt>0</asrwt>
<pdfrwt beam="2">  1        2 0.18940735E+00 0.26255580E+03</pdfrwt>
<pdfrwt beam="1">  1       -2 0.10065656E-01 0.26255580E+03</pdfrwt>
<totfact> 0.12613429E+03</totfact>
</mgrwt>
</event>
<event>
12    1  0.4404304E-002  0.5386522E+03  0.7546771E-02  0.1004155E+00
          2   -1    0    0  502    0  0.00000000000E+00  0.00000000000E+00  0.13550412918E+04  0.13550412918E+04  0.00000000000E+00 0. -1.
         -2   -1    0    0    0  501 -0.00000000000E+00 -0.00000000000E+00 -0.37234107079E+03  0.37234107079E+03  0.00000000000E+00 0.  1.
          6    2    1    2  502    0  0.38777777857E+03 -0.33108619597E+03 -0.71714822762E+02  0.54329959204E+03  0.17332557858E+03 0.  0.
         24    2    3    3    0    0  0.21907724138E+03 -0.23549888618E+03 -0.10209346017E+03  0.34697904637E+03  0.80726829036E+02 0.  0.
         -6    2    1    2    0  501 -0.38777777857E+03  0.33108619597E+03  0.10544150438E+04  0.11840827705E+04  0.17398634508E+03 0.  0.
        -24    2    5    5    0    0 -0.24498366582E+03  0.12314599763E+03  0.52872136940E+03  0.60098311012E+03  0.80327323749E+02 0.  0.
          5    1    3    3  502    0  0.16870053719E+03 -0.95587309788E+02  0.30378637411E+02  0.19632054567E+03  0.47000000000E+01 0. -1.
        -11    1    4    4    0    0  0.12076533402E+03 -0.18436164505E+03 -0.59762134394E+02  0.22835278578E+03  0.00000000000E+00 0.  1.
         12    1    4    4    0    0  0.98311907361E+02 -0.51137241136E+02 -0.42331325779E+02  0.11862626059E+03  0.00000000000E+00 0. -1.
         -5    1    5    5    0  501 -0.14279411275E+03  0.20794019834E+03  0.52569367435E+03  0.58309966041E+03  0.47000000000E+01 0.  1.
         13    1    6    6    0    0 -0.94211490160E+02  0.84687742488E+02  0.28415850168E+03  0.31111713659E+03  0.00000000000E+00 0. -1.
        -14    1    6    6    0    0 -0.15077217566E+03  0.38458255142E+02  0.24456286773E+03  0.28986597353E+03  0.00000000000E+00 0.  1.
<mgrwt>
<rscale>  2 0.53865216E+03</rscale>
<asrwt>0</asrwt>
<pdfrwt beam="1">  1        2 0.20846789E+00 0.53865216E+03</pdfrwt>
<pdfrwt beam="2">  1       -2 0.57283242E-01 0.53865216E+03</pdfrwt>
<totfact> 0.45884643E+01</totfact>
</mgrwt>
</event>
<event>
12    1  0.4404304E-002  0.1980458E+03  0.7546771E-02  0.1151398E+00
         -1   -1    0    0    0  501 -0.00000000000E+00  0.00000000000E+00  0.46611896092E+02  0.46611896092E+02  0.00000000000E+00 0. -1.
          1   -1    0    0  502    0  0.00000000000E+00 -0.00000000000E+00 -0.12574133942E+04  0.12574133942E+04  0.00000000000E+00 0.  1.
          6    2    1    2  502    0  0.32275790737E+02  0.90350450885E+02 -0.23045300857E+03  0.30387831477E+03  0.17328736362E+03 0.  0.
         24    2    3    3    0    0  0.61363996390E+02  0.11587235889E+03 -0.21006232646E+03  0.25988557204E+03  0.78882101570E+02 0.  0.
         -6    2    1    2    0  501 -0.32275790737E+02 -0.90350450885E+02 -0.98034848950E+03  0.10001469755E+04  0.17322205705E+03 0.  0.
        -24    2    5    5    0    0 -0.15946742147E+02 -0.12007398174E+03 -0.56605387831E+03  0.58444005831E+03  0.80505459058E+02 0.  0.
          5    1    3    3  502    0 -0.29088205653E+02 -0.25521908010E+02 -0.20390682112E+02  0.43992742737E+02  0.47000000000E+01 0. -1.
        -11    1    4    4    0    0  0.49680858290E+02  0.12188398744E+03 -0.15531894091E+03  0.20358749343E+03  0.00000000000E+00 0.  1.
         12    1    4    4    0    0  0.11683138100E+02 -0.60116285497E+01 -0.54743385550E+02  0.56298078610E+02  0.00000000000E+00 0. -1.
         -5    1    5    5    0  501 -0.16329048590E+02  0.29723530857E+02 -0.41429461120E+03  0.41570691717E+03  0.47000000000E+01 0.  1.
         11    1    6    6    0    0  0.26776833480E+02 -0.26280783738E+02 -0.92883316595E+02  0.10017479177E+03  0.00000000000E+00 0. -1.
        -12    1    6    6    0    0 -0.42723575627E+02 -0.93793198005E+02 -0.47317056171E+03  0.48426526654E+03  0.00000000000E+00 0.  1.
<mgrwt>
<rscale>  2 0.19804576E+03</rscale>
<asrwt>0</asrwt>
<pdfrwt beam="2">  1        1 0.19344822E+00 0.19804576E+03</pdfrwt>
<pdfrwt beam="1">  1       -1 0.71710609E-02 0.19804576E+03</pdfrwt>
<totfact> 0.10680285E+03</totfact>
</mgrwt>
</event>
<event>
12    1  0.4404304E-002  0.1792117E+03  0.7546771E-02  0.1168568E+00
         -1   -1    0    0    0  501 -0.00000000000E+00  0.00000000000E+00  0.55577470979E+03  0.55577470979E+03  0.00000000000E+00 0.  1.
          1   -1    0    0  502    0  0.00000000000E+00 -0.00000000000E+00 -0.58934734151E+02  0.58934734151E+02  0.00000000000E+00 0. -1.
          6    2    1    2  502    0 -0.37669467257E+02  0.18978653130E+02  0.29349675687E+03  0.34477124469E+03  0.17591954649E+03 0.  0.
         24    2    3    3    0    0  0.42786902155E+02 -0.43790629894E+01  0.11143358872E+03  0.14430205136E+03  0.80967537582E+02 0.  0.
         -6    2    1    2    0  501  0.37669467257E+02 -0.18978653130E+02  0.20334321877E+03  0.26993819924E+03  0.17244996014E+03 0.  0.
        -24    2    5    5    0    0  0.13213952002E+02  0.45902197154E+02  0.15673176426E+03  0.18625836505E+03  0.88576026049E+02 0.  0.
          5    1    3    3  502    0 -0.80456369411E+02  0.23357716119E+02  0.18206316815E+03  0.20046919334E+03  0.47000000000E+01 0. -1.
        -11    1    4    4    0    0  0.36363330329E+01  0.12986765718E+02  0.98704128960E+02  0.99621202942E+02  0.00000000000E+00 0.  1.
         12    1    4    4    0    0  0.39150569122E+02 -0.17365828707E+02  0.12729459758E+02  0.44680848414E+02  0.00000000000E+00 0. -1.
         -5    1    5    5    0  501  0.24455515254E+02 -0.64880850284E+02  0.46611454509E+02  0.83679834198E+02  0.47000000000E+01 0.  1.
         11    1    6    6    0    0 -0.56664500617E+01  0.45347659975E+01 -0.10606473222E+02  0.12851849407E+02  0.00000000000E+00 0. -1.
        -12    1    6    6    0    0  0.18880402064E+02  0.41367431157E+02  0.16733823748E+03  0.17340651564E+03  0.00000000000E+00 0.  1.
<mgrwt>
<rscale>  2 0.17921169E+03</rscale>
<asrwt>0</asrwt>
<pdfrwt beam="2">  1        1 0.90668825E-02 0.17921169E+03</pdfrwt>
<pdfrwt beam="1">  1       -1 0.85503798E-01 0.17921169E+03</pdfrwt>
<totfact> 0.10302376E+03</totfact>
</mgrwt>
</event>
<event>
12    1  0.4404304E-002  0.1733575E+03  0.7546771E-02  0.1174391E+00
          4   -1    0    0  502    0  0.00000000000E+00  0.00000000000E+00  0.21746019922E+04  0.21746019922E+04  0.00000000000E+00 0.  1.
         -4   -1    0    0    0  501 -0.00000000000E+00 -0.00000000000E+00 -0.23685125975E+02  0.23685125975E+02  0.00000000000E+00 0. -1.
          6    2    1    2  502    0  0.36908217750E+01  0.60613785097E+02  0.18157907893E+04  0.18249560967E+04  0.17228148904E+03 0.  0.
         24    2    3    3    0    0 -0.24925738892E+02 -0.49488857757E+01  0.49532040372E+03  0.50254107092E+03  0.80990380241E+02 0.  0.
         -6    2    1    2    0  501 -0.36908217750E+01 -0.60613785097E+02  0.33512607695E+03  0.37333102145E+03  0.15290163836E+03 0.  0.
        -24    2    5    5    0    0 -0.30453981083E+02 -0.90212787623E+02  0.26010907833E+03  0.28823103479E+03  0.79715774928E+02 0.  0.
          5    1    3    3  502    0  0.28616560667E+02  0.65562670872E+02  0.13204703856E+04  0.13224150258E+04  0.47000000000E+01 0. -1.
        -13    1    4    4    0    0 -0.49011050359E+01 -0.40195263685E+01  0.47091769240E+03  0.47096034912E+03  0.00000000000E+00 0.  1.
         14    1    4    4    0    0 -0.20024633857E+02 -0.92935940719E+00  0.24402711315E+02  0.31580721802E+02  0.00000000000E+00 0. -1.
         -5    1    5    5    0  501  0.26763159308E+02  0.29599002526E+02  0.75016998622E+02  0.85099986656E+02  0.47000000000E+01 0.  1.
         13    1    6    6    0    0 -0.17191308700E+02 -0.61830579311E+02  0.67682768643E+02  0.93271211013E+02  0.00000000000E+00 0. -1.
        -14    1    6    6    0    0 -0.13262672384E+02 -0.28382208311E+02  0.19242630969E+03  0.19495982378E+03  0.00000000000E+00 0.  1.
<mgrwt>
<rscale>  2 0.17335751E+03</rscale>
<asrwt>0</asrwt>
<pdfrwt beam="1">  1        4 0.33455400E+00 0.17335751E+03</pdfrwt>
<pdfrwt beam="2">  1       -4 0.36438672E-02 0.17335751E+03</pdfrwt>
<totfact> 0.16145159E+01</totfact>
</mgrwt>
</event>
<event>
12    1  0.4404304E-002  0.1842736E+03  0.7546771E-02  0.1163730E+00
          2   -1    0    0  502    0  0.00000000000E+00  0.00000000000E+00  0.23505163221E+03  0.23505163221E+03  0.00000000000E+00 0. -1.
         -2   -1    0    0    0  501 -0.00000000000E+00 -0.00000000000E+00 -0.15905887478E+03  0.15905887478E+03  0.00000000000E+00 0.  1.
          6    2    1    2  502    0  0.57243215852E+02  0.30850329390E+02  0.97650055564E+02  0.20838370590E+03  0.17221993772E+03 0.  0.
         24    2    3    3    0    0  0.45033601949E+02 -0.52859627002E+01 -0.13401951823E+02  0.90869687062E+02  0.77599748762E+02 0.  0.
         -6    2    1    2    0  501 -0.57243215852E+02 -0.30850329390E+02 -0.21657298133E+02  0.18572680110E+03  0.17261772070E+03 0.  0.
        -24    2    5    5    0    0  0.35048459755E+02  0.26992008761E+01 -0.66779572558E+01  0.86279352565E+02  0.78510199015E+02 0.  0.
          5    1    3    3  502    0  0.12209613903E+02  0.36136292090E+02  0.11105200739E+03  0.11751401883E+03  0.47000000000E+01 0. -1.
        -11    1    4    4    0    0  0.59653841564E+02 -0.25025242516E+02 -0.48988717548E+01  0.64875592643E+02  0.00000000000E+00 0.  1.
         12    1    4    4    0    0 -0.14620239615E+02  0.19739279816E+02 -0.85030800684E+01  0.25994094419E+02  0.00000000000E+00 0. -1.
         -5    1    5    5    0  501 -0.92291675607E+02 -0.33549530266E+02 -0.14979340877E+02  0.99447448537E+02  0.47000000000E+01 0.  1.
         13    1    6    6    0    0 -0.14063485248E+02 -0.25688206509E+02 -0.16925149923E+01  0.29334794664E+02  0.00000000000E+00 0. -1.
        -14    1    6    6    0    0  0.49111945003E+02  0.28387407385E+02 -0.49854422635E+01  0.56944557901E+02  0.00000000000E+00 0.  1.
<mgrwt>
<rscale>  2 0.18427358E+03</rscale>
<asrwt>0</asrwt>
<pdfrwt beam="1">  1        2 0.36161790E-01 0.18427358E+03</pdfrwt>
<pdfrwt beam="2">  1       -2 0.24470596E-01 0.18427358E+03</pdfrwt>
<totfact> 0.20762719E+03</totfact>
</mgrwt>
</event>
<event>
12    1  0.4404304E-002  0.2923594E+03  0.7546771E-02  0.1089124E+00
          2   -1    0    0  502    0  0.00000000000E+00  0.00000000000E+00  0.57198150571E+03  0.57198150571E+03  0.00000000000E+00 0.  1.
         -2   -1    0    0    0  501 -0.00000000000E+00 -0.00000000000E+00 -0.17287657847E+03  0.17287657847E+03  0.00000000000E+00 0. -1.
          6    2    1    2  502    0 -0.16392244338E+03  0.16937609010E+03  0.33693678986E+03  0.44636547673E+03  0.17365745339E+03 0.  0.
         24    2    3    3    0    0 -0.12031475568E+03  0.12629113622E+03  0.32819723689E+03  0.38426544884E+03  0.97577750298E+02 0.  0.
         -6    2    1    2    0  501  0.16392244338E+03 -0.16937609010E+03  0.62168137376E+02  0.29849260745E+03  0.17226181253E+03 0.  0.
        -24    2    5    5    0    0  0.10959956032E+03 -0.51180299894E+02 -0.48671425139E+01  0.15207867643E+03  0.92047531358E+02 0.  0.
          5    1    3    3  502    0 -0.43607687698E+02  0.43084953883E+02  0.87395529700E+01  0.62100027887E+02  0.47000000000E+01 0. -1.
        -11    1    4    4    0    0 -0.13379879216E+03  0.94071455242E+02  0.25173234685E+03  0.30020114911E+03  0.00000000000E+00 0.  1.
         12    1    4    4    0    0  0.13484036478E+02  0.32219680973E+02  0.76464890039E+02  0.84064299738E+02  0.00000000000E+00 0. -1.
         -5    1    5    5    0  501  0.54322883058E+02 -0.11819579020E+03  0.67035279890E+02  0.14641393102E+03  0.47000000000E+01 0.  1.
         11    1    6    6    0    0 -0.15402209696E+02 -0.39843926239E+01 -0.92298161662E+01  0.18392741899E+02  0.00000000000E+00 0. -1.
        -12    1    6    6    0    0  0.12500177002E+03 -0.47195907270E+02  0.43626736524E+01  0.13368593453E+03  0.00000000000E+00 0.  1.
<mgrwt>
<rscale>  2 0.29235938E+03</rscale>
<asrwt>0</asrwt>
<pdfrwt beam="1">  1        2 0.87997154E-01 0.29235938E+03</pdfrwt>
<pdfrwt beam="2">  1       -2 0.26596397E-01 0.29235938E+03</pdfrwt>
<totfact> 0.68129826E+02</totfact>
</mgrwt>
</event>
<event>
12    1  0.4404304E-002  0.2861093E+03  0.7546771E-02  0.1092398E+00
          1   -1    0    0  502    0  0.00000000000E+00  0.00000000000E+00  0.49069703857E+03  0.49069703857E+03  0.00000000000E+00 0.  1.
         -1   -1    0    0    0  501 -0.00000000000E+00 -0.00000000000E+00 -0.17437265026E+03  0.17437265026E+03  0.00000000000E+00 0. -1.
          6    2    1    2  502    0 -0.96539046199E+02  0.20371497712E+03  0.22592540083E+03  0.36253071019E+03  0.17194955582E+03 0.  0.
         24    2    3    3    0    0 -0.57485064226E+01  0.10108213923E+03  0.47632383379E+02  0.13761536701E+03  0.80115548384E+02 0.  0.
         -6    2    1    2    0  501  0.96539046199E+02 -0.20371497712E+03  0.90398987477E+02  0.30253897864E+03  0.18038369471E+03 0.  0.
        -24    2    5    5    0    0  0.46543494304E+02 -0.17575734248E+03  0.39295260293E+01  0.19871103295E+03  0.80085536402E+02 0.  0.
          5    1    3    3  502    0 -0.90790539777E+02  0.10263283788E+03  0.17829301745E+03  0.22491534318E+03  0.47000000000E+01 0. -1.
        -11    1    4    4    0    0 -0.11308753199E+02  0.56449102154E+02  0.67266128908E+02  0.88538811440E+02  0.00000000000E+00 0.  1.
         12    1    4    4    0    0  0.55602467763E+01  0.44633037081E+02 -0.19633745529E+02  0.49076555571E+02  0.00000000000E+00 0. -1.
         -5    1    5    5    0  501  0.49995551895E+02 -0.27957634634E+02  0.86469461447E+02  0.10382794569E+03  0.47000000000E+01 0.  1.
         11    1    6    6    0    0  0.55461907463E+02 -0.58137268028E+02 -0.43211312628E+01  0.80465130887E+02  0.00000000000E+00 0. -1.
        -12    1    6    6    0    0 -0.89184131588E+01 -0.11762007446E+03  0.82506572921E+01  0.11824590206E+03  0.00000000000E+00 0.  1.
<mgrwt>
<rscale>  2 0.28610935E+03</rscale>
<asrwt>0</asrwt>
<pdfrwt beam="1">  1        1 0.75491851E-01 0.28610935E+03</pdfrwt>
<pdfrwt beam="2">  1       -1 0.26826562E-01 0.28610935E+03</pdfrwt>
<totfact> 0.57489914E+02</totfact>
</mgrwt>
</event>
<event>
12    1  0.4404304E-002  0.2013266E+03  0.7546771E-02  0.1148625E+00
          1   -1    0    0  502    0  0.00000000000E+00  0.00000000000E+00  0.22234868286E+03  0.22234868286E+03  0.00000000000E+00 0. -1.
         -1   -1    0    0    0  501 -0.00000000000E+00 -0.00000000000E+00 -0.18500876235E+03  0.18500876235E+03  0.00000000000E+00 0.  1.
          6    2    1    2  502    0 -0.10195405212E+03  0.16172420352E+02 -0.60338292150E+01  0.20115750471E+03  0.17254494685E+03 0.  0.
         24    2    3    3    0    0 -0.36407355163E+02  0.70344502782E+01  0.60591026734E+02  0.10713179860E+03  0.80193333577E+02 0.  0.
         -6    2    1    2    0  501  0.10195405212E+03 -0.16172420352E+02  0.43373749721E+02  0.20619994050E+03  0.17315010070E+03 0.  0.
        -24    2    5    5    0    0  0.69531732619E+02  0.42685469421E+02 -0.16497755286E+02  0.11607699612E+03  0.80901062781E+02 0.  0.
          5    1    3    3  502    0 -0.65546696955E+02  0.91379700740E+01 -0.66624855950E+02  0.94025706108E+02  0.47000000000E+01 0. -1.
        -11    1    4    4    0    0 -0.36020362349E+02  0.16431559271E+02 -0.58564644489E+01  0.40022004194E+02  0.00000000000E+00 0.  1.
         12    1    4    4    0    0 -0.38699281321E+00 -0.93971089932E+01  0.66447491183E+02  0.67109794408E+02  0.00000000000E+00 0. -1.
         -5    1    5    5    0  501  0.32422319498E+02 -0.58857889773E+02  0.59871505007E+02  0.90122944371E+02  0.47000000000E+01 0.  1.
         11    1    6    6    0    0  0.31987634769E+02  0.14666456073E+02  0.32774957891E+02  0.48088580522E+02  0.00000000000E+00 0. -1.
        -12    1    6    6    0    0  0.37544097850E+02  0.28019013348E+02 -0.49272713177E+02  0.67988415603E+02  0.00000000000E+00 0.  1.
<mgrwt>
<rscale>  2 0.20132660E+03</rscale>
<asrwt>0</asrwt>
<pdfrwt beam="1">  1        1 0.34207490E-01 0.20132660E+03</pdfrwt>
<pdfrwt beam="2">  1       -1 0.28462887E-01 0.20132660E+03</pdfrwt>
<totfact> 0.14235402E+03</totfact>
</mgrwt>
</event>
<event>
12    1  0.4404304E-002  0.1735443E+03  0.7546771E-02  0.1174201E+00
         -2   -1    0    0    0  501 -0.00000000000E+00  0.00000000000E+00  0.22170745338E+03  0.22170745338E+03  0.00000000000E+00 0.  1.
          2   -1    0    0  502    0  0.00000000000E+00 -0.00000000000E+00 -0.16441746416E+03  0.16441746416E+03  0.00000000000E+00 0. -1.
          6    2    1    2  502    0  0.34605399310E+02  0.20798876227E+01 -0.52086213322E+02  0.17924403712E+03  0.16796901985E+03 0.  0.
         24    2    3    3    0    0 -0.24400285014E+02 -0.41661537971E+02 -0.10911069667E+02  0.94908602393E+02  0.80978600334E+02 0.  0.
         -6    2    1    2    0  501 -0.34605399310E+02 -0.20798876227E+01  0.10937620255E+03  0.20688088042E+03  0.17214727825E+03 0.  0.
        -24    2    5    5    0    0  0.15890933340E+02  0.15266481213E+02 -0.10287436118E+01  0.84153058561E+02  0.81210170180E+02 0.  0.
          5    1    3    3  502    0  0.59005684323E+02  0.43741425594E+02 -0.41175143655E+02  0.84335434726E+02  0.47000000000E+01 0. -1.
        -13    1    4    4    0    0  0.17550855158E+02 -0.48104096902E+02 -0.50379852163E+00  0.51208304683E+02  0.00000000000E+00 0.  1.
         14    1    4    4    0    0 -0.41951140172E+02  0.64425589309E+01 -0.10407271146E+02  0.43700297710E+02  0.00000000000E+00 0. -1.
         -5    1    5    5    0  501 -0.50496332650E+02 -0.17346368836E+02  0.11040494616E+03  0.12272782186E+03  0.47000000000E+01 0.  1.
         13    1    6    6    0    0 -0.28908870253E+01  0.46887259235E+02  0.34521766479E+01  0.47102970500E+02  0.00000000000E+00 0. -1.
        -14    1    6    6    0    0  0.18781820366E+02 -0.31620778022E+02 -0.44809202597E+01  0.37050088061E+02  0.00000000000E+00 0.  1.
<mgrwt>
<rscale>  2 0.17354428E+03</rscale>
<asrwt>0</asrwt>
<pdfrwt beam="2">  1        2 0.25294994E-01 0.17354428E+03</pdfrwt>
<pdfrwt beam="1">  1       -2 0.34108839E-01 0.17354428E+03</pdfrwt>
<totfact> 0.16850843E+03</totfact>
</mgrwt>
</event>
<event>
12    1  0.4404304E-002  0.6643135E+03  0.7546771E-02  0.9780286E-01
          2   -1    0    0  502    0  0.00000000000E+00  0.00000000000E+00  0.25441693276E+04  0.25441693276E+04  0.00000000000E+00 0. -1.
         -2   -1    0    0    0  501 -0.00000000000E+00 -0.00000000000E+00 -0.21410342552E+03  0.21410342552E+03  0.00000000000E+00 0.  1.
          6    2    1    2  502    0  0.51003457857E+03  0.38823996372E+03  0.17667067892E+04  0.18876725474E+04  0.17660471780E+03 0.  0.
         24    2    3    3    0    0  0.15957844427E+03  0.98071957158E+02  0.42816852095E+03  0.47391027611E+03  0.78608388928E+02 0.  0.
         -6    2    1    2    0  501 -0.51003457857E+03 -0.38823996372E+03  0.56335911288E+03  0.87060020575E+03  0.17235337947E+03 0.  0.
        -24    2    5    5    0    0 -0.20269289953E+03 -0.15437724495E+03  0.30583106603E+03  0.40638747023E+03  0.81862016394E+02 0.  0.
          5    1    3    3  502    0  0.35045613430E+03  0.29016800656E+03  0.13385382682E+04  0.14137622713E+04  0.47000000000E+01 0. -1.
        -13    1    4    4    0    0  0.95016566286E+02  0.23578128446E+02  0.27355240087E+03  0.29054258213E+03  0.00000000000E+00 0.  1.
         14    1    4    4    0    0  0.64561877987E+02  0.74493828713E+02  0.15461612008E+03  0.18336769398E+03  0.00000000000E+00 0. -1.
         -5    1    5    5    0  501 -0.30734167904E+03 -0.23386271877E+03  0.25752804684E+03  0.46421273552E+03  0.47000000000E+01 0.  1.
         13    1    6    6    0    0 -0.32335172551E+01 -0.26791894555E+02  0.56105519369E+02  0.62258256893E+02  0.00000000000E+00 0. -1.
        -14    1    6    6    0    0 -0.19945938228E+03 -0.12758535039E+03  0.24972554667E+03  0.34412921334E+03  0.00000000000E+00 0.  1.
<mgrwt>
<rscale>  2 0.66431346E+03</rscale>
<asrwt>0</asrwt>
<pdfrwt beam="1">  1        2 0.39141064E+00 0.66431346E+03</pdfrwt>
<pdfrwt beam="2">  1       -2 0.32938990E-01 0.66431346E+03</pdfrwt>
<totfact> 0.29870194E+01</totfact>
</mgrwt>
</event>
<event>
12    1  0.4404304E-002  0.2744178E+03  0.7546771E-02  0.1098777E+00
         -2   -1    0    0    0  501 -0.00000000000E+00  0.00000000000E+00  0.68928638437E+02  0.68928638437E+02  0.00000000000E+00 0.  1.
          2   -1    0    0  502    0  0.00000000000E+00 -0.00000000000E+00 -0.11736253582E+04  0.11736253582E+04  0.00000000000E+00 0. -1.
          6    2    1    2  502    0  0.28548547879E+02 -0.21115650683E+03 -0.38846882588E+03  0.47545037112E+03  0.17246140657E+03 0.  0.
         24    2    3    3    0    0 -0.58877331111E+02 -0.10386831984E+03 -0.18112301635E+03  0.22611442483E+03  0.63773176795E+02 0.  0.
         -6    2    1    2    0  501 -0.28548547879E+02  0.21115650683E+03 -0.71622789385E+03  0.76710362548E+03  0.17338825318E+03 0.  0.
        -24    2    5    5    0    0  0.10587421067E+02  0.34429805111E+02 -0.16846399521E+03  0.19018826790E+03  0.80585076776E+02 0.  0.
          5    1    3    3  502    0  0.87425878990E+02 -0.10728818699E+03 -0.20734580953E+03  0.24933594629E+03  0.47000000000E+01 0. -1.
        -13    1    4    4    0    0 -0.80648999074E+01 -0.64086545537E+02 -0.56682585224E+02  0.85936275211E+02  0.00000000000E+00 0.  1.
         14    1    4    4    0    0 -0.50812431203E+02 -0.39781774304E+02 -0.12444043112E+03  0.14017814962E+03  0.00000000000E+00 0. -1.
         -5    1    5    5    0  501 -0.39135968946E+02  0.17672670172E+03 -0.54776389864E+03  0.57691535758E+03  0.47000000000E+01 0.  1.
         13    1    6    6    0    0 -0.21871255607E+02 -0.15137817084E+02 -0.74477857282E+02  0.79085122199E+02  0.00000000000E+00 0. -1.
        -14    1    6    6    0    0  0.32458676674E+02  0.49567622195E+02 -0.93986137926E+02  0.11110314570E+03  0.00000000000E+00 0.  1.
<mgrwt>
<rscale>  2 0.27441780E+03</rscale>
<asrwt>0</asrwt>
<pdfrwt beam="2">  1        2 0.18055775E+00 0.27441780E+03</pdfrwt>
<pdfrwt beam="1">  1       -2 0.10604405E-01 0.27441780E+03</pdfrwt>
<totfact> 0.12507341E+03</totfact>
</mgrwt>
</event>
<event>
12    1  0.4404304E-002  0.1944441E+03  0.7546771E-02  0.1154513E+00
         -1   -1    0    0    0  501 -0.00000000000E+00  0.00000000000E+00  0.66815730014E+03  0.66815730014E+03  0.00000000000E+00 0. -1.
          1   -1    0    0  502    0  0.00000000000E+00 -0.00000000000E+00 -0.62968439728E+02  0.62968439728E+02  0.00000000000E+00 0.  1.
          6    2    1    2  502    0 -0.84397370824E+02  0.32589664610E+02  0.42034340930E+03  0.46355506696E+03  0.17323312593E+03 0.  0.
         24    2    3    3    0    0 -0.47169873431E+02 -0.32514631287E+02  0.33682215863E+03  0.35120585592E+03  0.81327661248E+02 0.  0.
         -6    2    1    2    0  501  0.84397370824E+02 -0.32589664610E+02  0.18484545111E+03  0.26757067291E+03  0.17100064843E+03 0.  0.
        -24    2    5    5    0    0  0.50381533456E+02  0.47280220924E+02  0.97740257307E+02  0.14450288429E+03  0.80958059924E+02 0.  0.
          5    1    3    3  502    0 -0.37227497393E+02  0.65104295897E+02  0.83521250674E+02  0.11234921104E+03  0.47000000000E+01 0. -1.
        -13    1    4    4    0    0  0.88980653488E+01 -0.73860597738E+01  0.32357007589E+01  0.12008297354E+02  0.00000000000E+00 0.  1.
         14    1    4    4    0    0 -0.56067938780E+02 -0.25128571513E+02  0.33358645787E+03  0.33919755857E+03  0.00000000000E+00 0. -1.
         -5    1    5    5    0  501  0.34015837368E+02 -0.79869885534E+02  0.87105193804E+02  0.12306778862E+03  0.47000000000E+01 0.  1.
         11    1    6    6    0    0  0.34850168915E+02  0.92335826989E+01  0.96910990791E+02  0.10339987166E+03  0.00000000000E+00 0. -1.
        -12    1    6    6    0    0  0.15531364541E+02  0.38046638225E+02  0.82926651618E+00  0.41103012635E+02  0.00000000000E+00 0.  1.
<mgrwt>
<rscale>  2 0.19444413E+03</rscale>
<asrwt>0</asrwt>
<pdfrwt beam="2">  1        1 0.96874527E-02 0.19444413E+03</pdfrwt>
<pdfrwt beam="1">  1       -1 0.10279343E+00 0.19444413E+03</pdfrwt>
<totfact> 0.63320193E+02</totfact>
</mgrwt>
</event>
<event>
12    1  0.4404304E-002  0.2089067E+03  0.7546771E-02  0.1142435E+00
          2   -1    0    0  502    0  0.00000000000E+00  0.00000000000E+00  0.10302335259E+04  0.10302335259E+04  0.00000000000E+00 0.  1.
         -2   -1    0    0    0  501 -0.00000000000E+00 -0.00000000000E+00 -0.82039080890E+02  0.82039080890E+02  0.00000000000E+00 0. -1.
          6    2    1    2  502    0  0.10012511478E+03 -0.57203534965E+02  0.86952494665E+02  0.22597895875E+03  0.17380584123E+03 0.  0.
         24    2    3    3    0    0  0.11472908624E+03  0.24677830344E+01  0.85542095369E+02  0.16435086937E+03  0.80776884080E+02 0.  0.
         -6    2    1    2    0  501 -0.10012511478E+03  0.57203534965E+02  0.86124195031E+03  0.88629364801E+03  0.17458937681E+03 0.  0.
        -24    2    5    5    0    0 -0.80123168476E+02 -0.24413462783E+02  0.62838273704E+03  0.63869131485E+03  0.77755978328E+02 0.  0.
          5    1    3    3  502    0 -0.14603971455E+02 -0.59671318000E+02  0.14103992952E+01  0.61628089377E+02  0.47000000000E+01 0. -1.
        -11    1    4    4    0    0  0.93302528231E+02  0.85869928875E+01  0.20932531733E+02  0.96006609699E+02  0.00000000000E+00 0.  1.
         12    1    4    4    0    0  0.21426558006E+02 -0.61192098531E+01  0.64609563636E+02  0.68344259675E+02  0.00000000000E+00 0. -1.
         -5    1    5    5    0  501 -0.20001946306E+02  0.81616997748E+02  0.23285921328E+03  0.24760233316E+03  0.47000000000E+01 0.  1.
         11    1    6    6    0    0 -0.65847487994E+02 -0.11841759077E+02  0.22196773035E+03  0.23183138754E+03  0.00000000000E+00 0. -1.
        -12    1    6    6    0    0 -0.14275680482E+02 -0.12571703706E+02  0.40641500669E+03  0.40685992731E+03  0.00000000000E+00 0.  1.
<mgrwt>
<rscale>  2 0.20890675E+03</rscale>
<asrwt>0</asrwt>
<pdfrwt beam="1">  1        2 0.15849746E+00 0.20890675E+03</pdfrwt>
<pdfrwt beam="2">  1       -2 0.12621398E-01 0.20890675E+03</pdfrwt>
<totfact> 0.11486562E+03</totfact>
</mgrwt>
</event>
<event>
12    1  0.4404304E-002  0.2231087E+03  0.7546771E-02  0.1131586E+00
         -2   -1    0    0    0  501 -0.00000000000E+00  0.00000000000E+00  0.17316433442E+03  0.17316433442E+03  0.00000000000E+00 0.  1.
          2   -1    0    0  502    0  0.00000000000E+00 -0.00000000000E+00 -0.29074971059E+03  0.29074971059E+03  0.00000000000E+00 0. -1.
          6    2    1    2  502    0  0.12564385554E+03 -0.63389950794E+02 -0.34139054682E+02  0.22580461296E+03  0.17325583362E+03 0.  0.
         24    2    3    3    0    0  0.93721151335E+02  0.22837257006E+02 -0.47405998516E+02  0.13278691461E+03  0.77973338268E+02 0.  0.
         -6    2    1    2    0  501 -0.12564385554E+03  0.63389950794E+02 -0.83446321481E+02  0.23810943205E+03  0.17299753976E+03 0.  0.
        -24    2    5    5    0    0 -0.39120051227E+02 -0.11452379831E+01  0.16820138255E+02  0.90709933229E+02  0.80085485311E+02 0.  0.
          5    1    3    3  502    0  0.31922704206E+02 -0.86227207800E+02  0.13266943834E+02  0.93017698356E+02  0.47000000000E+01 0. -1.
        -11    1    4    4    0    0  0.21228487667E+02  0.24440472677E+02  0.16319579957E+02  0.36253469948E+02  0.00000000000E+00 0.  1.
         12    1    4    4    0    0  0.72492663669E+02 -0.16032156710E+01 -0.63725578473E+02  0.96533444660E+02  0.00000000000E+00 0. -1.
         -5    1    5    5    0  501 -0.86523804314E+02  0.64535188777E+02 -0.10026645974E+03  0.14739949882E+03  0.47000000000E+01 0.  1.
         13    1    6    6    0    0 -0.22600320515E+02 -0.39815107815E+02  0.10345934757E+01  0.45793969924E+02  0.00000000000E+00 0. -1.
        -14    1    6    6    0    0 -0.16519730712E+02  0.38669869832E+02  0.15785544780E+02  0.44915963305E+02  0.00000000000E+00 0.  1.
<mgrwt>
<rscale>  2 0.22310874E+03</rscale>
<asrwt>0</asrwt>
<pdfrwt beam="2">  1        2 0.44730725E-01 0.22310874E+03</pdfrwt>
<pdfrwt beam="1">  1       -2 0.26640667E-01 0.22310874E+03</pdfrwt>
<totfact> 0.14287095E+03</totfact>
</mgrwt>
</event>
<event>
12    1  0.4404304E-002  0.2853719E+03  0.7546771E-02  0.1092791E+00
          2   -1    0    0  502    0  0.00000000000E+00  0.00000000000E+00  0.78897821502E+03  0.78897821502E+03  0.00000000000E+00 0. -1.
         -2   -1    0    0    0  501 -0.00000000000E+00 -0.00000000000E+00 -0.10340860469E+03  0.10340860469E+03  0.00000000000E+00 0.  1.
          6    2    1    2  502    0 -0.20711648377E+03  0.91678328662E+02  0.32316140537E+03  0.43085079417E+03  0.17290737150E+03 0.  0.
         24    2    3    3    0    0 -0.13647043220E+03  0.92717237905E+02  0.12792099540E+03  0.22316629397E+03  0.78859042802E+02 0.  0.
         -6    2    1    2    0  501  0.20711648377E+03 -0.91678328662E+02  0.36240820496E+03  0.46153602554E+03  0.17428035474E+03 0.  0.
        -24    2    5    5    0    0  0.10680063490E+03  0.15456536094E+02  0.12937189169E+03  0.18609245222E+03  0.79044508284E+02 0.  0.
          5    1    3    3  502    0 -0.70646051571E+02 -0.10389092432E+01  0.19524040997E+03  0.20768450020E+03  0.47000000000E+01 0. -1.
        -13    1    4    4    0    0 -0.42524425842E+02  0.39213642719E+02  0.29497210381E+01  0.57920095154E+02  0.00000000000E+00 0.  1.
         14    1    4    4    0    0 -0.93946006360E+02  0.53503595186E+02  0.12497127436E+03  0.16524619882E+03  0.00000000000E+00 0. -1.
         -5    1    5    5    0  501  0.10031584888E+03 -0.10713486476E+03  0.23303631327E+03  0.27544357332E+03  0.47000000000E+01 0.  1.
         11    1    6    6    0    0  0.22769846202E+02  0.28783203260E+02  0.79274621468E+02  0.87357909171E+02  0.00000000000E+00 0. -1.
        -12    1    6    6    0    0  0.84030788695E+02 -0.13326667167E+02  0.50097270224E+02  0.98734543045E+02  0.00000000000E+00 0.  1.
<mgrwt>
<rscale>  2 0.28537187E+03</rscale>
<asrwt>0</asrwt>
<pdfrwt beam="1">  1        2 0.12138126E+00 0.28537187E+03</pdfrwt>
<pdfrwt beam="2">  1       -2 0.15909017E-01 0.28537187E+03</pdfrwt>
<totfact> 0.11218098E+03</totfact>
</mgrwt>
</event>
<event>
12    1  0.4404304E-002  0.1988138E+03  0.7546771E-02  0.1150744E+00
         -4   -1    0    0    0  501 -0.00000000000E+00  0.00000000000E+00  0.43114728761E+03  0.43114728761E+03  0.00000000000E+00 0.  1.
          4   -1    0    0  502    0  0.00000000000E+00 -0.00000000000E+00 -0.95215764610E+02  0.95215764610E+02  0.00000000000E+00 0. -1.
          6    2    1    2  502    0  0.70696571384E+02  0.66587812369E+02  0.21892902411E+03  0.29592820655E+03  0.17381497023E+03 0.  0.
         24    2    3    3    0    0  0.35934919884E+02  0.11066160369E+03  0.17985165925E+03  0.22737164640E+03  0.76249178701E+02 0.  0.
         -6    2    1    2    0  501 -0.70696571384E+02 -0.66587812369E+02  0.11700249890E+03  0.23043484567E+03  0.17314355717E+03 0.  0.
        -24    2    5    5    0    0 -0.58805561728E+02 -0.71344711763E+02  0.11243298161E+02  0.12379937904E+03  0.81558031558E+02 0.  0.
          5    1    3    3  502    0  0.34761651500E+02 -0.44073791317E+02  0.39077364855E+02  0.68556560154E+02  0.47000000000E+01 0. -1.
        -11    1    4    4    0    0  0.63133694812E+01  0.10631409708E+03  0.11996738823E+03  0.16042044791E+03  0.00000000000E+00 0.  1.
         12    1    4    4    0    0  0.29621550403E+02  0.43475066096E+01  0.59884271029E+02  0.66951198486E+02  0.00000000000E+00 0. -1.
         -5    1    5    5    0  501 -0.11891009656E+02  0.47568993942E+01  0.10575920073E+03  0.10663546663E+03  0.47000000000E+01 0.  1.
         13    1    6    6    0    0 -0.38952902653E+02  0.34463927892E+01 -0.15301110687E+02  0.41992025869E+02  0.00000000000E+00 0. -1.
        -14    1    6    6    0    0 -0.19852659075E+02 -0.74791104552E+02  0.26544408847E+02  0.81807353176E+02  0.00000000000E+00 0.  1.
<mgrwt>
<rscale>  2 0.19881383E+03</rscale>
<asrwt>0</asrwt>
<pdfrwt beam="2">  1        4 0.14648579E-01 0.19881383E+03</pdfrwt>
<pdfrwt beam="1">  1       -4 0.66330351E-01 0.19881383E+03</pdfrwt>
<totfact> 0.14950421E+02</totfact>
</mgrwt>
</event>
<event>
12    1  0.4404304E-002  0.5028460E+03  0.7546771E-02  0.1013039E+00
         -2   -1    0    0    0  501 -0.00000000000E+00  0.00000000000E+00  0.12905499625E+03  0.12905499625E+03  0.00000000000E+00 0.  1.
          2   -1    0    0  502    0  0.00000000000E+00 -0.00000000000E+00 -0.29009211960E+04  0.29009211960E+04  0.00000000000E+00 0. -1.
          6    2    1    2  502    0 -0.36388277292E+03 -0.29987524564E+03 -0.52307567418E+03  0.72568542132E+03  0.17514375358E+03 0.  0.
         24    2    3    3    0    0 -0.19335795817E+03 -0.10567952964E+03 -0.17590033653E+03  0.29285347514E+03  0.79162911389E+02 0.  0.
         -6    2    1    2    0  501  0.36388277292E+03  0.29987524564E+03 -0.22487905256E+04  0.23042907709E+04  0.17424492450E+03 0.  0.
        -24    2    5    5    0    0  0.58863475419E+02  0.88987616198E+02 -0.61504234063E+03  0.62898017707E+03  0.77170446441E+02 0.  0.
          5    1    3    3  502    0 -0.17052481476E+03 -0.19419571600E+03 -0.34717533765E+03  0.43283194617E+03  0.47000000000E+01 0. -1.
        -13    1    4    4    0    0 -0.14825961550E+03 -0.98604441088E+02 -0.17112149806E+03  0.24695407769E+03  0.00000000000E+00 0.  1.
         14    1    4    4    0    0 -0.45098342669E+02 -0.70750885555E+01 -0.47788384752E+01  0.45899397455E+02  0.00000000000E+00 0. -1.
         -5    1    5    5    0  501  0.30501929750E+03  0.21088762945E+03 -0.16337481849E+04  0.16753105939E+04  0.47000000000E+01 0.  1.
         11    1    6    6    0    0  0.52080516022E+02  0.86315771670E+02 -0.61323941064E+03  0.62147032701E+03  0.00000000000E+00 0. -1.
        -12    1    6    6    0    0  0.67829593968E+01  0.26718445285E+01 -0.18029299854E+01  0.75098500581E+01  0.00000000000E+00 0.  1.
<mgrwt>
<rscale>  2 0.50284600E+03</rscale>
<asrwt>0</asrwt>
<pdfrwt beam="2">  1        2 0.44629558E+00 0.50284600E+03</pdfrwt>
<pdfrwt beam="1">  1       -2 0.19854614E-01 0.50284600E+03</pdfrwt>
<totfact> 0.47684483E+01</totfact>
</mgrwt>
</event>
<event>
12    1  0.4404304E-002  0.2211915E+03  0.7546771E-02  0.1132998E+00
         -1   -1    0    0    0  501 -0.00000000000E+00  0.00000000000E+00  0.29830225820E+03  0.29830225820E+03  0.00000000000E+00 0.  1.
          1   -1    0    0  502    0  0.00000000000E+00 -0.00000000000E+00 -0.18156745691E+03  0.18156745691E+03  0.00000000000E+00 0. -1.
          6    2    1    2  502    0  0.58595426707E+02  0.12388460946E+03 -0.16235764972E+02  0.22178742013E+03  0.17362384391E+03 0.  0.
         24    2    3    3    0    0  0.86866312020E+01  0.11206100016E+03  0.42061148105E+02  0.14399728143E+03  0.79579843930E+02 0.  0.
         -6    2    1    2    0  501 -0.58595426707E+02 -0.12388460946E+03  0.13297056626E+03  0.25808229497E+03  0.17362165474E+03 0.  0.
        -24    2    5    5    0    0 -0.29291634796E+02 -0.14698537966E+03  0.11280471103E+03  0.21540783514E+03  0.10589112760E+03 0.  0.
          5    1    3    3  502    0  0.49908795505E+02  0.11823609296E+02 -0.58296913077E+02  0.77790138706E+02  0.47000000000E+01 0. -1.
        -13    1    4    4    0    0 -0.19510394082E+02  0.10568266658E+03  0.41138060996E+02  0.11507311395E+03  0.00000000000E+00 0.  1.
         14    1    4    4    0    0  0.28197025284E+02  0.63783335795E+01  0.92308710950E+00  0.28924167472E+02  0.00000000000E+00 0. -1.
         -5    1    5    5    0  501 -0.29303791911E+02  0.23100770208E+02  0.20165855233E+02  0.42674459831E+02  0.47000000000E+01 0.  1.
         11    1    6    6    0    0  0.26164210859E+02 -0.50563337849E+02  0.82293310204E+02  0.10006700739E+03  0.00000000000E+00 0. -1.
        -12    1    6    6    0    0 -0.55455845655E+02 -0.96422041816E+02  0.30511400827E+02  0.11534082775E+03  0.00000000000E+00 0.  1.
<mgrwt>
<rscale>  2 0.22119150E+03</rscale>
<asrwt>0</asrwt>
<pdfrwt beam="2">  1        1 0.27933455E-01 0.22119150E+03</pdfrwt>
<pdfrwt beam="1">  1       -1 0.45892655E-01 0.22119150E+03</pdfrwt>
<totfact> 0.79902407E+02</totfact>
</mgrwt>
</event>
<event>
12    1  0.4404304E-002  0.1923692E+03  0.7546771E-02  0.1156342E+00
         -2   -1    0    0    0  501 -0.00000000000E+00  0.00000000000E+00  0.99849861839E+02  0.99849861839E+02  0.00000000000E+00 0. -1.
          2   -1    0    0  502    0  0.00000000000E+00 -0.00000000000E+00 -0.48143722777E+03  0.48143722777E+03  0.00000000000E+00 0.  1.
          6    2    1    2  502    0 -0.49435620108E+02 -0.62157024401E+02 -0.32918950225E+03  0.38059657641E+03  0.17372578784E+03 0.  0.
         24    2    3    3    0    0 -0.34228279497E+01  0.29428347361E+02 -0.20974113036E+03  0.22313210133E+03  0.70134510056E+02 0.  0.
         -6    2    1    2    0  501  0.49435620108E+02  0.62157024401E+02 -0.52397863680E+02  0.20069051320E+03  0.17670248938E+03 0.  0.
        -24    2    5    5    0    0 -0.23652595367E+02  0.39193826374E+01  0.17217566170E+02  0.84063294113E+02  0.78710774386E+02 0.  0.
          5    1    3    3  502    0 -0.46012792158E+02 -0.91585371762E+02 -0.11944837190E+03  0.15746447508E+03  0.47000000000E+01 0. -1.
        -13    1    4    4    0    0  0.14290574464E+02 -0.16302308599E+02 -0.10842306888E+03  0.11056919846E+03  0.00000000000E+00 0.  1.
         14    1    4    4    0    0 -0.17713402414E+02  0.45730655960E+02 -0.10131806148E+03  0.11256290287E+03  0.00000000000E+00 0. -1.
         -5    1    5    5    0  501  0.73088215475E+02  0.58237641764E+02 -0.69615429850E+02  0.11662721909E+03  0.47000000000E+01 0.  1.
         13    1    6    6    0    0 -0.36384244268E+02  0.29463287503E+02 -0.60931817792E+01  0.47212555593E+02  0.00000000000E+00 0. -1.
        -14    1    6    6    0    0  0.12731648901E+02 -0.25543904865E+02  0.23310747949E+02  0.36850738520E+02  0.00000000000E+00 0.  1.
<mgrwt>
<rscale>  2 0.19236920E+03</rscale>
<asrwt>0</asrwt>
<pdfrwt beam="2">  1        2 0.74067268E-01 0.19236920E+03</pdfrwt>
<pdfrwt beam="1">  1       -2 0.15361517E-01 0.19236920E+03</pdfrwt>
<totfact> 0.21161450E+03</totfact>
</mgrwt>
</event>
<event>
12    1  0.4404304E-002  0.2213621E+03  0.7546771E-02  0.1132872E+00
          1   -1    0    0  502    0  0.00000000000E+00  0.00000000000E+00  0.24168727389E+03  0.24168727389E+03  0.00000000000E+00 0. -1.
         -1   -1    0    0    0  501 -0.00000000000E+00 -0.00000000000E+00 -0.25106618056E+03  0.25106618056E+03  0.00000000000E+00 0.  1.
          6    2    1    2  502    0 -0.31070251069E+02  0.14011503789E+03 -0.11264370162E+03  0.24522049724E+03  0.16385024996E+03 0.  0.
         24    2    3    3    0    0  0.31371039367E+02  0.37893857433E+02 -0.33025450769E+02  0.10131344268E+03  0.82180573905E+02 0.  0.
         -6    2    1    2    0  501  0.31070251069E+02 -0.14011503789E+03  0.10326479494E+03  0.24753295721E+03  0.17323787890E+03 0.  0.
        -24    2    5    5    0    0  0.31834526982E+01 -0.21613062152E+02 -0.64513444214E+01  0.83581400299E+02  0.80417484445E+02 0.  0.
          5    1    3    3  502    0 -0.62441290436E+02  0.10222118045E+03 -0.79618250847E+02  0.14390705456E+03  0.47000000000E+01 0. -1.
        -11    1    4    4    0    0  0.41285216073E+02  0.58659549117E+02 -0.18420597087E+02  0.74058964115E+02  0.00000000000E+00 0.  1.
         12    1    4    4    0    0 -0.99141767058E+01 -0.20765691684E+02 -0.14604853682E+02  0.27254478567E+02  0.00000000000E+00 0. -1.
         -5    1    5    5    0  501  0.27886798371E+02 -0.11850197573E+03  0.10971613936E+03  0.16395155691E+03  0.47000000000E+01 0.  1.
         13    1    6    6    0    0 -0.18278604319E+02  0.57060129707E+01  0.28477747593E+02  0.34316877304E+02  0.00000000000E+00 0. -1.
        -14    1    6    6    0    0  0.21462057017E+02 -0.27319075122E+02 -0.34929092015E+02  0.49264522995E+02  0.00000000000E+00 0.  1.
<mgrwt>
<rscale>  2 0.22136210E+03</rscale>
<asrwt>0</asrwt>
<pdfrwt beam="1">  1        1 0.37182657E-01 0.22136210E+03</pdfrwt>
<pdfrwt beam="2">  1       -1 0.38625566E-01 0.22136210E+03</pdfrwt>
<totfact> 0.75883432E+02</totfact>
</mgrwt>
</event>
<event>
12    1  0.4404304E-002  0.2216687E+03  0.7546771E-02  0.1132645E+00
          1   -1    0    0  502    0  0.00000000000E+00  0.00000000000E+00  0.23653924611E+03  0.23653924611E+03  0.00000000000E+00 0. -1.
         -1   -1    0    0    0  501 -0.00000000000E+00 -0.00000000000E+00 -0.21466542614E+03  0.21466542614E+03  0.00000000000E+00 0.  1.
          6    2    1    2  502    0  0.13625099715E+03  0.24073035379E+02 -0.29634109396E+02  0.22288815293E+03  0.17221237765E+03 0.  0.
         24    2    3    3    0    0 -0.20350337724E+02 -0.91961322696E+01 -0.16367145004E+02  0.62174376462E+02  0.55669242483E+02 0.  0.
         -6    2    1    2    0  501 -0.13625099715E+03 -0.24073035379E+02  0.51507929365E+02  0.22831651932E+03  0.17415946989E+03 0.  0.
        -24    2    5    5    0    0 -0.22001776884E+02 -0.23743351216E+02  0.71937043090E+02  0.11215959223E+03  0.79730866348E+02 0.  0.
          5    1    3    3  502    0  0.15660133488E+03  0.33269167649E+02 -0.13266964392E+02  0.16071377646E+03  0.47000000000E+01 0. -1.
        -11    1    4    4    0    0 -0.99328384368E+01 -0.32572984538E+02 -0.12577835195E+02  0.36302376497E+02  0.00000000000E+00 0.  1.
         12    1    4    4    0    0 -0.10417499287E+02  0.23376852268E+02 -0.37893098091E+01  0.25871999965E+02  0.00000000000E+00 0. -1.
         -5    1    5    5    0  501 -0.11424922027E+03 -0.32968416300E+00 -0.20429113724E+02  0.11615692709E+03  0.47000000000E+01 0.  1.
         13    1    6    6    0    0 -0.55776668421E+01 -0.50853071750E+02  0.29050389454E+02  0.58830862659E+02  0.00000000000E+00 0. -1.
        -14    1    6    6    0    0 -0.16424110042E+02  0.27109720533E+02  0.42886653635E+02  0.53328729575E+02  0.00000000000E+00 0.  1.
<mgrwt>
<rscale>  2 0.22166867E+03</rscale>
<asrwt>0</asrwt>
<pdfrwt beam="1">  1        1 0.36390654E-01 0.22166867E+03</pdfrwt>
<pdfrwt beam="2">  1       -1 0.33025450E-01 0.22166867E+03</pdfrwt>
<totfact> 0.10242001E+03</totfact>
</mgrwt>
</event>
<event>
12    1  0.4404304E-002  0.2286211E+03  0.7546771E-02  0.1127614E+00
          1   -1    0    0  502    0  0.00000000000E+00  0.00000000000E+00  0.14261863873E+04  0.14261863873E+04  0.00000000000E+00 0.  1.
         -1   -1    0    0    0  501 -0.00000000000E+00 -0.00000000000E+00 -0.36970286064E+02  0.36970286064E+02  0.00000000000E+00 0. -1.
          6    2    1    2  502    0  0.14840937346E+03 -0.20467512893E+02  0.76325801775E+03  0.79680074132E+03  0.17287093016E+03 0.  0.
         24    2    3    3    0    0  0.91508502762E+02  0.53142413615E+02  0.49252659875E+03  0.51049020781E+03  0.82582562259E+02 0.  0.
         -6    2    1    2    0  501 -0.14840937346E+03  0.20467512893E+02  0.62595808346E+03  0.66635593202E+03  0.17251795463E+03 0.  0.
        -24    2    5    5    0    0 -0.66130681395E+01  0.33582910968E+02  0.20043604377E+03  0.21761402163E+03  0.77522320602E+02 0.  0.
          5    1    3    3  502    0  0.56900870699E+02 -0.73609926509E+02  0.27073141899E+03  0.28631053351E+03  0.47000000000E+01 0. -1.
        -13    1    4    4    0    0  0.80967536680E+02  0.44129645495E+02  0.48684800786E+03  0.49550393577E+03  0.00000000000E+00 0.  1.
         14    1    4    4    0    0  0.10540966083E+02  0.90127681206E+01  0.56785908943E+01  0.14986272041E+02  0.00000000000E+00 0. -1.
         -5    1    5    5    0  501 -0.14179630532E+03 -0.13115398075E+02  0.42552203970E+03  0.44874191039E+03  0.47000000000E+01 0.  1.
         13    1    6    6    0    0 -0.17729202517E+02  0.48497496323E+02  0.18865880176E+03  0.19559773836E+03  0.00000000000E+00 0. -1.
        -14    1    6    6    0    0  0.11116134378E+02 -0.14914585354E+02  0.11777242010E+02  0.22016283273E+02  0.00000000000E+00 0.  1.
<mgrwt>
<rscale>  2 0.22862114E+03</rscale>
<asrwt>0</asrwt>
<pdfrwt beam="1">  1        1 0.21941325E+00 0.22862114E+03</pdfrwt>
<pdfrwt beam="2">  1       -1 0.56877374E-02 0.22862114E+03</pdfrwt>
<totfact> 0.11642870E+03</totfact>
</mgrwt>
</event>
<event>
12    1  0.4404304E-002  0.2250667E+03  0.7546771E-02  0.1130161E+00
         -1   -1    0    0    0  501 -0.00000000000E+00  0.00000000000E+00  0.13721101802E+03  0.13721101802E+03  0.00000000000E+00 0. -1.
          1   -1    0    0  502    0  0.00000000000E+00 -0.00000000000E+00 -0.37851291544E+03  0.37851291544E+03  0.00000000000E+00 0.  1.
          6    2    1    2  502    0 -0.11404667529E+03 -0.90111633180E+02 -0.79586281105E+02  0.23767018811E+03  0.17037133444E+03 0.  0.
         24    2    3    3    0    0 -0.96803717140E+01 -0.55148871094E+02 -0.82082163602E+02  0.12747472775E+03  0.79857479639E+02 0.  0.
         -6    2    1    2    0  501  0.11404667529E+03  0.90111633180E+02 -0.16171561632E+03  0.27805374535E+03  0.17330664777E+03 0.  0.
        -24    2    5    5    0    0  0.52445477623E+02  0.49186065119E+02 -0.10820929237E+02  0.10994394116E+03  0.82466845231E+02 0.  0.
          5    1    3    3  502    0 -0.10436630357E+03 -0.34962762085E+02  0.24958824974E+01  0.11019546036E+03  0.47000000000E+01 0. -1.
        -11    1    4    4    0    0 -0.32051290321E+02 -0.16846795711E+02 -0.74005526768E+02  0.82388820414E+02  0.00000000000E+00 0.  1.
         12    1    4    4    0    0  0.22370918607E+02 -0.38302075383E+02 -0.80766368342E+01  0.45085907338E+02  0.00000000000E+00 0. -1.
         -5    1    5    5    0  501  0.61601197664E+02  0.40925568061E+02 -0.15089468709E+03  0.16810980419E+03  0.47000000000E+01 0.  1.
         13    1    6    6    0    0 -0.83244439448E+01 -0.49140753309E+01  0.20576312633E+02  0.22733876593E+02  0.00000000000E+00 0. -1.
        -14    1    6    6    0    0  0.60769921568E+02  0.54100140450E+02 -0.31397241870E+02  0.87210064563E+02  0.00000000000E+00 0.  1.
<mgrwt>
<rscale>  2 0.22506673E+03</rscale>
<asrwt>0</asrwt>
<pdfrwt beam="2">  1        1 0.58232755E-01 0.22506673E+03</pdfrwt>
<pdfrwt beam="1">  1       -1 0.21109388E-01 0.22506673E+03</pdfrwt>
<totfact> 0.11989439E+03</totfact>
</mgrwt>
</event>
<event>
12    1  0.4404304E-002  0.2300026E+03  0.7546771E-02  0.1126638E+00
         -2   -1    0    0    0  501 -0.00000000000E+00  0.00000000000E+00  0.62729019556E+02  0.62729019556E+02  0.00000000000E+00 0. -1.
          2   -1    0    0  502    0  0.00000000000E+00 -0.00000000000E+00 -0.11155623210E+04  0.11155623210E+04  0.00000000000E+00 0.  1.
          6    2    1    2  502    0  0.11781920938E+03 -0.95704024348E+02 -0.23591002225E+03  0.32968974959E+03  0.17320844671E+03 0.  0.
         24    2    3    3    0    0  0.37024263676E+02 -0.71662664368E+02 -0.21555680375E+03  0.24284417546E+03  0.77474023713E+02 0.  0.
         -6    2    1    2    0  501 -0.11781920938E+03  0.95704024348E+02 -0.81692327923E+03  0.84860159100E+03  0.17239602585E+03 0.  0.
        -24    2    5    5    0    0 -0.85439849643E+02  0.13566991274E+03 -0.61893240757E+03  0.64398445968E+03  0.77021854252E+02 0.  0.
          5    1    3    3  502    0  0.80794945706E+02 -0.24041359980E+02 -0.20353218500E+02  0.86845574122E+02  0.47000000000E+01 0. -1.
        -13    1    4    4    0    0  0.51002106533E+02 -0.70666906574E+02 -0.21070171612E+03  0.22801368322E+03  0.00000000000E+00 0.  1.
         14    1    4    4    0    0 -0.13977842857E+02 -0.99575779394E+00 -0.48550876218E+01  0.14830492248E+02  0.00000000000E+00 0. -1.
         -5    1    5    5    0  501 -0.32379359739E+02 -0.39965888392E+02 -0.19799087166E+03  0.20461713132E+03  0.47000000000E+01 0.  1.
         11    1    6    6    0    0  0.12046812968E+02  0.16525052351E+02 -0.12361903162E+03  0.12529911426E+03  0.00000000000E+00 0. -1.
        -12    1    6    6    0    0 -0.97486662611E+02  0.11914486039E+03 -0.49531337595E+03  0.51868534541E+03  0.00000000000E+00 0.  1.
<mgrwt>
<rscale>  2 0.23000265E+03</rscale>
<asrwt>0</asrwt>
<pdfrwt beam="2">  1        2 0.17162497E+00 0.23000265E+03</pdfrwt>
<pdfrwt beam="1">  1       -2 0.96506186E-02 0.23000265E+03</pdfrwt>
<totfact> 0.15720130E+03</totfact>
</mgrwt>
</event>
<event>
12    1  0.4404304E-002  0.1774262E+03  0.7546771E-02  0.1170317E+00
         -2   -1    0    0    0  501 -0.00000000000E+00  0.00000000000E+00  0.65011216324E+02  0.65011216324E+02  0.00000000000E+00 0.  1.
          2   -1    0    0  502    0  0.00000000000E+00 -0.00000000000E+00 -0.48948280279E+03  0.48948280279E+03  0.00000000000E+00 0. -1.
          6    2    1    2  502    0 -0.17335074085E+02 -0.35492940671E+02 -0.24108550090E+03  0.29939428914E+03  0.17307359127E+03 0.  0.
         24    2    3    3    0    0  0.12036972521E+02  0.24390948144E+02 -0.51754951313E+02  0.98603491870E+02  0.79399411614E+02 0.  0.
         -6    2    1    2    0  501  0.17335074085E+02  0.35492940671E+02 -0.18338608556E+03  0.25509972997E+03  0.17287325479E+03 0.  0.
        -24    2    5    5    0    0  0.44608050056E+02 -0.28874155928E+02 -0.66541571542E+02  0.11885851448E+03  0.82921473151E+02 0.  0.
          5    1    3    3  502    0 -0.29372046607E+02 -0.59883888815E+02 -0.18933054959E+03  0.20079079727E+03  0.47000000000E+01 0. -1.
        -11    1    4    4    0    0  0.13438525649E+02 -0.28241596375E+02 -0.18967926367E+02  0.36578189787E+02  0.00000000000E+00 0.  1.
         12    1    4    4    0    0 -0.14015531277E+01  0.52632544519E+02 -0.32787024946E+02  0.62025302083E+02  0.00000000000E+00 0. -1.
         -5    1    5    5    0  501 -0.27272975971E+02  0.64367096599E+02 -0.11684451402E+03  0.13624121550E+03  0.47000000000E+01 0.  1.
         13    1    6    6    0    0  0.47922762285E+02  0.17102113333E+02 -0.45210451158E+02  0.68066572702E+02  0.00000000000E+00 0. -1.
        -14    1    6    6    0    0 -0.33147122290E+01 -0.45976269260E+02 -0.21331120384E+02  0.50791941773E+02  0.00000000000E+00 0.  1.
<mgrwt>
<rscale>  2 0.17742618E+03</rscale>
<asrwt>0</asrwt>
<pdfrwt beam="2">  1        2 0.75305041E-01 0.17742618E+03</pdfrwt>
<pdfrwt beam="1">  1       -2 0.10001726E-01 0.17742618E+03</pdfrwt>
<totfact> 0.41422565E+03</totfact>
</mgrwt>
</event>
<event>
12    1  0.4404304E-002  0.3134537E+03  0.7546771E-02  0.1078702E+00
         -1   -1    0    0    0  501 -0.00000000000E+00  0.00000000000E+00  0.10384689711E+03  0.10384689711E+03  0.00000000000E+00 0. -1.
          1   -1    0    0  502    0  0.00000000000E+00 -0.00000000000E+00 -0.14310136868E+04  0.14310136868E+04  0.00000000000E+00 0.  1.
          6    2    1    2  502    0  0.25544946543E+03 -0.55459172089E+02 -0.21762627025E+03  0.38204057846E+03  0.17396453927E+03 0.  0.
         24    2    3    3    0    0  0.20168280791E+03 -0.49647499847E+02 -0.23437991585E+03  0.32523033610E+03  0.87749628593E+02 0.  0.
         -6    2    1    2    0  501 -0.25544946543E+03  0.55459172089E+02 -0.11095405194E+04  0.11528200054E+04  0.17199898704E+03 0.  0.
        -24    2    5    5    0    0 -0.11906568709E+03  0.46316181134E+02 -0.80284691879E+03  0.81701175071E+03  0.81383040642E+02 0.  0.
          5    1    3    3  502    0  0.53766657524E+02 -0.58116722424E+01  0.16753645602E+02  0.56810242356E+02  0.47000000000E+01 0. -1.
        -11    1    4    4    0    0  0.10541274416E+03  0.18173987174E+02 -0.12483659689E+03  0.16439682590E+03  0.00000000000E+00 0.  1.
         12    1    4    4    0    0  0.96270063745E+02 -0.67821487020E+02 -0.10954331896E+03  0.16083351020E+03  0.00000000000E+00 0. -1.
         -5    1    5    5    0  501 -0.13638377834E+03  0.91429909552E+01 -0.30669360064E+03  0.33580825474E+03  0.47000000000E+01 0.  1.
         13    1    6    6    0    0 -0.22400749048E+01  0.31101325460E+02 -0.11519348605E+03  0.11933922075E+03  0.00000000000E+00 0. -1.
        -14    1    6    6    0    0 -0.11682561219E+03  0.15214855674E+02 -0.68765343274E+03  0.69767252996E+03  0.00000000000E+00 0.  1.
<mgrwt>
<rscale>  2 0.31345369E+03</rscale>
<asrwt>0</asrwt>
<pdfrwt beam="2">  1        1 0.22015595E+00 0.31345369E+03</pdfrwt>
<pdfrwt beam="1">  1       -1 0.15976446E-01 0.31345369E+03</pdfrwt>
<totfact> 0.23079281E+02</totfact>
</mgrwt>
</event>
<event>
12    1  0.4404304E-002  0.2025756E+03  0.7546771E-02  0.1147584E+00
          1   -1    0    0  502    0  0.00000000000E+00  0.00000000000E+00  0.11568074595E+04  0.11568074595E+04  0.00000000000E+00 0. -1.
         -1   -1    0    0    0  501 -0.00000000000E+00 -0.00000000000E+00 -0.36556233976E+02  0.36556233976E+02  0.00000000000E+00 0.  1.
          6    2    1    2  502    0 -0.10435404021E+03  0.41549938023E+01  0.66066382427E+03  0.69079614133E+03  0.17267191576E+03 0.  0.
         24    2    3    3    0    0 -0.27570042090E+02 -0.45940284935E+02  0.21842748315E+03  0.23913211716E+03  0.81258766060E+02 0.  0.
         -6    2    1    2    0  501  0.10435404021E+03 -0.41549938023E+01  0.45958740122E+03  0.50256755212E+03  0.17448935612E+03 0.  0.
        -24    2    5    5    0    0  0.41764734394E+02 -0.55340747081E+02  0.15452603347E+03  0.18693813233E+03  0.79124452430E+02 0.  0.
          5    1    3    3  502    0 -0.76783998121E+02  0.50095278737E+02  0.44223634112E+03  0.45166402417E+03  0.47000000000E+01 0. -1.
        -11    1    4    4    0    0 -0.18084462385E+01  0.18410025326E+02  0.13787234243E+02  0.23071353197E+02  0.00000000000E+00 0.  1.
         12    1    4    4    0    0 -0.25761595851E+02 -0.64350310261E+02  0.20464024891E+03  0.21606076396E+03  0.00000000000E+00 0. -1.
         -5    1    5    5    0  501  0.62589305816E+02  0.51185753278E+02  0.30506136775E+03  0.31562941979E+03  0.47000000000E+01 0.  1.
         13    1    6    6    0    0 -0.22536000072E+02 -0.80889376853E+01  0.23649549719E+02  0.33654173798E+02  0.00000000000E+00 0. -1.
        -14    1    6    6    0    0  0.64300734466E+02 -0.47251809395E+02  0.13087648375E+03  0.15328395853E+03  0.00000000000E+00 0.  1.
<mgrwt>
<rscale>  2 0.20257562E+03</rscale>
<asrwt>0</asrwt>
<pdfrwt beam="1">  1        1 0.17797035E+00 0.20257562E+03</pdfrwt>
<pdfrwt beam="2">  1       -1 0.56240369E-02 0.20257562E+03</pdfrwt>
<totfact> 0.18087207E+03</totfact>
</mgrwt>
</event>
<event>
12    1  0.4404304E-002  0.2596248E+03  0.7546771E-02  0.1107369E+00
         -4   -1    0    0    0  501 -0.00000000000E+00  0.00000000000E+00  0.22093301800E+03  0.22093301800E+03  0.00000000000E+00 0. -1.
          4   -1    0    0  502    0  0.00000000000E+00 -0.00000000000E+00 -0.43466711505E+03  0.43466711505E+03  0.00000000000E+00 0.  1.
          6    2    1    2  502    0  0.19075616857E+03 -0.32534236838E+02 -0.28588743001E+03  0.38628978134E+03  0.17332564761E+03 0.  0.
         24    2    3    3    0    0  0.16987631180E+03  0.13966159962E+02 -0.14975300062E+03  0.24084931866E+03  0.80804815265E+02 0.  0.
         -6    2    1    2    0  501 -0.19075616857E+03  0.32534236838E+02  0.72153332958E+02  0.26931035171E+03  0.17284550809E+03 0.  0.
        -24    2    5    5    0    0 -0.19565715119E+03 -0.13322965774E+02  0.49634190099E+02  0.21777294338E+03  0.80636715060E+02 0.  0.
          5    1    3    3  502    0  0.20879856776E+02 -0.46500396800E+02 -0.13613442939E+03  0.14544046269E+03  0.47000000000E+01 0. -1.
        -11    1    4    4    0    0  0.87763980704E+02  0.13091502871E+02 -0.12826515155E+03  0.15596747372E+03  0.00000000000E+00 0.  1.
         12    1    4    4    0    0  0.82112331094E+02  0.87465709120E+00 -0.21487849068E+02  0.84881844939E+02  0.00000000000E+00 0. -1.
         -5    1    5    5    0  501  0.49009826135E+01  0.45857202612E+02  0.22519142859E+02  0.51537408327E+02  0.47000000000E+01 0.  1.
         13    1    6    6    0    0 -0.62107399127E+02 -0.58297325047E+01  0.56045631246E+02  0.83859570648E+02  0.00000000000E+00 0. -1.
        -14    1    6    6    0    0 -0.13354975206E+03 -0.74932332693E+01 -0.64114411472E+01  0.13391337274E+03  0.00000000000E+00 0.  1.
<mgrwt>
<rscale>  2 0.25962476E+03</rscale>
<asrwt>0</asrwt>
<pdfrwt beam="2">  1        4 0.66871862E-01 0.25962476E+03</pdfrwt>
<pdfrwt beam="1">  1       -4 0.33989696E-01 0.25962476E+03</pdfrwt>
<totfact> 0.32132619E+01</totfact>
</mgrwt>
</event>
<event>
12    1  0.4404304E-002  0.1976442E+03  0.7546771E-02  0.1151742E+00
          2   -1    0    0  502    0  0.00000000000E+00  0.00000000000E+00  0.10753793236E+04  0.10753793236E+04  0.00000000000E+00 0. -1.
         -2   -1    0    0    0  501 -0.00000000000E+00 -0.00000000000E+00 -0.37756891418E+02  0.37756891418E+02  0.00000000000E+00 0.  1.
          6    2    1    2  502    0  0.62824941072E+02  0.62991278878E+02  0.61494897282E+03  0.64456856691E+03  0.17143956323E+03 0.  0.
         24    2    3    3    0    0  0.85395847575E+02  0.56707791216E+02  0.28989368226E+03  0.31863611998E+03  0.83560789711E+02 0.  0.
         -6    2    1    2    0  501 -0.62824941072E+02 -0.62991278878E+02  0.42267345931E+03  0.46856764806E+03  0.18162575028E+03 0.  0.
        -24    2    5    5    0    0 -0.36579413723E+02 -0.10979438622E+03  0.24072395796E+03  0.27881235931E+03  0.79971538806E+02 0.  0.
          5    1    3    3  502    0 -0.22570906503E+02  0.62834876618E+01  0.32505529056E+03  0.32593244693E+03  0.47000000000E+01 0. -1.
        -11    1    4    4    0    0 -0.11127605701E+02  0.29463126353E+02  0.81180423129E+02  0.87075602338E+02  0.00000000000E+00 0.  1.
         12    1    4    4    0    0  0.96523453276E+02  0.27244664863E+02  0.20871325913E+03  0.23156051765E+03  0.00000000000E+00 0. -1.
         -5    1    5    5    0  501 -0.26245527349E+02  0.46803107339E+02  0.18194950136E+03  0.18975528875E+03  0.47000000000E+01 0.  1.
         13    1    6    6    0    0 -0.34579844238E+02 -0.13436455307E+02  0.11214492922E+03  0.11812192475E+03  0.00000000000E+00 0. -1.
        -14    1    6    6    0    0 -0.19995694854E+01 -0.96357930910E+02  0.12857902874E+03  0.16069043456E+03  0.00000000000E+00 0.  1.
<mgrwt>
<rscale>  2 0.19764419E+03</rscale>
<asrwt>0</asrwt>
<pdfrwt beam="1">  1        2 0.16544295E+00 0.19764419E+03</pdfrwt>
<pdfrwt beam="2">  1       -2 0.58087533E-02 0.19764419E+03</pdfrwt>
<totfact> 0.36483293E+03</totfact>
</mgrwt>
</event>
<event>
12    1  0.4404304E-002  0.1821538E+03  0.7546771E-02  0.1165735E+00
         -2   -1    0    0    0  501 -0.00000000000E+00  0.00000000000E+00  0.37257878239E+02  0.37257878239E+02  0.00000000000E+00 0.  1.
          2   -1    0    0  502    0  0.00000000000E+00 -0.00000000000E+00 -0.89057384974E+03  0.89057384974E+03  0.00000000000E+00 0. -1.
          6    2    1    2  502    0 -0.27419855753E+02 -0.53545928904E+02 -0.42428058921E+03  0.46172888000E+03  0.17193174589E+03 0.  0.
         24    2    3    3    0    0  0.36159696716E+02 -0.74612143502E+02 -0.26169693233E+03  0.28582640595E+03  0.79604989307E+02 0.  0.
         -6    2    1    2    0  501  0.27419855753E+02  0.53545928904E+02 -0.42903538229E+03  0.46610284798E+03  0.17193455340E+03 0.  0.
        -24    2    5    5    0    0 -0.15410371397E+02  0.47123838747E+02 -0.40640049305E+03  0.41701008059E+03  0.79233268504E+02 0.  0.
          5    1    3    3  502    0 -0.63579552469E+02  0.21066214598E+02 -0.16258365688E+03  0.17590247404E+03  0.47000000000E+01 0. -1.
        -11    1    4    4    0    0  0.40798021114E+02 -0.80953182437E+02 -0.16055269330E+03  0.18437750297E+03  0.00000000000E+00 0.  1.
         12    1    4    4    0    0 -0.46383243976E+01  0.63410389352E+01 -0.10114423903E+03  0.10144890298E+03  0.00000000000E+00 0. -1.
         -5    1    5    5    0  501  0.42830227149E+02  0.64220901565E+01 -0.22634889240E+02  0.49092767395E+02  0.47000000000E+01 0.  1.
         13    1    6    6    0    0 -0.35677888463E+01  0.68354224685E+02 -0.27582410687E+03  0.28419001932E+03  0.00000000000E+00 0. -1.
        -14    1    6    6    0    0 -0.11842582550E+02 -0.21230385937E+02 -0.13057638617E+03  0.13282006127E+03  0.00000000000E+00 0.  1.
<mgrwt>
<rscale>  2 0.18215384E+03</rscale>
<asrwt>0</asrwt>
<pdfrwt beam="2">  1        2 0.13701136E+00 0.18215384E+03</pdfrwt>
<pdfrwt beam="1">  1       -2 0.57319815E-02 0.18215384E+03</pdfrwt>
<totfact> 0.48204561E+03</totfact>
</mgrwt>
</event>
<event>
12    1  0.4404304E-002  0.1733913E+03  0.7546771E-02  0.1174357E+00
         -1   -1    0    0    0  501 -0.00000000000E+00  0.00000000000E+00  0.29938886248E+03  0.29938886248E+03  0.00000000000E+00 0.  1.
          1   -1    0    0  502    0  0.00000000000E+00 -0.00000000000E+00 -0.11768770281E+03  0.11768770281E+03  0.00000000000E+00 0. -1.
          6    2    1    2  502    0  0.25186838100E+01  0.94231171964E+01  0.10453858717E+02  0.17253033553E+03  0.17193689136E+03 0.  0.
         24    2    3    3    0    0 -0.34516866021E+02 -0.49342330854E+02 -0.71611458919E+01  0.10071537732E+03  0.80412844517E+02 0.  0.
         -6    2    1    2    0  501 -0.25186838100E+01 -0.94231171964E+01  0.17124730096E+03  0.24454622975E+03  0.17430456533E+03 0.  0.
        -24    2    5    5    0    0 -0.28743337037E+02 -0.67941113204E+02  0.12482593823E+03  0.16524224996E+03  0.79254728756E+02 0.  0.
          5    1    3    3  502    0  0.37035549831E+02  0.58765448050E+02  0.17615004609E+02  0.71814958214E+02  0.47000000000E+01 0. -1.
        -13    1    4    4    0    0 -0.95174594282E+01 -0.58287443667E+00  0.31983585758E+02  0.33374713999E+02  0.00000000000E+00 0.  1.
         14    1    4    4    0    0 -0.24999406593E+02 -0.48759456417E+02 -0.39144731649E+02  0.67340663317E+02  0.00000000000E+00 0. -1.
         -5    1    5    5    0  501  0.26224653227E+02  0.58517996007E+02  0.46421362728E+02  0.79303979793E+02  0.47000000000E+01 0.  1.
         13    1    6    6    0    0 -0.37289277513E+02 -0.10284398906E+02  0.16140269651E+02  0.41913808974E+02  0.00000000000E+00 0. -1.
        -14    1    6    6    0    0  0.85459404762E+01 -0.57656714298E+02  0.10868566858E+03  0.12332844099E+03  0.00000000000E+00 0.  1.
<mgrwt>
<rscale>  2 0.17339127E+03</rscale>
<asrwt>0</asrwt>
<pdfrwt beam="2">  1        1 0.18105801E-01 0.17339127E+03</pdfrwt>
<pdfrwt beam="1">  1       -1 0.46059825E-01 0.17339127E+03</pdfrwt>
<totfact> 0.13746804E+03</totfact>
</mgrwt>
</event>
<event>
12    1  0.4404304E-002  0.4011664E+03  0.7546771E-02  0.1043377E+00
         -1   -1    0    0    0  501 -0.00000000000E+00  0.00000000000E+00  0.50427032263E+03  0.50427032263E+03  0.00000000000E+00 0.  1.
          1   -1    0    0  502    0  0.00000000000E+00 -0.00000000000E+00 -0.34824418383E+03  0.34824418383E+03  0.00000000000E+00 0. -1.
          6    2    1    2  502    0  0.16977397223E+02  0.36198219707E+03  0.20127983813E+03  0.44906312438E+03  0.17269850442E+03 0.  0.
         24    2    3    3    0    0 -0.44067110880E+02  0.14741539571E+03  0.55919133062E+02  0.18276034784E+03  0.81247683946E+02 0.  0.
         -6    2    1    2    0  501 -0.16977397223E+02 -0.36198219707E+03 -0.45253699329E+02  0.40345138208E+03  0.17148112837E+03 0.  0.
        -24    2    5    5    0    0 -0.62173625450E+02 -0.12564938091E+03 -0.18235747449E+02  0.16127797569E+03  0.77619046192E+02 0.  0.
          5    1    3    3  502    0  0.61044508103E+02  0.21456680135E+03  0.14536070506E+03  0.26630277653E+03  0.47000000000E+01 0. -1.
        -11    1    4    4    0    0 -0.17946457785E+02  0.13534377841E+03  0.22016261317E+02  0.13829218873E+03  0.00000000000E+00 0.  1.
         12    1    4    4    0    0 -0.26120653096E+02  0.12071617306E+02  0.33902871745E+02  0.44468159115E+02  0.00000000000E+00 0. -1.
         -5    1    5    5    0  501  0.45196228227E+02 -0.23633281616E+03 -0.27017951880E+02  0.24217340639E+03  0.47000000000E+01 0.  1.
         11    1    6    6    0    0 -0.58216518680E+02 -0.82309469486E+02 -0.44766078435E+02  0.11030871948E+03  0.00000000000E+00 0. -1.
        -12    1    6    6    0    0 -0.39571067706E+01 -0.43339911424E+02  0.26530330986E+02  0.50969256208E+02  0.00000000000E+00 0.  1.
<mgrwt>
<rscale>  2 0.40116640E+03</rscale>
<asrwt>0</asrwt>
<pdfrwt beam="2">  1        1 0.53576028E-01 0.40116640E+03</pdfrwt>
<pdfrwt beam="1">  1       -1 0.77580050E-01 0.40116640E+03</pdfrwt>
<totfact> 0.12522397E+02</totfact>
</mgrwt>
</event>
<event>
12    1  0.4404304E-002  0.1713784E+03  0.7546771E-02  0.1176418E+00
         -1   -1    0    0    0  501 -0.00000000000E+00  0.00000000000E+00  0.43224406680E+02  0.43224406680E+02  0.00000000000E+00 0.  1.
          1   -1    0    0  502    0  0.00000000000E+00 -0.00000000000E+00 -0.75843307368E+03  0.75843307368E+03  0.00000000000E+00 0. -1.
          6    2    1    2  502    0  0.11943996211E+02  0.10235424771E+02 -0.49458493530E+03  0.52487906872E+03  0.17503244154E+03 0.  0.
         24    2    3    3    0    0 -0.72767879109E+01  0.28265862093E+02 -0.11003242014E+03  0.13939591458E+03  0.80449841005E+02 0.  0.
         -6    2    1    2    0  501 -0.11943996211E+02 -0.10235424771E+02 -0.22062373170E+03  0.27677841164E+03  0.16638520125E+03 0.  0.
        -24    2    5    5    0    0  0.39902956602E+02 -0.16984428933E+02 -0.20150993236E+03  0.22091175881E+03  0.79467198074E+02 0.  0.
          5    1    3    3  502    0  0.19220784122E+02 -0.18030437321E+02 -0.38455251515E+03  0.38548315414E+03  0.47000000000E+01 0. -1.
        -13    1    4    4    0    0  0.33733069585E+02 -0.31721788285E+01 -0.41920908415E+02  0.53901254758E+02  0.00000000000E+00 0.  1.
         14    1    4    4    0    0 -0.41009857496E+02  0.31438040921E+02 -0.68111511726E+02  0.85494659824E+02  0.00000000000E+00 0. -1.
         -5    1    5    5    0  501 -0.51846952813E+02  0.67490041619E+01 -0.19113799347E+02  0.55866652832E+02  0.47000000000E+01 0.  1.
         11    1    6    6    0    0 -0.13156991667E+02 -0.27773508888E+02 -0.39213256824E+02  0.49821217733E+02  0.00000000000E+00 0. -1.
        -12    1    6    6    0    0  0.53059948269E+02  0.10789079954E+02 -0.16229667553E+03  0.17109054108E+03  0.00000000000E+00 0.  1.
<mgrwt>
<rscale>  2 0.17137837E+03</rscale>
<asrwt>0</asrwt>
<pdfrwt beam="2">  1        1 0.11668201E+00 0.17137837E+03</pdfrwt>
<pdfrwt beam="1">  1       -1 0.66499088E-02 0.17137837E+03</pdfrwt>
<totfact> 0.28221134E+03</totfact>
</mgrwt>
</event>
<event>
12    1  0.4404304E-002  0.6227970E+03  0.7546771E-02  0.9859207E-01
          1   -1    0    0  502    0  0.00000000000E+00  0.00000000000E+00  0.12633736551E+04  0.12633736551E+04  0.00000000000E+00 0.  1.
         -1   -1    0    0    0  501 -0.00000000000E+00 -0.00000000000E+00 -0.31422707913E+03  0.31422707913E+03  0.00000000000E+00 0. -1.
          6    2    1    2  502    0 -0.47036681047E+03  0.36933069582E+03  0.59409867054E+03  0.86074648030E+03  0.17401486644E+03 0.  0.
         24    2    3    3    0    0 -0.13555074757E+03  0.13469627999E+03  0.27502538553E+03  0.34210888402E+03  0.69874407548E+02 0.  0.
         -6    2    1    2    0  501  0.47036681047E+03 -0.36933069582E+03  0.35504790541E+03  0.71685425392E+03  0.17369774598E+03 0.  0.
        -24    2    5    5    0    0  0.34646647061E+03 -0.19155195792E+03  0.20436065354E+03  0.45287449761E+03  0.81245713895E+02 0.  0.
          5    1    3    3  502    0 -0.33481606289E+03  0.23463441583E+03  0.31907328502E+03  0.51863759628E+03  0.47000000000E+01 0. -1.
        -13    1    4    4    0    0  0.60968520465E+01  0.17613989202E+02  0.36661676753E+02  0.41127883034E+02  0.00000000000E+00 0.  1.
         14    1    4    4    0    0 -0.14164759962E+03  0.11708229079E+03  0.23836370877E+03  0.30098100099E+03  0.00000000000E+00 0. -1.
         -5    1    5    5    0  501  0.12390033985E+03 -0.17777873790E+03  0.15068725188E+03  0.26397975631E+03  0.47000000000E+01 0.  1.
         13    1    6    6    0    0  0.34044628767E+03 -0.19810503384E+03  0.19355619965E+03  0.43887729680E+03  0.00000000000E+00 0. -1.
        -14    1    6    6    0    0  0.60201829452E+01  0.65530759207E+01  0.10804453889E+02  0.13997200812E+02  0.00000000000E+00 0.  1.
<mgrwt>
<rscale>  2 0.62279703E+03</rscale>
<asrwt>0</asrwt>
<pdfrwt beam="1">  1        1 0.19436518E+00 0.62279703E+03</pdfrwt>
<pdfrwt beam="2">  1       -1 0.48342628E-01 0.62279703E+03</pdfrwt>
<totfact> 0.42892093E+01</totfact>
</mgrwt>
</event>
<event>
12    1  0.4404304E-002  0.3023955E+03  0.7546771E-02  0.1084049E+00
          1   -1    0    0  502    0  0.00000000000E+00  0.00000000000E+00  0.13120016057E+04  0.13120016057E+04  0.00000000000E+00 0. -1.
         -1   -1    0    0    0  501 -0.00000000000E+00 -0.00000000000E+00 -0.79470788022E+02  0.79470788022E+02  0.00000000000E+00 0.  1.
          6    2    1    2  502    0 -0.12296223942E+03 -0.21458944716E+03  0.85991430186E+03  0.91147236655E+03  0.17366901076E+03 0.  0.
         24    2    3    3    0    0 -0.65463968786E+02 -0.17175850647E+03  0.77407357411E+03  0.79952925088E+03  0.79187177809E+02 0.  0.
         -6    2    1    2    0  501  0.12296223942E+03  0.21458944716E+03  0.37261651580E+03  0.48000002714E+03  0.17432330613E+03 0.  0.
        -24    2    5    5    0    0  0.16420478582E+02  0.14593809460E+03  0.26727684548E+03  0.31512828562E+03  0.79381135648E+02 0.  0.
          5    1    3    3  502    0 -0.57498270632E+02 -0.42830940691E+02  0.85840727750E+02  0.11194311567E+03  0.47000000000E+01 0. -1.
        -13    1    4    4    0    0 -0.24391956171E+02 -0.12266157051E+02  0.50076167250E+02  0.57035503513E+02  0.00000000000E+00 0.  1.
         14    1    4    4    0    0 -0.41072012615E+02 -0.15949234942E+03  0.72399740686E+03  0.74249374737E+03  0.00000000000E+00 0. -1.
         -5    1    5    5    0  501  0.10654176084E+03  0.68651352555E+02  0.10533967032E+03  0.16487174152E+03  0.47000000000E+01 0.  1.
         11    1    6    6    0    0  0.70147219897E+01  0.60508706807E+02  0.19008526400E+03  0.19960690748E+03  0.00000000000E+00 0. -1.
        -12    1    6    6    0    0  0.94057565923E+01  0.85429387798E+02  0.77191581477E+02  0.11552137814E+03  0.00000000000E+00 0.  1.
<mgrwt>
<rscale>  2 0.30239551E+03</rscale>
<asrwt>0</asrwt>
<pdfrwt beam="1">  1        1 0.20184639E+00 0.30239551E+03</pdfrwt>
<pdfrwt beam="2">  1       -1 0.12226276E-01 0.30239551E+03</pdfrwt>
<totfact> 0.42601247E+02</totfact>
</mgrwt>
</event>
<event>
12    1  0.4404304E-002  0.2669950E+03  0.7546771E-02  0.1103012E+00
         -1   -1    0    0    0  501 -0.00000000000E+00  0.00000000000E+00  0.14259610221E+03  0.14259610221E+03  0.00000000000E+00 0.  1.
          1   -1    0    0  502    0  0.00000000000E+00 -0.00000000000E+00 -0.51249359135E+03  0.51249359135E+03  0.00000000000E+00 0. -1.
          6    2    1    2  502    0  0.19684418151E+03 -0.51453053580E+02 -0.13403930887E+03  0.29927493685E+03  0.17379270119E+03 0.  0.
         24    2    3    3    0    0  0.14608892638E+03  0.29427068721E+02 -0.65044307301E+02  0.18137629246E+03  0.80365855750E+02 0.  0.
         -6    2    1    2    0  501 -0.19684418151E+03  0.51453053580E+02 -0.23585818028E+03  0.35581475672E+03  0.17198840478E+03 0.  0.
        -24    2    5    5    0    0 -0.10388485823E+03  0.80491270291E+02 -0.84503681758E+02  0.17577329473E+03  0.80526210301E+02 0.  0.
          5    1    3    3  502    0  0.50755255130E+02 -0.80880122301E+02 -0.68995001568E+02  0.11789864439E+03  0.47000000000E+01 0. -1.
        -13    1    4    4    0    0  0.49599245651E+02  0.29224276154E+02  0.10891341822E+02  0.58589801268E+02  0.00000000000E+00 0.  1.
         14    1    4    4    0    0  0.96489680726E+02  0.20279256680E+00 -0.75935649123E+02  0.12278649119E+03  0.00000000000E+00 0. -1.
         -5    1    5    5    0  501 -0.92959323275E+02 -0.29038216711E+02 -0.15135449852E+03  0.18004146199E+03  0.47000000000E+01 0.  1.
         11    1    6    6    0    0 -0.38054703982E+02  0.70272082428E+02 -0.72863569445E+02  0.10814539202E+03  0.00000000000E+00 0. -1.
        -12    1    6    6    0    0 -0.65830154251E+02  0.10219187864E+02 -0.11640112312E+02  0.67627902702E+02  0.00000000000E+00 0.  1.
<mgrwt>
<rscale>  2 0.26699499E+03</rscale>
<asrwt>0</asrwt>
<pdfrwt beam="2">  1        1 0.78845166E-01 0.26699499E+03</pdfrwt>
<pdfrwt beam="1">  1       -1 0.21937862E-01 0.26699499E+03</pdfrwt>
<totfact> 0.75873788E+02</totfact>
</mgrwt>
</event>
<event>
12    1  0.4404304E-002  0.2225677E+03  0.7546771E-02  0.1131983E+00
          3   -1    0    0  502    0  0.00000000000E+00  0.00000000000E+00  0.17448295780E+03  0.17448295780E+03  0.00000000000E+00 0.  1.
         -3   -1    0    0    0  501 -0.00000000000E+00 -0.00000000000E+00 -0.28399552966E+03  0.28399552966E+03  0.00000000000E+00 0. -1.
          6    2    1    2  502    0  0.12129869583E+01  0.13981946117E+03 -0.58941590750E+02  0.23054411219E+03  0.17356705761E+03 0.  0.
         24    2    3    3    0    0  0.48295573709E+01  0.14596178767E+03  0.43865158914E+01  0.16664304141E+03  0.80140461974E+02 0.  0.
         -6    2    1    2    0  501 -0.12129869583E+01 -0.13981946117E+03 -0.50570981108E+02  0.22793437526E+03  0.17275908728E+03 0.  0.
        -24    2    5    5    0    0  0.12536507017E+02 -0.16196057836E+03 -0.71389639031E+02  0.19424781752E+03  0.79040123338E+02 0.  0.
          5    1    3    3  502    0 -0.36165704126E+01 -0.61423264945E+01 -0.63328106641E+02  0.63901070782E+02  0.47000000000E+01 0. -1.
        -13    1    4    4    0    0 -0.14013553361E+02  0.47990946693E+02 -0.33218286555E+02  0.60024704947E+02  0.00000000000E+00 0.  1.
         14    1    4    4    0    0  0.18843110732E+02  0.97970840975E+02  0.37604802446E+02  0.10661833646E+03  0.00000000000E+00 0. -1.
         -5    1    5    5    0  501 -0.13749493975E+02  0.22141117191E+02  0.20818657923E+02  0.33686557746E+02  0.47000000000E+01 0.  1.
         13    1    6    6    0    0  0.37040745877E+02 -0.48050039240E+02 -0.68618816988E+01  0.61056601171E+02  0.00000000000E+00 0. -1.
        -14    1    6    6    0    0 -0.24504238860E+02 -0.11391053912E+03 -0.64527757332E+02  0.13319121635E+03  0.00000000000E+00 0.  1.
<mgrwt>
<rscale>  2 0.22256767E+03</rscale>
<asrwt>0</asrwt>
<pdfrwt beam="1">  1        3 0.26843532E-01 0.22256767E+03</pdfrwt>
<pdfrwt beam="2">  1       -3 0.43691619E-01 0.22256767E+03</pdfrwt>
<totfact> 0.17008565E+02</totfact>
</mgrwt>
</event>
<event>
12    1  0.4404304E-002  0.1787575E+03  0.7546771E-02  0.1169011E+00
          1   -1    0    0  502    0  0.00000000000E+00  0.00000000000E+00  0.57336958477E+03  0.57336958477E+03  0.00000000000E+00 0. -1.
         -1   -1    0    0    0  501 -0.00000000000E+00 -0.00000000000E+00 -0.62496938427E+02  0.62496938427E+02  0.00000000000E+00 0.  1.
          6    2    1    2  502    0  0.90775798455E+01 -0.45637228904E+02  0.35998479505E+03  0.40190221933E+03  0.17254327608E+03 0.  0.
         24    2    3    3    0    0 -0.10412206625E+02  0.40486345237E+02  0.18290347918E+03  0.20397040221E+03  0.80016773764E+02 0.  0.
         -6    2    1    2    0  501 -0.90775798455E+01  0.45637228904E+02  0.15088785129E+03  0.23396430386E+03  0.17264701763E+03 0.  0.
        -24    2    5    5    0    0  0.73802668169E+01  0.35513813016E+02  0.17900533188E+03  0.19952556143E+03  0.80323356306E+02 0.  0.
          5    1    3    3  502    0  0.19489786470E+02 -0.86123574142E+02  0.17708131587E+03  0.19793181712E+03  0.47000000000E+01 0. -1.
        -11    1    4    4    0    0  0.24826020624E+02 -0.75422464702E+01  0.28851817920E+02  0.38802631085E+02  0.00000000000E+00 0.  1.
         12    1    4    4    0    0 -0.35238227249E+02  0.48028591707E+02  0.15405166126E+03  0.16516777112E+03  0.00000000000E+00 0. -1.
         -5    1    5    5    0  501 -0.16457846662E+02  0.10123415888E+02 -0.28117480588E+02  0.34438742437E+02  0.47000000000E+01 0.  1.
         11    1    6    6    0    0  0.29858549971E+02 -0.11091286225E+01  0.22988617679E+02  0.37699333090E+02  0.00000000000E+00 0. -1.
        -12    1    6    6    0    0 -0.22478283154E+02  0.36622941639E+02  0.15601671420E+03  0.16182622834E+03  0.00000000000E+00 0.  1.
<mgrwt>
<rscale>  2 0.17875749E+03</rscale>
<asrwt>0</asrwt>
<pdfrwt beam="1">  1        1 0.88210702E-01 0.17875749E+03</pdfrwt>
<pdfrwt beam="2">  1       -1 0.96149140E-02 0.17875749E+03</pdfrwt>
<totfact> 0.23987910E+03</totfact>
</mgrwt>
</event>
<event>
12    1  0.4404304E-002  0.1885468E+03  0.7546771E-02  0.1159779E+00
          1   -1    0    0  502    0  0.00000000000E+00  0.00000000000E+00  0.86411580547E+03  0.86411580547E+03  0.00000000000E+00 0.  1.
         -1   -1    0    0    0  501 -0.00000000000E+00 -0.00000000000E+00 -0.84063580717E+02  0.84063580717E+02  0.00000000000E+00 0. -1.
          6    2    1    2  502    0  0.73215247033E+02  0.41021037917E+01  0.50799924990E+02  0.19483348899E+03  0.17321130563E+03 0.  0.
         24    2    3    3    0    0  0.11287943132E+03  0.26163081397E+02  0.46504970590E+02  0.14900259460E+03  0.81319051054E+02 0.  0.
         -6    2    1    2    0  501 -0.73215247033E+02 -0.41021037917E+01  0.72925229976E+03  0.75334589719E+03  0.17419478884E+03 0.  0.
        -24    2    5    5    0    0 -0.81082462354E+02 -0.28960771001E+02  0.71219537685E+03  0.72183597762E+03  0.80073914723E+02 0.  0.
          5    1    3    3  502    0 -0.39664184282E+02 -0.22060977606E+02  0.42949543997E+01  0.45830894394E+02  0.47000000000E+01 0. -1.
        -13    1    4    4    0    0  0.54724113272E+02  0.31493149371E+01  0.63798478177E+02  0.84112380633E+02  0.00000000000E+00 0.  1.
         14    1    4    4    0    0  0.58155318043E+02  0.23013766460E+02 -0.17293507587E+02  0.64890213962E+02  0.00000000000E+00 0. -1.
         -5    1    5    5    0  501  0.78672153211E+01  0.24858667209E+02  0.17056922905E+02  0.31509919570E+02  0.47000000000E+01 0.  1.
         13    1    6    6    0    0 -0.13944761270E+02 -0.20812348616E+02  0.47433922919E+02  0.53643147422E+02  0.00000000000E+00 0. -1.
        -14    1    6    6    0    0 -0.67137701085E+02 -0.81484223854E+01  0.66476145394E+03  0.66819283020E+03  0.00000000000E+00 0.  1.
<mgrwt>
<rscale>  2 0.18854676E+03</rscale>
<asrwt>0</asrwt>
<pdfrwt beam="1">  1        1 0.13294089E+00 0.18854676E+03</pdfrwt>
<pdfrwt beam="2">  1       -1 0.12932859E-01 0.18854676E+03</pdfrwt>
<totfact> 0.83509052E+02</totfact>
</mgrwt>
</event>
<event>
12    1  0.4404304E-002  0.1766898E+03  0.7546771E-02  0.1171046E+00
         -2   -1    0    0    0  501 -0.00000000000E+00  0.00000000000E+00  0.92348475460E+02  0.92348475460E+02  0.00000000000E+00 0.  1.
          2   -1    0    0  502    0  0.00000000000E+00 -0.00000000000E+00 -0.33930601660E+03  0.33930601660E+03  0.00000000000E+00 0. -1.
          6    2    1    2  502    0  0.33036031189E+02  0.51157147003E+01 -0.13687872963E+03  0.22388300849E+03  0.17398351925E+03 0.  0.
         24    2    3    3    0    0  0.88370099538E+02 -0.10537258381E+02 -0.80979888591E+02  0.14354842618E+03  0.78282181846E+02 0.  0.
         -6    2    1    2    0  501 -0.33036031189E+02 -0.51157147003E+01 -0.11007881151E+03  0.20777148357E+03  0.17301472408E+03 0.  0.
        -24    2    5    5    0    0 -0.65596482456E+02 -0.96238674545E+01 -0.12040392284E+02  0.10426241115E+03  0.79562315185E+02 0.  0.
          5    1    3    3  502    0 -0.55334068349E+02  0.15652973082E+02 -0.55898841037E+02  0.80334582314E+02  0.47000000000E+01 0. -1.
        -13    1    4    4    0    0  0.20204843659E+02  0.24007674723E+02  0.11048116898E+01  0.31397846451E+02  0.00000000000E+00 0.  1.
         14    1    4    4    0    0  0.68165255879E+02 -0.34544933104E+02 -0.82084700281E+02  0.11215057972E+03  0.00000000000E+00 0. -1.
         -5    1    5    5    0  501  0.32560451267E+02  0.45081527542E+01 -0.98038419230E+02  0.10350907242E+03  0.47000000000E+01 0.  1.
         13    1    6    6    0    0 -0.83631361925E+02 -0.10440617346E+02 -0.15985200015E+02  0.85783085790E+02  0.00000000000E+00 0. -1.
        -14    1    6    6    0    0  0.18034879469E+02  0.81674989125E+00  0.39448077310E+01  0.18479325363E+02  0.00000000000E+00 0.  1.
<mgrwt>
<rscale>  2 0.17668978E+03</rscale>
<asrwt>0</asrwt>
<pdfrwt beam="2">  1        2 0.52200925E-01 0.17668978E+03</pdfrwt>
<pdfrwt beam="1">  1       -2 0.14207458E-01 0.17668978E+03</pdfrwt>
<totfact> 0.35046921E+03</totfact>
</mgrwt>
</event>
<event>
12    1  0.4404304E-002  0.1768342E+03  0.7546771E-02  0.1170903E+00
          2   -1    0    0  502    0  0.00000000000E+00  0.00000000000E+00  0.11039339085E+04  0.11039339085E+04  0.00000000000E+00 0. -1.
         -2   -1    0    0    0  501 -0.00000000000E+00 -0.00000000000E+00 -0.29607161063E+02  0.29607161063E+02  0.00000000000E+00 0.  1.
          6    2    1    2  502    0 -0.50557968106E+00 -0.37133840766E+02  0.65573814543E+03  0.67922535260E+03  0.17313401313E+03 0.  0.
         24    2    3    3    0    0  0.30948078366E+02 -0.77117229492E+02  0.33625811191E+03  0.35568619609E+03  0.80859765172E+02 0.  0.
         -6    2    1    2    0  501  0.50557968106E+00  0.37133840766E+02  0.41858860197E+03  0.45431571692E+03  0.17264754619E+03 0.  0.
        -24    2    5    5    0    0  0.61480395177E+02  0.59177501457E+01  0.14730857798E+03  0.17448127684E+03  0.70207122610E+02 0.  0.
          5    1    3    3  502    0 -0.31453658047E+02  0.39983388726E+02  0.31948003352E+03  0.32353915651E+03  0.47000000000E+01 0. -1.
        -11    1    4    4    0    0 -0.62348003823E+01 -0.77330895235E+02  0.24982915394E+03  0.26159806240E+03  0.00000000000E+00 0.  1.
         12    1    4    4    0    0  0.37182878748E+02  0.21366574259E+00  0.86428957974E+02  0.94088133692E+02  0.00000000000E+00 0. -1.
         -5    1    5    5    0  501 -0.60974815496E+02  0.31216090620E+02  0.27128002399E+03  0.27983444008E+03  0.47000000000E+01 0.  1.
         11    1    6    6    0    0  0.66853834376E+02  0.17642721099E+02  0.14596594318E+03  0.16151395403E+03  0.00000000000E+00 0. -1.
        -12    1    6    6    0    0 -0.53734391991E+01 -0.11724970954E+02  0.13426347975E+01  0.12967322811E+02  0.00000000000E+00 0.  1.
<mgrwt>
<rscale>  2 0.17683423E+03</rscale>
<asrwt>0</asrwt>
<pdfrwt beam="1">  1        2 0.16983595E+00 0.17683423E+03</pdfrwt>
<pdfrwt beam="2">  1       -2 0.45549487E-02 0.17683423E+03</pdfrwt>
<totfact> 0.50611979E+03</totfact>
</mgrwt>
</event>
<event>
12    1  0.4404304E-002  0.2071392E+03  0.7546771E-02  0.1143852E+00
          2   -1    0    0  502    0  0.00000000000E+00  0.00000000000E+00  0.50677463560E+03  0.50677463560E+03  0.00000000000E+00 0.  1.
         -2   -1    0    0    0  501 -0.00000000000E+00 -0.00000000000E+00 -0.86478335434E+02  0.86478335434E+02  0.00000000000E+00 0. -1.
          6    2    1    2  502    0  0.11296542493E+03 -0.30553523324E+02  0.16882815693E+03  0.26845035565E+03  0.17282344129E+03 0.  0.
         24    2    3    3    0    0  0.12585953421E+03 -0.33075145238E+02  0.19032082028E+03  0.24282534426E+03  0.76207254267E+02 0.  0.
         -6    2    1    2    0  501 -0.11296542493E+03  0.30553523324E+02  0.25146814323E+03  0.32480261538E+03  0.16901422094E+03 0.  0.
        -24    2    5    5    0    0 -0.14298137561E+03  0.36318343653E+01  0.21160161857E+03  0.26790653098E+03  0.80881396919E+02 0.  0.
          5    1    3    3  502    0 -0.12894109277E+02  0.25216219142E+01 -0.21492663343E+02  0.25625011389E+02  0.47000000000E+01 0. -1.
        -11    1    4    4    0    0  0.39634517871E+02 -0.16406045855E+02  0.12792975597E+02  0.44762859293E+02  0.00000000000E+00 0.  1.
         12    1    4    4    0    0  0.86225016335E+02 -0.16669099384E+02  0.17752784468E+03  0.19806248497E+03  0.00000000000E+00 0. -1.
         -5    1    5    5    0  501  0.30015950680E+02  0.26921688959E+02  0.39866524660E+02  0.56896084400E+02  0.47000000000E+01 0.  1.
         13    1    6    6    0    0 -0.76945650562E+02  0.39766253319E+02  0.90128743705E+02  0.12500071394E+03  0.00000000000E+00 0. -1.
        -14    1    6    6    0    0 -0.66035725047E+02 -0.36134418954E+02  0.12147287487E+03  0.14290581704E+03  0.00000000000E+00 0.  1.
<mgrwt>
<rscale>  2 0.20713918E+03</rscale>
<asrwt>0</asrwt>
<pdfrwt beam="1">  1        2 0.77965327E-01 0.20713918E+03</pdfrwt>
<pdfrwt beam="2">  1       -2 0.13304360E-01 0.20713918E+03</pdfrwt>
<totfact> 0.25352326E+03</totfact>
</mgrwt>
</event>
<event>
12    1  0.4404304E-002  0.2334003E+03  0.7546771E-02  0.1124269E+00
          1   -1    0    0  502    0  0.00000000000E+00  0.00000000000E+00  0.20662106550E+03  0.20662106550E+03  0.00000000000E+00 0.  1.
         -1   -1    0    0    0  501 -0.00000000000E+00 -0.00000000000E+00 -0.29406725421E+03  0.29406725421E+03  0.00000000000E+00 0. -1.
          6    2    1    2  502    0  0.13296745312E+03 -0.84620605978E+02  0.36870677200E+02  0.23581774848E+03  0.17149219549E+03 0.  0.
         24    2    3    3    0    0  0.81551862475E+02 -0.41772647767E+02  0.89618408098E+02  0.15047184290E+03  0.78833089881E+02 0.  0.
         -6    2    1    2    0  501 -0.13296745312E+03  0.84620605978E+02 -0.12431686591E+03  0.26487057124E+03  0.17280262096E+03 0.  0.
        -24    2    5    5    0    0  0.45552117693E+01  0.37523074031E+02 -0.35392404667E+02  0.94399721291E+02  0.78930057853E+02 0.  0.
          5    1    3    3  502    0  0.51415590644E+02 -0.42847958211E+02 -0.52747730898E+02  0.85345905579E+02  0.47000000000E+01 0. -1.
        -13    1    4    4    0    0 -0.16962595197E+01 -0.58132030195E+01  0.51909279799E+02  0.52261304566E+02  0.00000000000E+00 0.  1.
         14    1    4    4    0    0  0.83248121995E+02 -0.35959444747E+02  0.37709128299E+02  0.98210538331E+02  0.00000000000E+00 0. -1.
         -5    1    5    5    0  501 -0.13752266489E+03  0.47097531947E+02 -0.88924461246E+02  0.17047084995E+03  0.47000000000E+01 0.  1.
         11    1    6    6    0    0 -0.17024530297E+02 -0.17881722324E+02  0.95981974819E+00  0.24708538586E+02  0.00000000000E+00 0. -1.
        -12    1    6    6    0    0  0.21579742067E+02  0.55404796355E+02 -0.36352224415E+02  0.69691182704E+02  0.00000000000E+00 0.  1.
<mgrwt>
<rscale>  2 0.23340026E+03</rscale>
<asrwt>0</asrwt>
<pdfrwt beam="1">  1        1 0.31787856E-01 0.23340026E+03</pdfrwt>
<pdfrwt beam="2">  1       -1 0.45241116E-01 0.23340026E+03</pdfrwt>
<totfact> 0.69677129E+02</totfact>
</mgrwt>
</event>
<event>
12    1  0.4404304E-002  0.1905744E+03  0.7546771E-02  0.1157944E+00
          2   -1    0    0  502    0  0.00000000000E+00  0.00000000000E+00  0.66299854379E+03  0.66299854379E+03  0.00000000000E+00 0. -1.
         -2   -1    0    0    0  501 -0.00000000000E+00 -0.00000000000E+00 -0.59403592961E+02  0.59403592961E+02  0.00000000000E+00 0.  1.
          6    2    1    2  502    0  0.80734484278E+02  0.26751057311E+01  0.20254277643E+03  0.27881340789E+03  0.17374730787E+03 0.  0.
         24    2    3    3    0    0  0.89413130059E+02 -0.72445469924E+01  0.55064174426E+02  0.13067243971E+03  0.77434048759E+02 0.  0.
         -6    2    1    2    0  501 -0.80734484278E+02 -0.26751057311E+01  0.40105217439E+03  0.44358872886E+03  0.17147274023E+03 0.  0.
        -24    2    5    5    0    0 -0.10281152748E+03  0.72833344327E+01  0.18333425098E+03  0.22447745451E+03  0.78456502989E+02 0.  0.
          5    1    3    3  502    0 -0.86786457809E+01  0.99196527235E+01  0.14747860201E+03  0.14814096818E+03  0.47000000000E+01 0. -1.
        -11    1    4    4    0    0  0.87583476902E+02 -0.16826484437E+02  0.69626109852E+02  0.11314500068E+03  0.00000000000E+00 0.  1.
         12    1    4    4    0    0  0.18296531569E+01  0.95819374448E+01 -0.14561935426E+02  0.17527439038E+02  0.00000000000E+00 0. -1.
         -5    1    5    5    0  501  0.22077043201E+02 -0.99584401638E+01  0.21771792342E+03  0.21911127434E+03  0.47000000000E+01 0.  1.
         13    1    6    6    0    0 -0.47014903672E+02  0.21099143515E+01  0.15439816866E+03  0.16141142275E+03  0.00000000000E+00 0. -1.
        -14    1    6    6    0    0 -0.55796623807E+02  0.51734200812E+01  0.28936082313E+02  0.63066031770E+02  0.00000000000E+00 0.  1.
<mgrwt>
<rscale>  2 0.19057441E+03</rscale>
<asrwt>0</asrwt>
<pdfrwt beam="1">  1        2 0.10199977E+00 0.19057441E+03</pdfrwt>
<pdfrwt beam="2">  1       -2 0.91390147E-02 0.19057441E+03</pdfrwt>
<totfact> 0.33878621E+03</totfact>
</mgrwt>
</event>
<event>
11    1  0.4404304E-002  0.3058242E+03  0.7546771E-02  0.1082365E+00
          2   -1    0    0  502    0  0.00000000000E+00  0.00000000000E+00  0.99484494637E+03  0.99484494637E+03  0.00000000000E+00 0. -1.
         -2   -1    0    0    0  501 -0.00000000000E+00 -0.00000000000E+00 -0.10830040425E+03  0.10830040425E+03  0.00000000000E+00 0.  1.
          6    2    1    2  502    0  0.92993473660E+02 -0.23407051596E+03  0.24325134393E+03  0.39096489660E+03  0.17391245345E+03 0.  0.
         24    2    3    3    0    0  0.19412737889E+02 -0.13533458816E+03  0.57913633727E+02  0.16840015335E+03  0.79450094594E+02 0.  0.
         -6    2    1    2    0  501 -0.92993473660E+02  0.23407051596E+03  0.64329319819E+03  0.71218045403E+03  0.17302620518E+03 0.  0.
          5    1    3    3  502    0  0.73580735771E+02 -0.98735927797E+02  0.18533771021E+03  0.22256474325E+03  0.47000000000E+01 0. -1.
        -11    1    4    4    0    0 -0.57177994972E+01 -0.98623320011E+02  0.71424983578E+02  0.12190480204E+03  0.00000000000E+00 0.  1.
         12    1    4    4    0    0  0.25130537387E+02 -0.36711268148E+02 -0.13511349851E+02  0.46495351307E+02  0.00000000000E+00 0. -1.
         -5    1    5    5    0  501  0.25601247283E+02 -0.25087112443E+01  0.18018140101E+02  0.31756272880E+02  0.47000000000E+01 0.  1.
         13    1    5    5    0    0 -0.47457920953E+02  0.12732297261E+03  0.27663976073E+03  0.30820926468E+03  0.00000000000E+00 0. -1.
        -14    1    5    5    0    0 -0.71136799991E+02  0.10925625459E+03  0.34863529735E+03  0.37221491647E+03  0.00000000000E+00 0.  1.
<mgrwt>
<rscale>  2 0.30582425E+03</rscale>
<asrwt>0</asrwt>
<pdfrwt beam="1">  1        2 0.15305306E+00 0.30582425E+03</pdfrwt>
<pdfrwt beam="2">  1       -2 0.16661601E-01 0.30582425E+03</pdfrwt>
<totfact> 0.76009748E+02</totfact>
</mgrwt>
</event>
<event>
12    1  0.4404304E-002  0.1948063E+03  0.7546771E-02  0.1154196E+00
         -3   -1    0    0    0  501 -0.00000000000E+00  0.00000000000E+00  0.48870827503E+03  0.48870827503E+03  0.00000000000E+00 0.  1.
          3   -1    0    0  502    0  0.00000000000E+00 -0.00000000000E+00 -0.77653698410E+02  0.77653698410E+02  0.00000000000E+00 0. -1.
          6    2    1    2  502    0 -0.57163902831E+01  0.87361059002E+02  0.20481655544E+03  0.28283799472E+03  0.17430685049E+03 0.  0.
         24    2    3    3    0    0  0.36684409432E+02 -0.97864635919E+01  0.88697330521E+02  0.12554453218E+03  0.80328652129E+02 0.  0.
         -6    2    1    2    0  501  0.57163902831E+01 -0.87361059002E+02  0.20623802118E+03  0.28352397872E+03  0.17374433338E+03 0.  0.
        -24    2    5    5    0    0  0.25805987083E+02 -0.30177277538E+02  0.91602304331E+01  0.77283045908E+02  0.65666904254E+02 0.  0.
          5    1    3    3  502    0 -0.42400799715E+02  0.97147522594E+02  0.11611922492E+03  0.15729346254E+03  0.47000000000E+01 0. -1.
        -11    1    4    4    0    0  0.57741316501E+02 -0.24898256014E+02  0.64709334550E+02  0.90229046108E+02  0.00000000000E+00 0.  1.
         12    1    4    4    0    0 -0.21056907069E+02  0.15111792422E+02  0.23987995971E+02  0.35315486068E+02  0.00000000000E+00 0. -1.
         -5    1    5    5    0  501 -0.20089596800E+02 -0.57183781464E+02  0.19707779075E+03  0.20624093282E+03  0.47000000000E+01 0.  1.
         13    1    6    6    0    0  0.89360523254E-01 -0.34515406894E+02  0.28543362319E+02  0.44788891824E+02  0.00000000000E+00 0. -1.
        -14    1    6    6    0    0  0.25716626560E+02  0.43381293559E+01 -0.19383131886E+02  0.32494154084E+02  0.00000000000E+00 0.  1.
<mgrwt>
<rscale>  2 0.19480629E+03</rscale>
<asrwt>0</asrwt>
<pdfrwt beam="2">  1        3 0.11946723E-01 0.19480629E+03</pdfrwt>
<pdfrwt beam="1">  1       -3 0.75185887E-01 0.19480629E+03</pdfrwt>
<totfact> 0.22749868E+02</totfact>
</mgrwt>
</event>
<event>
12    1  0.4404304E-002  0.2411954E+03  0.7546771E-02  0.1118999E+00
          2   -1    0    0  502    0  0.00000000000E+00  0.00000000000E+00  0.27416300400E+03  0.27416300400E+03  0.00000000000E+00 0. -1.
         -2   -1    0    0    0  501 -0.00000000000E+00 -0.00000000000E+00 -0.28808074144E+03  0.28808074144E+03  0.00000000000E+00 0.  1.
          6    2    1    2  502    0  0.12766669845E+03  0.10753733327E+03  0.13730817949E+03  0.27823074673E+03  0.17520202148E+03 0.  0.
         24    2    3    3    0    0  0.34887357342E+02  0.67312488061E+01  0.10314382690E+03  0.13695383499E+03  0.82796536630E+02 0.  0.
         -6    2    1    2    0  501 -0.12766669845E+03 -0.10753733327E+03 -0.15122591693E+03  0.28401299872E+03  0.17300590032E+03 0.  0.
        -24    2    5    5    0    0 -0.46488481912E+02 -0.58771191275E+02 -0.49329011125E+01  0.10968062673E+03  0.79939192462E+02 0.  0.
          5    1    3    3  502    0  0.92779341107E+02  0.10080608447E+03  0.34164352583E+02  0.14127691173E+03  0.47000000000E+01 0. -1.
        -13    1    4    4    0    0  0.29098971144E+02  0.37721512120E+02  0.27511812330E+02  0.55014201948E+02  0.00000000000E+00 0.  1.
         14    1    4    4    0    0  0.57883861983E+01 -0.30990263314E+02  0.75632014574E+02  0.81939633045E+02  0.00000000000E+00 0. -1.
         -5    1    5    5    0  501 -0.81178216537E+02 -0.48766141996E+02 -0.14629301582E+03  0.17433237199E+03  0.47000000000E+01 0.  1.
         13    1    6    6    0    0 -0.39228572884E+02 -0.46897700453E+02 -0.39245420220E+02  0.72653136522E+02  0.00000000000E+00 0. -1.
        -14    1    6    6    0    0 -0.72599090282E+01 -0.11873490822E+02  0.34312519107E+02  0.37027490205E+02  0.00000000000E+00 0.  1.
<mgrwt>
<rscale>  2 0.24119536E+03</rscale>
<asrwt>0</asrwt>
<pdfrwt beam="1">  1        2 0.42178924E-01 0.24119536E+03</pdfrwt>
<pdfrwt beam="2">  1       -2 0.44320114E-01 0.24119536E+03</pdfrwt>
<totfact> 0.59044506E+02</totfact>
</mgrwt>
</event>
<event>
12    1  0.4404304E-002  0.1921367E+03  0.7546771E-02  0.1156548E+00
         -2   -1    0    0    0  501 -0.00000000000E+00  0.00000000000E+00  0.23877455473E+02  0.23877455473E+02  0.00000000000E+00 0. -1.
          2   -1    0    0  502    0  0.00000000000E+00 -0.00000000000E+00 -0.15889083686E+04  0.15889083686E+04  0.00000000000E+00 0.  1.
          6    2    1    2  502    0  0.77702200281E+02  0.30607468683E+02 -0.91718352386E+03  0.93721182116E+03  0.17368342530E+03 0.  0.
         24    2    3    3    0    0  0.91566671542E+02 -0.88189077778E+01 -0.84366217514E+03  0.85251151750E+03  0.80918435650E+02 0.  0.
         -6    2    1    2    0  501 -0.77702200281E+02 -0.30607468683E+02 -0.64784738927E+03  0.67557400291E+03  0.17239357458E+03 0.  0.
        -24    2    5    5    0    0 -0.24255244379E+02 -0.56998378335E+01 -0.13109431606E+03  0.15544633027E+03  0.79731028219E+02 0.  0.
          5    1    3    3  502    0 -0.13864471261E+02  0.39426376461E+02 -0.73521348713E+02  0.84700303664E+02  0.47000000000E+01 0. -1.
        -13    1    4    4    0    0  0.47291007942E+02  0.43804833241E+01 -0.69986193163E+03  0.70147156137E+03  0.00000000000E+00 0.  1.
         14    1    4    4    0    0  0.44275663600E+02 -0.13199391102E+02 -0.14380024351E+03  0.15103995613E+03  0.00000000000E+00 0. -1.
         -5    1    5    5    0  501 -0.53446955902E+02 -0.24907630850E+02 -0.51675307322E+03  0.52012767264E+03  0.47000000000E+01 0.  1.
         11    1    6    6    0    0 -0.41526285737E+02  0.13843311144E+02 -0.35502524660E+02  0.56360437612E+02  0.00000000000E+00 0. -1.
        -12    1    6    6    0    0  0.17271041358E+02 -0.19543148978E+02 -0.95591791396E+02  0.99085892658E+02  0.00000000000E+00 0.  1.
<mgrwt>
<rscale>  2 0.19213670E+03</rscale>
<asrwt>0</asrwt>
<pdfrwt beam="2">  1        2 0.24444754E+00 0.19213670E+03</pdfrwt>
<pdfrwt beam="1">  1       -2 0.36734532E-02 0.19213670E+03</pdfrwt>
<totfact> 0.38105164E+03</totfact>
</mgrwt>
</event>
<event>
12    1  0.4404304E-002  0.1914460E+03  0.7546771E-02  0.1157164E+00
         -1   -1    0    0    0  501 -0.00000000000E+00  0.00000000000E+00  0.38917148099E+03  0.38917148099E+03  0.00000000000E+00 0. -1.
          1   -1    0    0  502    0  0.00000000000E+00 -0.00000000000E+00 -0.95078912800E+02  0.95078912800E+02  0.00000000000E+00 0.  1.
          6    2    1    2  502    0 -0.68338408146E+02  0.53989059812E+02  0.12570795223E+03  0.23123561865E+03  0.17344297469E+03 0.  0.
         24    2    3    3    0    0 -0.85802602899E+01  0.35803924610E+01  0.13012970457E+03  0.15279002047E+03  0.79527418330E+02 0.  0.
         -6    2    1    2    0  501  0.68338408146E+02 -0.53989059812E+02  0.16838461596E+03  0.25301477515E+03  0.16756533336E+03 0.  0.
        -24    2    5    5    0    0  0.10754986131E+02 -0.49697151416E+02  0.26446029375E+02  0.99708143423E+02  0.81589489579E+02 0.  0.
          5    1    3    3  502    0 -0.59758147856E+02  0.50408667351E+02 -0.44217523420E+01  0.78445598175E+02  0.47000000000E+01 0. -1.
        -11    1    4    4    0    0 -0.25887881188E+02  0.11605081771E+02  0.84185101878E+01  0.29592763121E+02  0.00000000000E+00 0.  1.
         12    1    4    4    0    0  0.17307620899E+02 -0.80246893103E+01  0.12171119439E+03  0.12319725735E+03  0.00000000000E+00 0. -1.
         -5    1    5    5    0  501  0.57583422015E+02 -0.42919083959E+01  0.14193858659E+03  0.15330663173E+03  0.47000000000E+01 0.  1.
         13    1    6    6    0    0 -0.18708781803E+02  0.14915486797E+02 -0.97791793229E-02  0.23926770752E+02  0.00000000000E+00 0. -1.
        -14    1    6    6    0    0  0.29463767935E+02 -0.64612638213E+02  0.26455808555E+02  0.75781372672E+02  0.00000000000E+00 0.  1.
<mgrwt>
<rscale>  2 0.19144597E+03</rscale>
<asrwt>0</asrwt>
<pdfrwt beam="2">  1        1 0.14627525E-01 0.19144597E+03</pdfrwt>
<pdfrwt beam="1">  1       -1 0.59872535E-01 0.19144597E+03</pdfrwt>
<totfact> 0.11165345E+03</totfact>
</mgrwt>
</event>
<event>
12    1  0.4404304E-002  0.2117484E+03  0.7546771E-02  0.1140189E+00
         -1   -1    0    0    0  501 -0.00000000000E+00  0.00000000000E+00  0.53845546036E+02  0.53845546036E+02  0.00000000000E+00 0.  1.
          1   -1    0    0  502    0  0.00000000000E+00 -0.00000000000E+00 -0.85247665301E+03  0.85247665301E+03  0.00000000000E+00 0. -1.
          6    2    1    2  502    0 -0.10440714007E+03  0.65099642359E+02 -0.33016815662E+03  0.39219656485E+03  0.17224494042E+03 0.  0.
         24    2    3    3    0    0 -0.10922981737E+03  0.26044941784E+02 -0.32250278358E+03  0.35183103751E+03  0.84661334418E+02 0.  0.
         -6    2    1    2    0  501  0.10440714007E+03 -0.65099642359E+02 -0.46846295035E+03  0.51412563420E+03  0.17242046732E+03 0.  0.
        -24    2    5    5    0    0  0.66233507050E+02 -0.69620249877E+02 -0.45696972500E+03  0.47372951583E+03  0.79777615606E+02 0.  0.
          5    1    3    3  502    0  0.48226772981E+01  0.39054700575E+02 -0.76653730375E+01  0.40365527336E+02  0.47000000000E+01 0. -1.
        -13    1    4    4    0    0 -0.95678713899E+02  0.38551259616E+02 -0.17468960780E+03  0.20287206556E+03  0.00000000000E+00 0.  1.
         14    1    4    4    0    0 -0.13551103467E+02 -0.12506317832E+02 -0.14781317578E+03  0.14895897195E+03  0.00000000000E+00 0. -1.
         -5    1    5    5    0  501  0.38173633018E+02  0.45206075182E+01 -0.11493225356E+02  0.40396118368E+02  0.47000000000E+01 0.  1.
         13    1    6    6    0    0  0.56010750126E+01 -0.10545632798E+02 -0.24768371207E+03  0.24797137665E+03  0.00000000000E+00 0. -1.
        -14    1    6    6    0    0  0.60632432038E+02 -0.59074617079E+02 -0.20928601293E+03  0.22575813918E+03  0.00000000000E+00 0.  1.
<mgrwt>
<rscale>  2 0.21174837E+03</rscale>
<asrwt>0</asrwt>
<pdfrwt beam="2">  1        1 0.13115025E+00 0.21174837E+03</pdfrwt>
<pdfrwt beam="1">  1       -1 0.82839303E-02 0.21174837E+03</pdfrwt>
<totfact> 0.16976424E+03</totfact>
</mgrwt>
</event>
<event>
12    1  0.4404304E-002  0.2275215E+03  0.7546771E-02  0.1128397E+00
         -2   -1    0    0    0  501 -0.00000000000E+00  0.00000000000E+00  0.91737305829E+02  0.91737305829E+02  0.00000000000E+00 0.  1.
          2   -1    0    0  502    0  0.00000000000E+00 -0.00000000000E+00 -0.56457268306E+03  0.56457268306E+03  0.00000000000E+00 0. -1.
          6    2    1    2  502    0 -0.14238096339E+03  0.34535974210E+02 -0.24320561279E+03  0.33266438468E+03  0.17335383032E+03 0.  0.
         24    2    3    3    0    0 -0.19998071215E+01  0.18558116143E+01 -0.83408252826E+02  0.11741534678E+03  0.82595301044E+02 0.  0.
         -6    2    1    2    0  501  0.14238096339E+03 -0.34535974210E+02 -0.22962976444E+03  0.32364560421E+03  0.17479009171E+03 0.  0.
        -24    2    5    5    0    0  0.17377966617E+03 -0.38853414914E+02 -0.20526847537E+03  0.28339537148E+03  0.80429033134E+02 0.  0.
          5    1    3    3  502    0 -0.14038115627E+03  0.32680162596E+02 -0.15979735997E+03  0.21524903790E+03  0.47000000000E+01 0. -1.
        -13    1    4    4    0    0  0.45980408876E+01 -0.35137366685E+01 -0.99258276102E+02  0.99426825858E+02  0.00000000000E+00 0.  1.
         14    1    4    4    0    0 -0.65978480091E+01  0.53695482827E+01  0.15850023276E+02  0.17988520922E+02  0.00000000000E+00 0. -1.
         -5    1    5    5    0  501 -0.31398702774E+02  0.43174407041E+01 -0.24361289066E+02  0.40250232733E+02  0.47000000000E+01 0.  1.
         13    1    6    6    0    0  0.14477730496E+03 -0.17603032523E+02 -0.19927789660E+03  0.24694536817E+03  0.00000000000E+00 0. -1.
        -14    1    6    6    0    0  0.29002361207E+02 -0.21250382391E+02 -0.59905787691E+01  0.36450003311E+02  0.00000000000E+00 0.  1.
<mgrwt>
<rscale>  2 0.22752150E+03</rscale>
<asrwt>0</asrwt>
<pdfrwt beam="2">  1        2 0.86857338E-01 0.22752150E+03</pdfrwt>
<pdfrwt beam="1">  1       -2 0.14113431E-01 0.22752150E+03</pdfrwt>
<totfact> 0.20418537E+03</totfact>
</mgrwt>
</event>
<event>
12    1  0.4404304E-002  0.2975855E+03  0.7546771E-02  0.1086454E+00
          2   -1    0    0  502    0  0.00000000000E+00  0.00000000000E+00  0.21016564244E+04  0.21016564244E+04  0.00000000000E+00 0. -1.
         -2   -1    0    0    0  501 -0.00000000000E+00 -0.00000000000E+00 -0.85025394846E+02  0.85025394846E+02  0.00000000000E+00 0.  1.
          6    2    1    2  502    0 -0.45041457957E+02 -0.23774705798E+03  0.23273663312E+03  0.37822819328E+03  0.17417757974E+03 0.  0.
         24    2    3    3    0    0 -0.48895332760E+02 -0.25363000757E+03  0.19581015516E+03  0.33757385510E+03  0.94316257762E+02 0.  0.
         -6    2    1    2    0  501  0.45041457957E+02  0.23774705798E+03  0.17838943964E+04  0.18084536260E+04  0.17225824543E+03 0.  0.
        -24    2    5    5    0    0  0.68128010458E+02  0.21382073806E+03  0.11922118567E+04  0.12158190206E+04  0.80535989945E+02 0.  0.
          5    1    3    3  502    0  0.38538748035E+01  0.15882949584E+02  0.36926477963E+02  0.40654338185E+02  0.47000000000E+01 0. -1.
        -13    1    4    4    0    0 -0.61068669759E+02 -0.16147230793E+03  0.83453277821E+02  0.19174758990E+03  0.00000000000E+00 0.  1.
         14    1    4    4    0    0  0.12173336998E+02 -0.92157699640E+02  0.11235687734E+03  0.14582626520E+03  0.00000000000E+00 0. -1.
         -5    1    5    5    0  501 -0.23086552501E+02  0.23926319926E+02  0.59168253975E+03  0.59263460541E+03  0.47000000000E+01 0.  1.
         11    1    6    6    0    0  0.54007108231E+02  0.18817904583E+03  0.11327338711E+04  0.11495277917E+04  0.00000000000E+00 0. -1.
        -12    1    6    6    0    0  0.14120902228E+02  0.25641692222E+02  0.59477985550E+02  0.66291228868E+02  0.00000000000E+00 0.  1.
<mgrwt>
<rscale>  2 0.29758551E+03</rscale>
<asrwt>0</asrwt>
<pdfrwt beam="1">  1        2 0.32333172E+00 0.29758551E+03</pdfrwt>
<pdfrwt beam="2">  1       -2 0.13080832E-01 0.29758551E+03</pdfrwt>
<totfact> 0.28129290E+02</totfact>
</mgrwt>
</event>
<event>
12    1  0.4404304E-002  0.2083226E+03  0.7546771E-02  0.1142901E+00
          2   -1    0    0  502    0  0.00000000000E+00  0.00000000000E+00  0.16237160317E+03  0.16237160317E+03  0.00000000000E+00 0. -1.
         -2   -1    0    0    0  501 -0.00000000000E+00 -0.00000000000E+00 -0.30479663492E+03  0.30479663492E+03  0.00000000000E+00 0.  1.
          6    2    1    2  502    0 -0.11787175762E+02 -0.11634483973E+03  0.10637877851E+02  0.20893213607E+03  0.17281323385E+03 0.  0.
         24    2    3    3    0    0  0.32283806203E+02 -0.31271496287E+02  0.50277703971E+02  0.10513844151E+03  0.80660360417E+02 0.  0.
         -6    2    1    2    0  501  0.11787175762E+02  0.11634483973E+03 -0.15306290960E+03  0.25823610201E+03  0.17199584542E+03 0.  0.
        -24    2    5    5    0    0  0.58064283028E+02  0.89804277819E+02 -0.50994678622E+02  0.14297125109E+03  0.80025321691E+02 0.  0.
          5    1    3    3  502    0 -0.44070981965E+02 -0.85073343444E+02 -0.39639826121E+02  0.10379369456E+03  0.47000000000E+01 0. -1.
        -11    1    4    4    0    0 -0.13471721533E+02 -0.42468355013E+02  0.18092075706E+02  0.48087125740E+02  0.00000000000E+00 0.  1.
         12    1    4    4    0    0  0.45755527736E+02  0.11196858726E+02  0.32185628265E+02  0.57051315766E+02  0.00000000000E+00 0. -1.
         -5    1    5    5    0  501 -0.46277107267E+02  0.26540561913E+02 -0.10206823098E+03  0.11526485092E+03  0.47000000000E+01 0.  1.
         11    1    6    6    0    0  0.61525934783E+02  0.21523610446E+02 -0.23742178409E+02  0.69371445805E+02  0.00000000000E+00 0. -1.
        -12    1    6    6    0    0 -0.34616517546E+01  0.68280667373E+02 -0.27252500213E+02  0.73599805282E+02  0.00000000000E+00 0.  1.
<mgrwt>
<rscale>  2 0.20832264E+03</rscale>
<asrwt>0</asrwt>
<pdfrwt beam="1">  1        2 0.24980247E-01 0.20832264E+03</pdfrwt>
<pdfrwt beam="2">  1       -2 0.46891790E-01 0.20832264E+03</pdfrwt>
<totfact> 0.93624391E+02</totfact>
</mgrwt>
</event>
<event>
12    1  0.4404304E-002  0.2239939E+03  0.7546771E-02  0.1130940E+00
          2   -1    0    0  502    0  0.00000000000E+00  0.00000000000E+00  0.43374365946E+03  0.43374365946E+03  0.00000000000E+00 0.  1.
         -2   -1    0    0    0  501 -0.00000000000E+00 -0.00000000000E+00 -0.14952407932E+03  0.14952407932E+03  0.00000000000E+00 0. -1.
          6    2    1    2  502    0  0.47296706789E+02 -0.13335274238E+03  0.34068286951E+01  0.22413057195E+03  0.17379002971E+03 0.  0.
         24    2    3    3    0    0 -0.45651404534E+01 -0.14536080286E+03  0.20395049607E+02  0.16805442403E+03  0.81705127573E+02 0.  0.
         -6    2    1    2    0  501 -0.47296706789E+02  0.13335274238E+03  0.28081275145E+03  0.35913716683E+03  0.17350438279E+03 0.  0.
        -24    2    5    5    0    0  0.20398105724E+02  0.11907880240E+03  0.13987350087E+03  0.20206299531E+03  0.81664030825E+02 0.  0.
          5    1    3    3  502    0  0.51861847243E+02  0.12008060480E+02 -0.16988220911E+02  0.56076147921E+02  0.47000000000E+01 0. -1.
        -11    1    4    4    0    0 -0.39006026368E+02 -0.11052039305E+03  0.20959806129E+02  0.11906108031E+03  0.00000000000E+00 0.  1.
         12    1    4    4    0    0  0.34440885915E+02 -0.34840409811E+02 -0.56475652214E+00  0.48993343715E+02  0.00000000000E+00 0. -1.
         -5    1    5    5    0  501 -0.67694812514E+02  0.14273939978E+02  0.14093925058E+03  0.15707417152E+03  0.47000000000E+01 0.  1.
         13    1    6    6    0    0 -0.14441134579E+02  0.10840206794E+03  0.10657052578E+03  0.15269849923E+03  0.00000000000E+00 0. -1.
        -14    1    6    6    0    0  0.34839240304E+02  0.10676734459E+02  0.33302975088E+02  0.49364496081E+02  0.00000000000E+00 0.  1.
<mgrwt>
<rscale>  2 0.22399393E+03</rscale>
<asrwt>0</asrwt>
<pdfrwt beam="1">  1        2 0.66729793E-01 0.22399393E+03</pdfrwt>
<pdfrwt beam="2">  1       -2 0.23003705E-01 0.22399393E+03</pdfrwt>
<totfact> 0.12004710E+03</totfact>
</mgrwt>
</event>
<event>
12    1  0.4404304E-002  0.2360205E+03  0.7546771E-02  0.1122473E+00
         -2   -1    0    0    0  501 -0.00000000000E+00  0.00000000000E+00  0.26628904519E+02  0.26628904519E+02  0.00000000000E+00 0.  1.
          2   -1    0    0  502    0  0.00000000000E+00 -0.00000000000E+00 -0.20929719786E+04  0.20929719786E+04  0.00000000000E+00 0. -1.
          6    2    1    2  502    0  0.15306114416E+03  0.47883410610E+02 -0.10113364433E+04  0.10386050471E+04  0.17371962323E+03 0.  0.
         24    2    3    3    0    0  0.18029139873E+03  0.32460759223E+02 -0.76829711165E+03  0.79351414221E+03  0.76325308898E+02 0.  0.
         -6    2    1    2    0  501 -0.15306114416E+03 -0.47883410610E+02 -0.10550066308E+04  0.10809958360E+04  0.17260495818E+03 0.  0.
        -24    2    5    5    0    0 -0.96230740130E+02 -0.33642147728E+02 -0.94535617100E+03  0.95658594202E+03  0.10471974486E+03 0.  0.
          5    1    3    3  502    0 -0.27230254567E+02  0.15422651387E+02 -0.24303933165E+03  0.24509090491E+03  0.47000000000E+01 0. -1.
        -13    1    4    4    0    0  0.11679644189E+03  0.49449781891E+02 -0.40761215605E+03  0.42688916539E+03  0.00000000000E+00 0.  1.
         14    1    4    4    0    0  0.63494956839E+02 -0.16989022668E+02 -0.36068495560E+03  0.36662497682E+03  0.00000000000E+00 0. -1.
         -5    1    5    5    0  501 -0.56830404030E+02 -0.14241262882E+02 -0.10965045978E+03  0.12440989398E+03  0.47000000000E+01 0.  1.
         13    1    6    6    0    0 -0.22676827493E+02  0.37233619043E+02 -0.25124860735E+03  0.25500283054E+03  0.00000000000E+00 0. -1.
        -14    1    6    6    0    0 -0.73553912637E+02 -0.70875766771E+02 -0.69410756366E+03  0.70158311147E+03  0.00000000000E+00 0.  1.
<mgrwt>
<rscale>  2 0.23602053E+03</rscale>
<asrwt>0</asrwt>
<pdfrwt beam="2">  1        2 0.32199567E+00 0.23602053E+03</pdfrwt>
<pdfrwt beam="1">  1       -2 0.40967548E-02 0.23602053E+03</pdfrwt>
<totfact> 0.17635025E+03</totfact>
</mgrwt>
</event>
<event>
12    1  0.4404304E-002  0.2230403E+03  0.7546771E-02  0.1131636E+00
          2   -1    0    0  502    0  0.00000000000E+00  0.00000000000E+00  0.40547150515E+04  0.40547150515E+04  0.00000000000E+00 0.  1.
         -2   -1    0    0    0  501 -0.00000000000E+00 -0.00000000000E+00 -0.14328133002E+02  0.14328133002E+02  0.00000000000E+00 0. -1.
          6    2    1    2  502    0  0.13531588064E+03  0.43422161355E+02  0.27907104772E+04  0.27996013131E+04  0.17177506598E+03 0.  0.
         24    2    3    3    0    0  0.10520375465E+03  0.42460972143E+02  0.10762385654E+04  0.10848582740E+04  0.75876615598E+02 0.  0.
         -6    2    1    2    0  501 -0.13531588064E+03 -0.43422161355E+02  0.12496764413E+04  0.12694418714E+04  0.17203367462E+03 0.  0.
        -24    2    5    5    0    0 -0.44818421925E+01  0.12236054265E+02  0.46455466167E+03  0.47153606150E+03  0.79783555199E+02 0.  0.
          5    1    3    3  502    0  0.30112125989E+02  0.96118921194E+00  0.17144719117E+04  0.17147430391E+04  0.47000000000E+01 0. -1.
        -11    1    4    4    0    0  0.12902560081E+02  0.21427608508E+02  0.52154541412E+03  0.52214484336E+03  0.00000000000E+00 0.  1.
         12    1    4    4    0    0  0.92301194566E+02  0.21033363635E+02  0.55469315133E+03  0.56271343065E+03  0.00000000000E+00 0. -1.
         -5    1    5    5    0  501 -0.13083403844E+03 -0.55658215620E+02  0.78512177968E+03  0.79790580992E+03  0.47000000000E+01 0.  1.
         11    1    6    6    0    0 -0.10249239019E+02 -0.24804783926E+02  0.66377767896E+02  0.71598409737E+02  0.00000000000E+00 0. -1.
        -12    1    6    6    0    0  0.57673968264E+01  0.37040838191E+02  0.39817689377E+03  0.39993765176E+03  0.00000000000E+00 0.  1.
<mgrwt>
<rscale>  2 0.22304031E+03</rscale>
<asrwt>0</asrwt>
<pdfrwt beam="1">  1        2 0.62380140E+00 0.22304031E+03</pdfrwt>
<pdfrwt beam="2">  1       -2 0.22043314E-02 0.22304031E+03</pdfrwt>
<totfact> 0.27677926E+02</totfact>
</mgrwt>
</event>
<event>
12    1  0.4404304E-002  0.2688268E+03  0.7546771E-02  0.1101953E+00
         -2   -1    0    0    0  501 -0.00000000000E+00  0.00000000000E+00  0.77550569093E+03  0.77550569093E+03  0.00000000000E+00 0. -1.
          2   -1    0    0  502    0  0.00000000000E+00 -0.00000000000E+00 -0.95088552938E+02  0.95088552938E+02  0.00000000000E+00 0.  1.
          6    2    1    2  502    0 -0.20755170838E+02 -0.20463197004E+03  0.27889759250E+03  0.38749315863E+03  0.17338414175E+03 0.  0.
         24    2    3    3    0    0 -0.59481023764E+02 -0.11073159668E+03  0.23114970340E+03  0.27515918018E+03  0.80516522309E+02 0.  0.
         -6    2    1    2    0  501  0.20755170838E+02  0.20463197004E+03  0.40151954549E+03  0.48310108523E+03  0.17281114796E+03 0.  0.
        -24    2    5    5    0    0  0.76629330645E+02  0.11632643399E+03  0.30083575404E+03  0.33791463514E+03  0.65423666732E+02 0.  0.
          5    1    3    3  502    0  0.38725852926E+02 -0.93900373357E+02  0.47747889092E+02  0.11233397845E+03  0.47000000000E+01 0. -1.
        -11    1    4    4    0    0  0.14420895435E+02 -0.35389928980E+02  0.32291219749E+02  0.50031311908E+02  0.00000000000E+00 0.  1.
         12    1    4    4    0    0 -0.73901919199E+02 -0.75341667700E+02  0.19885848366E+03  0.22512786828E+03  0.00000000000E+00 0. -1.
         -5    1    5    5    0  501 -0.55874159807E+02  0.88305536043E+02  0.10068379145E+03  0.14518645009E+03  0.47000000000E+01 0.  1.
         13    1    6    6    0    0  0.29511649942E+02  0.99371219363E+02  0.19551288673E+03  0.22129361852E+03  0.00000000000E+00 0. -1.
        -14    1    6    6    0    0  0.47117680702E+02  0.16955214631E+02  0.10532286731E+03  0.11662101662E+03  0.00000000000E+00 0.  1.
<mgrwt>
<rscale>  2 0.26882676E+03</rscale>
<asrwt>0</asrwt>
<pdfrwt beam="2">  1        2 0.14629009E-01 0.26882676E+03</pdfrwt>
<pdfrwt beam="1">  1       -2 0.11930856E+00 0.26882676E+03</pdfrwt>
<totfact> 0.22674280E+02</totfact>
</mgrwt>
</event>
<event>
12    1  0.4404304E-002  0.3184256E+03  0.7546771E-02  0.1076376E+00
          2   -1    0    0  502    0  0.00000000000E+00  0.00000000000E+00  0.17516584764E+04  0.17516584764E+04  0.00000000000E+00 0.  1.
         -2   -1    0    0    0  501 -0.00000000000E+00 -0.00000000000E+00 -0.10827666056E+03  0.10827666056E+03  0.00000000000E+00 0. -1.
          6    2    1    2  502    0 -0.26658176986E+03 -0.35094807053E+01  0.14568778186E+04  0.14913891173E+04  0.17512956425E+03 0.  0.
         24    2    3    3    0    0 -0.83299975904E+02 -0.48014176287E+02  0.72210398889E+03  0.73278015689E+03  0.79299057068E+02 0.  0.
         -6    2    1    2    0  501  0.26658176986E+03  0.35094807053E+01  0.18650399722E+03  0.36854601969E+03  0.17310190978E+03 0.  0.
        -24    2    5    5    0    0  0.16999562170E+03 -0.63232912800E+02  0.10053850260E+03  0.22295897571E+03  0.81888959494E+02 0.  0.
          5    1    3    3  502    0 -0.18328179396E+03  0.44504695582E+02  0.73477382973E+03  0.75860896038E+03  0.47000000000E+01 0. -1.
        -13    1    4    4    0    0 -0.64119303686E+02  0.70889449184E+01  0.31713399618E+03  0.32362866032E+03  0.00000000000E+00 0.  1.
         14    1    4    4    0    0 -0.19180672218E+02 -0.55103121205E+02  0.40496999271E+03  0.40915149657E+03  0.00000000000E+00 0. -1.
         -5    1    5    5    0  501  0.96586148166E+02  0.66742393505E+02  0.85965494621E+02  0.14558704398E+03  0.47000000000E+01 0.  1.
         13    1    6    6    0    0  0.87044797195E+02 -0.12651496591E+02  0.88980929340E+02  0.12511779598E+03  0.00000000000E+00 0. -1.
        -14    1    6    6    0    0  0.82950824502E+02 -0.50581416209E+02  0.11557573262E+02  0.97841179730E+02  0.00000000000E+00 0.  1.
<mgrwt>
<rscale>  2 0.31842560E+03</rscale>
<asrwt>0</asrwt>
<pdfrwt beam="1">  1        2 0.26948590E+00 0.31842560E+03</pdfrwt>
<pdfrwt beam="2">  1       -2 0.16657949E-01 0.31842560E+03</pdfrwt>
<totfact> 0.28718049E+02</totfact>
</mgrwt>
</event>
<event>
12    1  0.4404304E-002  0.2493498E+03  0.7546771E-02  0.1113716E+00
          2   -1    0    0  502    0  0.00000000000E+00  0.00000000000E+00  0.82869365114E+03  0.82869365114E+03  0.00000000000E+00 0. -1.
         -2   -1    0    0    0  501 -0.00000000000E+00 -0.00000000000E+00 -0.93769944331E+02  0.93769944331E+02  0.00000000000E+00 0.  1.
          6    2    1    2  502    0 -0.10966456503E+03 -0.14201102542E+03  0.57245791333E+03  0.62400228083E+03  0.17168964960E+03 0.  0.
         24    2    3    3    0    0 -0.10422658805E+03 -0.77925754372E+02  0.51661112230E+03  0.53869432325E+03  0.79805497062E+02 0.  0.
         -6    2    1    2    0  501  0.10966456503E+03  0.14201102542E+03  0.16246579348E+03  0.29846131464E+03  0.17461550368E+03 0.  0.
        -24    2    5    5    0    0  0.13792841903E+02  0.67948872253E+01  0.30937782900E+02  0.86809480515E+02  0.79638724980E+02 0.  0.
          5    1    3    3  502    0 -0.54379769840E+01 -0.64085271044E+02  0.55846791029E+02  0.85307957581E+02  0.47000000000E+01 0. -1.
        -13    1    4    4    0    0 -0.89194994670E+02 -0.21713792078E+02  0.36311994332E+03  0.37454416172E+03  0.00000000000E+00 0.  1.
         14    1    4    4    0    0 -0.15031593380E+02 -0.56211962294E+02  0.15349117898E+03  0.16415016152E+03  0.00000000000E+00 0. -1.
         -5    1    5    5    0  501  0.95871723130E+02  0.13521613819E+03  0.13152801058E+03  0.21165183413E+03  0.47000000000E+01 0.  1.
         11    1    6    6    0    0 -0.31129943687E+02  0.14171742462E+02  0.21244119348E+02  0.40264429528E+02  0.00000000000E+00 0. -1.
        -12    1    6    6    0    0  0.44922785590E+02 -0.73768552363E+01  0.96936635524E+01  0.46545050987E+02  0.00000000000E+00 0.  1.
<mgrwt>
<rscale>  2 0.24934983E+03</rscale>
<asrwt>0</asrwt>
<pdfrwt beam="1">  1        2 0.12749133E+00 0.24934983E+03</pdfrwt>
<pdfrwt beam="2">  1       -2 0.14426146E-01 0.24934983E+03</pdfrwt>
<totfact> 0.12391967E+03</totfact>
</mgrwt>
</event>
<event>
12    1  0.4404304E-002  0.2093611E+03  0.7546771E-02  0.1142073E+00
          1   -1    0    0  502    0  0.00000000000E+00  0.00000000000E+00  0.40001077137E+03  0.40001077137E+03  0.00000000000E+00 0.  1.
         -1   -1    0    0    0  501 -0.00000000000E+00 -0.00000000000E+00 -0.38507901995E+03  0.38507901995E+03  0.00000000000E+00 0. -1.
          6    2    1    2  502    0  0.10867456905E+03  0.45325076550E+02 -0.32456399339E+03  0.38620775823E+03  0.17306103604E+03 0.  0.
         24    2    3    3    0    0  0.13462402067E+03  0.69785415899E+02 -0.23757707624E+03  0.29207755057E+03  0.76634177612E+02 0.  0.
         -6    2    1    2    0  501 -0.10867456905E+03 -0.45325076550E+02  0.33949574480E+03  0.39888203308E+03  0.17316174824E+03 0.  0.
        -24    2    5    5    0    0 -0.47538301516E+02  0.42497591382E+02  0.16781943625E+03  0.19653256031E+03  0.79973424938E+02 0.  0.
          5    1    3    3  502    0 -0.25949451623E+02 -0.24460339348E+02 -0.86986917144E+02  0.94130207664E+02  0.47000000000E+01 0. -1.
        -11    1    4    4    0    0  0.35947352307E+02  0.25049091963E+02 -0.18275907031E+02  0.47472917794E+02  0.00000000000E+00 0.  1.
         12    1    4    4    0    0  0.98676668362E+02  0.44736323936E+02 -0.21930116921E+03  0.24460463278E+03  0.00000000000E+00 0. -1.
         -5    1    5    5    0  501 -0.61136267529E+02 -0.87822667932E+02  0.17167630856E+03  0.20234947277E+03  0.47000000000E+01 0.  1.
         11    1    6    6    0    0 -0.38824906658E+02  0.90350952221E+01  0.15436502791E+03  0.15942888121E+03  0.00000000000E+00 0. -1.
        -12    1    6    6    0    0 -0.87133948587E+01  0.33462496160E+02  0.13454408339E+02  0.37103679102E+02  0.00000000000E+00 0.  1.
<mgrwt>
<rscale>  2 0.20936112E+03</rscale>
<asrwt>0</asrwt>
<pdfrwt beam="1">  1        1 0.61540119E-01 0.20936112E+03</pdfrwt>
<pdfrwt beam="2">  1       -1 0.59242926E-01 0.20936112E+03</pdfrwt>
<totfact> 0.18373409E+02</totfact>
</mgrwt>
</event>
<event>
12    1  0.4404304E-002  0.1879376E+03  0.7546771E-02  0.1160335E+00
          2   -1    0    0  502    0  0.00000000000E+00  0.00000000000E+00  0.16518566081E+04  0.16518566081E+04  0.00000000000E+00 0.  1.
         -2   -1    0    0    0  501 -0.00000000000E+00 -0.00000000000E+00 -0.29110796857E+02  0.29110796857E+02  0.00000000000E+00 0. -1.
          6    2    1    2  502    0  0.16993864262E+02  0.80187832507E+02  0.12352550466E+04  0.12490493509E+04  0.16598304411E+03 0.  0.
         24    2    3    3    0    0  0.25153708852E+02  0.26372136238E+02  0.29186880254E+03  0.30408246910E+03  0.77139817712E+02 0.  0.
         -6    2    1    2    0  501 -0.16993864262E+02 -0.80187832507E+02  0.38749076461E+03  0.43191805402E+03  0.17229403015E+03 0.  0.
        -24    2    5    5    0    0 -0.24785450662E+02 -0.12105395898E+03  0.32343891043E+03  0.35539695147E+03  0.80161616670E+02 0.  0.
          5    1    3    3  502    0 -0.81598445904E+01  0.53815696270E+02  0.94338624406E+03  0.94496688181E+03  0.47000000000E+01 0. -1.
        -11    1    4    4    0    0  0.49080196700E+00  0.46362464891E+01  0.25355666873E+03  0.25359952667E+03  0.00000000000E+00 0.  1.
         12    1    4    4    0    0  0.24662906885E+02  0.21735889749E+02  0.38312133808E+02  0.50482942428E+02  0.00000000000E+00 0. -1.
         -5    1    5    5    0  501  0.77915864004E+01  0.40866126471E+02  0.64051854182E+02  0.76521102550E+02  0.47000000000E+01 0.  1.
         11    1    6    6    0    0 -0.30857150474E+02 -0.93287718844E+02  0.14785221556E+03  0.17752475847E+03  0.00000000000E+00 0. -1.
        -12    1    6    6    0    0  0.60716998113E+01 -0.27766240134E+02  0.17558669487E+03  0.17787219300E+03  0.00000000000E+00 0.  1.
<mgrwt>
<rscale>  2 0.18793764E+03</rscale>
<asrwt>0</asrwt>
<pdfrwt beam="1">  1        2 0.25413171E+00 0.18793764E+03</pdfrwt>
<pdfrwt beam="2">  1       -2 0.44785854E-02 0.18793764E+03</pdfrwt>
<totfact> 0.26242657E+03</totfact>
</mgrwt>
</event>
